MODEL 1
REMARK VINA RESULT:      -7.7      0.000      0.000
REMARK  Name = ZINC000870248439
REMARK  2 active torsions:
REMARK  status: ('A' for Active; 'I' for Inactive)
REMARK    1  A    between atoms: C_2  and  C_4
REMARK    2  A    between atoms: C_7  and  C_8
REMARK                            x       y       z     vdW  Elec       q    Type
REMARK                         _______ _______ _______ _____ _____    ______ ____
ROOT
ATOM      1  C   UNL     1      29.386  17.357  16.552  0.00  0.00    +0.247 C 
ATOM      2  O   UNL     1      29.303  16.620  17.533  0.00  0.00    -0.270 OA
ATOM      3  N   UNL     1      29.625  18.735  16.644  0.00  0.00    -0.297 N 
ATOM      4  C   UNL     1      29.698  19.665  15.515  0.00  0.00    +0.108 C 
ATOM      5  C   UNL     1      30.758  20.745  15.691  0.00  0.00    +0.026 C 
ATOM      6  C   UNL     1      30.679  21.474  17.050  0.00  0.00    -0.025 C 
ATOM      7  C   UNL     1      31.936  22.373  17.168  0.00  0.00    +0.017 C 
ATOM      8  C   UNL     1      32.015  23.206  18.440  0.00  0.00    +0.069 C 
ATOM      9  S   UNL     1      30.614  24.347  18.605  0.00  0.00    -0.161 S 
ATOM     10  C   UNL     1      29.248  23.178  18.373  0.00  0.00    +0.069 C 
ATOM     11  C   UNL     1      29.407  22.361  17.095  0.00  0.00    +0.017 C 
ATOM     12  C   UNL     1      30.683  20.384  18.153  0.00  0.00    +0.026 C 
ATOM     13  C   UNL     1      29.578  19.344  17.971  0.00  0.00    +0.108 C 
ENDROOT
BRANCH   1  17
ATOM     14  C   UNL     1      29.038  15.266  12.846  0.00  0.00    +0.037 A 
ATOM     15  C   UNL     1      30.304  15.661  13.292  0.00  0.00    +0.014 A 
ATOM     16  C   UNL     1      30.419  16.429  14.451  0.00  0.00    +0.014 A 
ATOM     17  C   UNL     1      29.284  16.719  15.216  0.00  0.00    +0.037 A 
ATOM     18  C   UNL     1      28.012  16.402  14.721  0.00  0.00    +0.014 A 
ATOM     19  C   UNL     1      27.889  15.684  13.529  0.00  0.00    +0.014 A 
BRANCH  14  21
ATOM     20  N   UNL     1      28.777  13.059  11.861  0.00  0.00    -0.325 N 
ATOM     21  C   UNL     1      28.886  14.405  11.646  0.00  0.00    +0.242 C 
ATOM     22  O   UNL     1      28.807  14.878  10.523  0.00  0.00    -0.270 OA
ATOM     23  H   UNL     1      28.551  12.497  11.050  0.00  0.00    +0.145 HD
ATOM     24  H   UNL     1      28.574  12.671  12.771  0.00  0.00    +0.145 HD
ENDBRANCH  14  21
ENDBRANCH   1  17
TORSDOF 2
ENDMDL
MODEL 2
REMARK VINA RESULT:      -7.4      1.240      1.664
REMARK  Name = ZINC000870248439
REMARK  2 active torsions:
REMARK  status: ('A' for Active; 'I' for Inactive)
REMARK    1  A    between atoms: C_2  and  C_4
REMARK    2  A    between atoms: C_7  and  C_8
REMARK                            x       y       z     vdW  Elec       q    Type
REMARK                         _______ _______ _______ _____ _____    ______ ____
ROOT
ATOM      1  C   UNL     1      28.816  17.930  16.351  0.00  0.00    +0.247 C 
ATOM      2  O   UNL     1      28.010  17.746  17.263  0.00  0.00    -0.270 OA
ATOM      3  N   UNL     1      29.747  18.977  16.349  0.00  0.00    -0.297 N 
ATOM      4  C   UNL     1      30.703  19.264  15.277  0.00  0.00    +0.108 C 
ATOM      5  C   UNL     1      32.057  19.739  15.788  0.00  0.00    +0.026 C 
ATOM      6  C   UNL     1      31.963  20.888  16.816  0.00  0.00    -0.025 C 
ATOM      7  C   UNL     1      33.382  21.107  17.399  0.00  0.00    +0.017 C 
ATOM      8  C   UNL     1      33.494  22.236  18.414  0.00  0.00    +0.069 C 
ATOM      9  S   UNL     1      33.030  23.843  17.712  0.00  0.00    -0.161 S 
ATOM     10  C   UNL     1      31.413  23.410  17.016  0.00  0.00    +0.069 C 
ATOM     11  C   UNL     1      31.492  22.186  16.109  0.00  0.00    +0.017 C 
ATOM     12  C   UNL     1      30.983  20.426  17.926  0.00  0.00    +0.026 C 
ATOM     13  C   UNL     1      29.619  20.002  17.382  0.00  0.00    +0.108 C 
ENDROOT
BRANCH   1  17
ATOM     14  C   UNL     1      28.888  15.316  12.976  0.00  0.00    +0.037 A 
ATOM     15  C   UNL     1      27.658  15.667  13.544  0.00  0.00    +0.014 A 
ATOM     16  C   UNL     1      27.628  16.440  14.704  0.00  0.00    +0.014 A 
ATOM     17  C   UNL     1      28.818  16.944  15.242  0.00  0.00    +0.037 A 
ATOM     18  C   UNL     1      30.049  16.519  14.726  0.00  0.00    +0.014 A 
ATOM     19  C   UNL     1      30.084  15.695  13.598  0.00  0.00    +0.014 A 
BRANCH  14  21
ATOM     20  N   UNL     1      28.754  13.189  11.806  0.00  0.00    -0.325 N 
ATOM     21  C   UNL     1      28.951  14.539  11.713  0.00  0.00    +0.242 C 
ATOM     22  O   UNL     1      29.117  15.084  10.632  0.00  0.00    -0.270 OA
ATOM     23  H   UNL     1      28.677  12.689  10.930  0.00  0.00    +0.145 HD
ATOM     24  H   UNL     1      28.358  12.756  12.628  0.00  0.00    +0.145 HD
ENDBRANCH  14  21
ENDBRANCH   1  17
TORSDOF 2
ENDMDL
MODEL 3
REMARK VINA RESULT:      -6.9      1.877      2.246
REMARK  Name = ZINC000870248439
REMARK  2 active torsions:
REMARK  status: ('A' for Active; 'I' for Inactive)
REMARK    1  A    between atoms: C_2  and  C_4
REMARK    2  A    between atoms: C_7  and  C_8
REMARK                            x       y       z     vdW  Elec       q    Type
REMARK                         _______ _______ _______ _____ _____    ______ ____
ROOT
ATOM      1  C   UNL     1      29.072  16.790  14.923  0.00  0.00    +0.247 C 
ATOM      2  O   UNL     1      28.121  16.133  15.343  0.00  0.00    -0.270 OA
ATOM      3  N   UNL     1      29.390  18.070  15.396  0.00  0.00    -0.297 N 
ATOM      4  C   UNL     1      30.486  18.911  14.909  0.00  0.00    +0.108 C 
ATOM      5  C   UNL     1      31.172  19.705  16.013  0.00  0.00    +0.026 C 
ATOM      6  C   UNL     1      30.192  20.482  16.918  0.00  0.00    -0.025 C 
ATOM      7  C   UNL     1      31.009  21.051  18.106  0.00  0.00    +0.017 C 
ATOM      8  C   UNL     1      30.209  21.886  19.096  0.00  0.00    +0.069 C 
ATOM      9  S   UNL     1      29.452  23.340  18.318  0.00  0.00    -0.161 S 
ATOM     10  C   UNL     1      28.611  22.532  16.930  0.00  0.00    +0.069 C 
ATOM     11  C   UNL     1      29.560  21.654  16.122  0.00  0.00    +0.017 C 
ATOM     12  C   UNL     1      29.134  19.466  17.421  0.00  0.00    +0.026 C 
ATOM     13  C   UNL     1      28.432  18.722  16.286  0.00  0.00    +0.108 C 
ENDROOT
BRANCH   1  17
ATOM     14  C   UNL     1      31.499  14.678  12.116  0.00  0.00    +0.037 A 
ATOM     15  C   UNL     1      32.111  15.358  13.174  0.00  0.00    +0.014 A 
ATOM     16  C   UNL     1      31.336  16.130  14.040  0.00  0.00    +0.014 A 
ATOM     17  C   UNL     1      29.943  16.146  13.908  0.00  0.00    +0.037 A 
ATOM     18  C   UNL     1      29.342  15.540  12.797  0.00  0.00    +0.014 A 
ATOM     19  C   UNL     1      30.123  14.814  11.894  0.00  0.00    +0.014 A 
BRANCH  14  21
ATOM     20  N   UNL     1      31.850  12.521  11.052  0.00  0.00    -0.325 N 
ATOM     21  C   UNL     1      32.288  13.806  11.210  0.00  0.00    +0.242 C 
ATOM     22  O   UNL     1      33.253  14.229  10.592  0.00  0.00    -0.270 OA
ATOM     23  H   UNL     1      32.321  11.974  10.341  0.00  0.00    +0.145 HD
ATOM     24  H   UNL     1      30.926  12.225  11.332  0.00  0.00    +0.145 HD
ENDBRANCH  14  21
ENDBRANCH   1  17
TORSDOF 2
ENDMDL
MODEL 4
REMARK VINA RESULT:      -6.7      4.012      7.525
REMARK  Name = ZINC000870248439
REMARK  2 active torsions:
REMARK  status: ('A' for Active; 'I' for Inactive)
REMARK    1  A    between atoms: C_2  and  C_4
REMARK    2  A    between atoms: C_7  and  C_8
REMARK                            x       y       z     vdW  Elec       q    Type
REMARK                         _______ _______ _______ _____ _____    ______ ____
ROOT
ATOM      1  C   UNL     1      28.827  17.384  14.718  0.00  0.00    +0.247 C 
ATOM      2  O   UNL     1      27.815  16.702  14.560  0.00  0.00    -0.270 OA
ATOM      3  N   UNL     1      30.089  17.009  14.237  0.00  0.00    -0.297 N 
ATOM      4  C   UNL     1      31.330  17.762  14.426  0.00  0.00    +0.108 C 
ATOM      5  C   UNL     1      32.249  17.724  13.212  0.00  0.00    +0.026 C 
ATOM      6  C   UNL     1      32.501  16.301  12.670  0.00  0.00    -0.025 C 
ATOM      7  C   UNL     1      33.259  16.443  11.326  0.00  0.00    +0.017 C 
ATOM      8  C   UNL     1      33.630  15.129  10.653  0.00  0.00    +0.069 C 
ATOM      9  S   UNL     1      34.713  14.106  11.688  0.00  0.00    -0.161 S 
ATOM     10  C   UNL     1      33.741  14.096  13.219  0.00  0.00    +0.069 C 
ATOM     11  C   UNL     1      33.378  15.506  13.672  0.00  0.00    +0.017 C 
ATOM     12  C   UNL     1      31.113  15.647  12.445  0.00  0.00    +0.026 C 
ATOM     13  C   UNL     1      30.236  15.660  13.697  0.00  0.00    +0.108 C 
ENDROOT
BRANCH   1  17
ATOM     14  C   UNL     1      28.122  21.194  16.512  0.00  0.00    +0.037 A 
ATOM     15  C   UNL     1      29.216  21.033  15.654  0.00  0.00    +0.014 A 
ATOM     16  C   UNL     1      29.512  19.770  15.141  0.00  0.00    +0.014 A 
ATOM     17  C   UNL     1      28.662  18.690  15.403  0.00  0.00    +0.037 A 
ATOM     18  C   UNL     1      27.622  18.832  16.331  0.00  0.00    +0.014 A 
ATOM     19  C   UNL     1      27.359  20.084  16.894  0.00  0.00    +0.014 A 
BRANCH  14  21
ATOM     20  N   UNL     1      28.770  23.420  17.241  0.00  0.00    -0.325 N 
ATOM     21  C   UNL     1      27.751  22.534  17.032  0.00  0.00    +0.242 C 
ATOM     22  O   UNL     1      26.585  22.850  17.214  0.00  0.00    -0.270 OA
ATOM     23  H   UNL     1      28.495  24.366  17.477  0.00  0.00    +0.145 HD
ATOM     24  H   UNL     1      29.694  23.284  16.855  0.00  0.00    +0.145 HD
ENDBRANCH  14  21
ENDBRANCH   1  17
TORSDOF 2
ENDMDL
MODEL 5
REMARK VINA RESULT:      -6.6     18.952     20.480
REMARK  Name = ZINC000870248439
REMARK  2 active torsions:
REMARK  status: ('A' for Active; 'I' for Inactive)
REMARK    1  A    between atoms: C_2  and  C_4
REMARK    2  A    between atoms: C_7  and  C_8
REMARK                            x       y       z     vdW  Elec       q    Type
REMARK                         _______ _______ _______ _____ _____    ______ ____
ROOT
ATOM      1  C   UNL     1      15.448   5.293  11.812  0.00  0.00    +0.247 C 
ATOM      2  O   UNL     1      14.840   4.685  12.692  0.00  0.00    -0.270 OA
ATOM      3  N   UNL     1      16.610   4.802  11.202  0.00  0.00    -0.297 N 
ATOM      4  C   UNL     1      17.393   5.497  10.177  0.00  0.00    +0.108 C 
ATOM      5  C   UNL     1      17.951   4.564   9.110  0.00  0.00    +0.026 C 
ATOM      6  C   UNL     1      18.692   3.338   9.685  0.00  0.00    -0.025 C 
ATOM      7  C   UNL     1      19.002   2.386   8.502  0.00  0.00    +0.017 C 
ATOM      8  C   UNL     1      19.770   1.125   8.873  0.00  0.00    +0.069 C 
ATOM      9  S   UNL     1      21.387   1.493   9.607  0.00  0.00    -0.161 S 
ATOM     10  C   UNL     1      20.872   2.653  10.902  0.00  0.00    +0.069 C 
ATOM     11  C   UNL     1      20.022   3.789  10.343  0.00  0.00    +0.017 C 
ATOM     12  C   UNL     1      17.730   2.656  10.693  0.00  0.00    +0.026 C 
ATOM     13  C   UNL     1      17.227   3.610  11.777  0.00  0.00    +0.108 C 
ENDROOT
BRANCH   1  17
ATOM     14  C   UNL     1      13.592   8.980  10.723  0.00  0.00    +0.037 A 
ATOM     15  C   UNL     1      13.303   7.826   9.987  0.00  0.00    +0.014 A 
ATOM     16  C   UNL     1      13.978   6.638  10.272  0.00  0.00    +0.014 A 
ATOM     17  C   UNL     1      14.866   6.578  11.352  0.00  0.00    +0.037 A 
ATOM     18  C   UNL     1      15.219   7.753  12.028  0.00  0.00    +0.014 A 
ATOM     19  C   UNL     1      14.589   8.958  11.705  0.00  0.00    +0.014 A 
BRANCH  14  21
ATOM     20  N   UNL     1      12.561  10.549   9.178  0.00  0.00    -0.325 N 
ATOM     21  C   UNL     1      12.854  10.245  10.478  0.00  0.00    +0.242 C 
ATOM     22  O   UNL     1      12.478  10.956  11.398  0.00  0.00    -0.270 OA
ATOM     23  H   UNL     1      11.954  11.346   9.033  0.00  0.00    +0.145 HD
ATOM     24  H   UNL     1      12.621   9.866   8.436  0.00  0.00    +0.145 HD
ENDBRANCH  14  21
ENDBRANCH   1  17
TORSDOF 2
ENDMDL
MODEL 6
REMARK VINA RESULT:      -6.5      2.765      4.143
REMARK  Name = ZINC000870248439
REMARK  2 active torsions:
REMARK  status: ('A' for Active; 'I' for Inactive)
REMARK    1  A    between atoms: C_2  and  C_4
REMARK    2  A    between atoms: C_7  and  C_8
REMARK                            x       y       z     vdW  Elec       q    Type
REMARK                         _______ _______ _______ _____ _____    ______ ____
ROOT
ATOM      1  C   UNL     1      29.917  20.679  18.364  0.00  0.00    +0.247 C 
ATOM      2  O   UNL     1      29.088  21.064  19.187  0.00  0.00    -0.270 OA
ATOM      3  N   UNL     1      31.227  21.173  18.304  0.00  0.00    -0.297 N 
ATOM      4  C   UNL     1      32.242  20.779  17.325  0.00  0.00    +0.108 C 
ATOM      5  C   UNL     1      33.644  20.690  17.914  0.00  0.00    +0.026 C 
ATOM      6  C   UNL     1      34.058  21.940  18.720  0.00  0.00    -0.025 C 
ATOM      7  C   UNL     1      35.396  21.612  19.429  0.00  0.00    +0.017 C 
ATOM      8  C   UNL     1      35.985  22.751  20.252  0.00  0.00    +0.069 C 
ATOM      9  S   UNL     1      36.342  24.216  19.244  0.00  0.00    -0.161 S 
ATOM     10  C   UNL     1      34.732  24.423  18.436  0.00  0.00    +0.069 C 
ATOM     11  C   UNL     1      34.266  23.138  17.759  0.00  0.00    +0.017 C 
ATOM     12  C   UNL     1      32.940  22.200  19.763  0.00  0.00    +0.026 C 
ATOM     13  C   UNL     1      31.553  22.331  19.132  0.00  0.00    +0.108 C 
ENDROOT
BRANCH   1  17
ATOM     14  C   UNL     1      29.000  17.524  15.636  0.00  0.00    +0.037 A 
ATOM     15  C   UNL     1      28.713  18.846  15.276  0.00  0.00    +0.014 A 
ATOM     16  C   UNL     1      28.918  19.873  16.197  0.00  0.00    +0.014 A 
ATOM     17  C   UNL     1      29.499  19.596  17.439  0.00  0.00    +0.037 A 
ATOM     18  C   UNL     1      29.701  18.266  17.831  0.00  0.00    +0.014 A 
ATOM     19  C   UNL     1      29.441  17.229  16.932  0.00  0.00    +0.014 A 
BRANCH  14  21
ATOM     20  N   UNL     1      29.896  16.172  13.827  0.00  0.00    -0.325 N 
ATOM     21  C   UNL     1      28.842  16.416  14.662  0.00  0.00    +0.242 C 
ATOM     22  O   UNL     1      27.840  15.718  14.641  0.00  0.00    -0.270 OA
ATOM     23  H   UNL     1      29.827  15.341  13.254  0.00  0.00    +0.145 HD
ATOM     24  H   UNL     1      30.819  16.549  13.995  0.00  0.00    +0.145 HD
ENDBRANCH  14  21
ENDBRANCH   1  17
TORSDOF 2
ENDMDL
MODEL 7
REMARK VINA RESULT:      -6.5      5.937      7.915
REMARK  Name = ZINC000870248439
REMARK  2 active torsions:
REMARK  status: ('A' for Active; 'I' for Inactive)
REMARK    1  A    between atoms: C_2  and  C_4
REMARK    2  A    between atoms: C_7  and  C_8
REMARK                            x       y       z     vdW  Elec       q    Type
REMARK                         _______ _______ _______ _____ _____    ______ ____
ROOT
ATOM      1  C   UNL     1      32.874  23.355  14.088  0.00  0.00    +0.247 C 
ATOM      2  O   UNL     1      33.511  24.032  14.894  0.00  0.00    -0.270 OA
ATOM      3  N   UNL     1      32.086  22.258  14.460  0.00  0.00    -0.297 N 
ATOM      4  C   UNL     1      31.337  21.397  13.541  0.00  0.00    +0.108 C 
ATOM      5  C   UNL     1      29.990  20.950  14.097  0.00  0.00    +0.026 C 
ATOM      6  C   UNL     1      30.073  20.360  15.521  0.00  0.00    -0.025 C 
ATOM      7  C   UNL     1      28.621  20.162  16.026  0.00  0.00    +0.017 C 
ATOM      8  C   UNL     1      28.500  19.549  17.414  0.00  0.00    +0.069 C 
ATOM      9  S   UNL     1      29.251  17.901  17.508  0.00  0.00    -0.161 S 
ATOM     10  C   UNL     1      30.888  18.279  16.826  0.00  0.00    +0.069 C 
ATOM     11  C   UNL     1      30.793  18.988  15.479  0.00  0.00    +0.017 C 
ATOM     12  C   UNL     1      30.818  21.398  16.401  0.00  0.00    +0.026 C 
ATOM     13  C   UNL     1      32.185  21.787  15.838  0.00  0.00    +0.108 C 
ENDROOT
BRANCH   1  17
ATOM     14  C   UNL     1      33.195  24.778  10.075  0.00  0.00    +0.037 A 
ATOM     15  C   UNL     1      32.072  25.121  10.835  0.00  0.00    +0.014 A 
ATOM     16  C   UNL     1      31.910  24.583  12.111  0.00  0.00    +0.014 A 
ATOM     17  C   UNL     1      32.914  23.781  12.667  0.00  0.00    +0.037 A 
ATOM     18  C   UNL     1      33.991  23.366  11.873  0.00  0.00    +0.014 A 
ATOM     19  C   UNL     1      34.126  23.857  10.572  0.00  0.00    +0.014 A 
BRANCH  14  21
ATOM     20  N   UNL     1      32.719  24.839   7.692  0.00  0.00    -0.325 N 
ATOM     21  C   UNL     1      33.422  25.375   8.735  0.00  0.00    +0.242 C 
ATOM     22  O   UNL     1      34.161  26.335   8.578  0.00  0.00    -0.270 OA
ATOM     23  H   UNL     1      32.788  25.331   6.810  0.00  0.00    +0.145 HD
ATOM     24  H   UNL     1      31.920  24.237   7.830  0.00  0.00    +0.145 HD
ENDBRANCH  14  21
ENDBRANCH   1  17
TORSDOF 2
ENDMDL
MODEL 8
REMARK VINA RESULT:      -6.5      5.867      7.558
REMARK  Name = ZINC000870248439
REMARK  2 active torsions:
REMARK  status: ('A' for Active; 'I' for Inactive)
REMARK    1  A    between atoms: C_2  and  C_4
REMARK    2  A    between atoms: C_7  and  C_8
REMARK                            x       y       z     vdW  Elec       q    Type
REMARK                         _______ _______ _______ _____ _____    ______ ____
ROOT
ATOM      1  C   UNL     1      33.253  23.939  13.558  0.00  0.00    +0.247 C 
ATOM      2  O   UNL     1      33.943  24.760  14.161  0.00  0.00    -0.270 OA
ATOM      3  N   UNL     1      32.397  23.035  14.200  0.00  0.00    -0.297 N 
ATOM      4  C   UNL     1      31.581  22.016  13.536  0.00  0.00    +0.108 C 
ATOM      5  C   UNL     1      30.213  21.825  14.180  0.00  0.00    +0.026 C 
ATOM      6  C   UNL     1      30.271  21.628  15.710  0.00  0.00    -0.025 C 
ATOM      7  C   UNL     1      28.815  21.670  16.238  0.00  0.00    +0.017 C 
ATOM      8  C   UNL     1      28.667  21.455  17.738  0.00  0.00    +0.069 C 
ATOM      9  S   UNL     1      29.305  19.843  18.270  0.00  0.00    -0.161 S 
ATOM     10  C   UNL     1      30.956  19.914  17.524  0.00  0.00    +0.069 C 
ATOM     11  C   UNL     1      30.896  20.248  16.038  0.00  0.00    +0.017 C 
ATOM     12  C   UNL     1      31.094  22.808  16.290  0.00  0.00    +0.026 C 
ATOM     13  C   UNL     1      32.478  22.940  15.655  0.00  0.00    +0.108 C 
ENDROOT
BRANCH   1  17
ATOM     14  C   UNL     1      33.175  23.850   9.290  0.00  0.00    +0.037 A 
ATOM     15  C   UNL     1      34.173  23.146   9.970  0.00  0.00    +0.014 A 
ATOM     16  C   UNL     1      34.267  23.247  11.359  0.00  0.00    +0.014 A 
ATOM     17  C   UNL     1      33.307  23.971  12.075  0.00  0.00    +0.037 A 
ATOM     18  C   UNL     1      32.365  24.747  11.387  0.00  0.00    +0.014 A 
ATOM     19  C   UNL     1      32.306  24.695   9.992  0.00  0.00    +0.014 A 
BRANCH  14  21
ATOM     20  N   UNL     1      32.391  24.750   7.172  0.00  0.00    -0.325 N 
ATOM     21  C   UNL     1      33.017  23.721   7.819  0.00  0.00    +0.242 C 
ATOM     22  O   UNL     1      33.472  22.767   7.207  0.00  0.00    -0.270 OA
ATOM     23  H   UNL     1      32.398  24.709   6.161  0.00  0.00    +0.145 HD
ATOM     24  H   UNL     1      32.246  25.652   7.602  0.00  0.00    +0.145 HD
ENDBRANCH  14  21
ENDBRANCH   1  17
TORSDOF 2
ENDMDL
MODEL 9
REMARK VINA RESULT:      -6.5      4.036      7.538
REMARK  Name = ZINC000870248439
REMARK  2 active torsions:
REMARK  status: ('A' for Active; 'I' for Inactive)
REMARK    1  A    between atoms: C_2  and  C_4
REMARK    2  A    between atoms: C_7  and  C_8
REMARK                            x       y       z     vdW  Elec       q    Type
REMARK                         _______ _______ _______ _____ _____    ______ ____
ROOT
ATOM      1  C   UNL     1      29.767  17.123  15.082  0.00  0.00    +0.247 C 
ATOM      2  O   UNL     1      28.939  16.213  15.107  0.00  0.00    -0.270 OA
ATOM      3  N   UNL     1      30.919  17.091  14.285  0.00  0.00    -0.297 N 
ATOM      4  C   UNL     1      31.953  18.128  14.243  0.00  0.00    +0.108 C 
ATOM      5  C   UNL     1      32.520  18.356  12.847  0.00  0.00    +0.026 C 
ATOM      6  C   UNL     1      32.958  17.058  12.136  0.00  0.00    -0.025 C 
ATOM      7  C   UNL     1      33.298  17.424  10.669  0.00  0.00    +0.017 C 
ATOM      8  C   UNL     1      33.789  16.265   9.812  0.00  0.00    +0.069 C 
ATOM      9  S   UNL     1      35.307  15.519  10.466  0.00  0.00    -0.161 S 
ATOM     10  C   UNL     1      34.782  15.222  12.176  0.00  0.00    +0.069 C 
ATOM     11  C   UNL     1      34.221  16.481  12.827  0.00  0.00    +0.017 C 
ATOM     12  C   UNL     1      31.753  16.082  12.187  0.00  0.00    +0.026 C 
ATOM     13  C   UNL     1      31.241  15.839  13.607  0.00  0.00    +0.108 C 
ENDROOT
BRANCH   1  17
ATOM     14  C   UNL     1      29.144  20.721  17.295  0.00  0.00    +0.037 A 
ATOM     15  C   UNL     1      29.750  19.627  17.923  0.00  0.00    +0.014 A 
ATOM     16  C   UNL     1      29.870  18.417  17.240  0.00  0.00    +0.014 A 
ATOM     17  C   UNL     1      29.474  18.326  15.901  0.00  0.00    +0.037 A 
ATOM     18  C   UNL     1      28.788  19.391  15.304  0.00  0.00    +0.014 A 
ATOM     19  C   UNL     1      28.613  20.586  16.007  0.00  0.00    +0.014 A 
BRANCH  14  21
ATOM     20  N   UNL     1      28.563  23.080  17.241  0.00  0.00    -0.325 N 
ATOM     21  C   UNL     1      29.049  22.036  17.977  0.00  0.00    +0.242 C 
ATOM     22  O   UNL     1      29.341  22.170  19.155  0.00  0.00    -0.270 OA
ATOM     23  H   UNL     1      28.387  23.939  17.748  0.00  0.00    +0.145 HD
ATOM     24  H   UNL     1      28.074  22.945  16.367  0.00  0.00    +0.145 HD
ENDBRANCH  14  21
ENDBRANCH   1  17
TORSDOF 2
ENDMDL
