MODEL 1
REMARK VINA RESULT:      -6.4      0.000      0.000
REMARK  Name = ZINC001228612316
REMARK  5 active torsions:
REMARK  status: ('A' for Active; 'I' for Inactive)
REMARK    1  A    between atoms: C_2  and  C_4
REMARK    2  A    between atoms: C_8  and  O_9
REMARK    3  A    between atoms: O_9  and  C_10
REMARK    4  A    between atoms: C_10  and  C_11
REMARK    5  A    between atoms: C_10  and  C_17
REMARK                            x       y       z     vdW  Elec       q    Type
REMARK                         _______ _______ _______ _____ _____    ______ ____
ROOT
ATOM      1  C   UNL     1      27.823  21.650  18.519  0.00  0.00    +0.040 A 
ATOM      2  C   UNL     1      26.653  21.336  17.819  0.00  0.00    +0.013 A 
ATOM      3  C   UNL     1      26.730  20.794  16.536  0.00  0.00    +0.004 A 
ATOM      4  C   UNL     1      27.974  20.561  15.944  0.00  0.00    +0.046 A 
ATOM      5  C   UNL     1      29.147  20.873  16.630  0.00  0.00    +0.122 A 
ATOM      6  C   UNL     1      29.067  21.416  17.919  0.00  0.00    +0.058 A 
ENDROOT
BRANCH   1   8
ATOM      7  N   UNL     1      28.837  22.399  20.612  0.00  0.00    -0.325 N 
ATOM      8  C   UNL     1      27.689  22.209  19.891  0.00  0.00    +0.242 C 
ATOM      9  O   UNL     1      26.600  22.527  20.354  0.00  0.00    -0.270 OA
ATOM     10  H   UNL     1      28.733  22.877  21.498  0.00  0.00    +0.145 HD
ATOM     11  H   UNL     1      29.754  22.380  20.193  0.00  0.00    +0.145 HD
ENDBRANCH   1   8
BRANCH   5  12
ATOM     12  O   UNL     1      30.416  20.760  16.131  0.00  0.00    -0.484 OA
BRANCH  12  13
ATOM     13  C   UNL     1      31.206  19.617  16.499  0.00  0.00    +0.208 C 
BRANCH  13  14
ATOM     14  C   UNL     1      31.448  18.659  15.349  0.00  0.00    +0.011 A 
ATOM     15  C   UNL     1      30.653  17.535  15.106  0.00  0.00    +0.010 A 
ATOM     16  C   UNL     1      30.889  16.755  13.976  0.00  0.00    +0.020 A 
ATOM     17  C   UNL     1      31.913  17.127  13.119  0.00  0.00    +0.111 A 
ATOM     18  N   UNL     1      32.707  18.197  13.323  0.00  0.00    -0.263 NA
ATOM     19  C   UNL     1      32.455  18.936  14.425  0.00  0.00    +0.118 A 
ENDBRANCH  13  14
BRANCH  13  20
ATOM     20  C   UNL     1      32.571  20.085  16.993  0.00  0.00    +0.034 C 
ATOM     21  C   UNL     1      33.349  19.262  17.991  0.00  0.00    +0.008 C 
ATOM     22  C   UNL     1      32.808  20.607  18.393  0.00  0.00    +0.008 C 
ENDBRANCH  13  20
ENDBRANCH  12  13
ENDBRANCH   5  12
TORSDOF 5
ENDMDL
MODEL 2
REMARK VINA RESULT:      -6.3      1.699      2.244
REMARK  Name = ZINC001228612316
REMARK  5 active torsions:
REMARK  status: ('A' for Active; 'I' for Inactive)
REMARK    1  A    between atoms: C_2  and  C_4
REMARK    2  A    between atoms: C_8  and  O_9
REMARK    3  A    between atoms: O_9  and  C_10
REMARK    4  A    between atoms: C_10  and  C_11
REMARK    5  A    between atoms: C_10  and  C_17
REMARK                            x       y       z     vdW  Elec       q    Type
REMARK                         _______ _______ _______ _____ _____    ______ ____
ROOT
ATOM      1  C   UNL     1      27.747  21.262  17.726  0.00  0.00    +0.040 A 
ATOM      2  C   UNL     1      27.753  21.900  18.972  0.00  0.00    +0.013 A 
ATOM      3  C   UNL     1      28.960  22.284  19.555  0.00  0.00    +0.004 A 
ATOM      4  C   UNL     1      30.169  22.037  18.899  0.00  0.00    +0.046 A 
ATOM      5  C   UNL     1      30.177  21.399  17.659  0.00  0.00    +0.122 A 
ATOM      6  C   UNL     1      28.962  21.016  17.075  0.00  0.00    +0.058 A 
ENDROOT
BRANCH   1   8
ATOM      7  N   UNL     1      25.707  19.920  17.778  0.00  0.00    -0.325 N 
ATOM      8  C   UNL     1      26.433  20.888  17.138  0.00  0.00    +0.242 C 
ATOM      9  O   UNL     1      25.991  21.445  16.140  0.00  0.00    -0.270 OA
ATOM     10  H   UNL     1      24.773  19.756  17.423  0.00  0.00    +0.145 HD
ATOM     11  H   UNL     1      25.914  19.612  18.715  0.00  0.00    +0.145 HD
ENDBRANCH   1   8
BRANCH   5  12
ATOM     12  O   UNL     1      31.294  21.038  16.956  0.00  0.00    -0.484 OA
BRANCH  12  13
ATOM     13  C   UNL     1      31.807  19.704  17.107  0.00  0.00    +0.208 C 
BRANCH  13  14
ATOM     14  C   UNL     1      31.806  18.911  15.814  0.00  0.00    +0.011 A 
ATOM     15  C   UNL     1      30.820  17.977  15.488  0.00  0.00    +0.010 A 
ATOM     16  C   UNL     1      30.844  17.355  14.241  0.00  0.00    +0.020 A 
ATOM     17  C   UNL     1      31.856  17.691  13.356  0.00  0.00    +0.111 A 
ATOM     18  N   UNL     1      32.831  18.580  13.636  0.00  0.00    -0.263 NA
ATOM     19  C   UNL     1      32.782  19.168  14.850  0.00  0.00    +0.118 A 
ENDBRANCH  13  14
BRANCH  13  20
ATOM     20  C   UNL     1      33.250  19.772  17.596  0.00  0.00    +0.034 C 
ATOM     21  C   UNL     1      33.827  18.658  18.436  0.00  0.00    +0.008 C 
ATOM     22  C   UNL     1      33.621  20.019  19.041  0.00  0.00    +0.008 C 
ENDBRANCH  13  20
ENDBRANCH  12  13
ENDBRANCH   5  12
TORSDOF 5
ENDMDL
MODEL 3
REMARK VINA RESULT:      -6.1      1.890      2.581
REMARK  Name = ZINC001228612316
REMARK  5 active torsions:
REMARK  status: ('A' for Active; 'I' for Inactive)
REMARK    1  A    between atoms: C_2  and  C_4
REMARK    2  A    between atoms: C_8  and  O_9
REMARK    3  A    between atoms: O_9  and  C_10
REMARK    4  A    between atoms: C_10  and  C_11
REMARK    5  A    between atoms: C_10  and  C_17
REMARK                            x       y       z     vdW  Elec       q    Type
REMARK                         _______ _______ _______ _____ _____    ______ ____
ROOT
ATOM      1  C   UNL     1      28.853  21.821  18.495  0.00  0.00    +0.040 A 
ATOM      2  C   UNL     1      27.495  21.696  18.808  0.00  0.00    +0.013 A 
ATOM      3  C   UNL     1      26.608  21.167  17.871  0.00  0.00    +0.004 A 
ATOM      4  C   UNL     1      27.069  20.757  16.617  0.00  0.00    +0.046 A 
ATOM      5  C   UNL     1      28.420  20.880  16.292  0.00  0.00    +0.122 A 
ATOM      6  C   UNL     1      29.309  21.410  17.236  0.00  0.00    +0.058 A 
ENDROOT
BRANCH   1   8
ATOM      7  N   UNL     1      29.263  23.348  20.357  0.00  0.00    -0.325 N 
ATOM      8  C   UNL     1      29.762  22.375  19.534  0.00  0.00    +0.242 C 
ATOM      9  O   UNL     1      30.904  21.956  19.681  0.00  0.00    -0.270 OA
ATOM     10  H   UNL     1      29.861  23.634  21.121  0.00  0.00    +0.145 HD
ATOM     11  H   UNL     1      28.278  23.549  20.431  0.00  0.00    +0.145 HD
ENDBRANCH   1   8
BRANCH   5  12
ATOM     12  O   UNL     1      28.978  20.584  15.078  0.00  0.00    -0.484 OA
BRANCH  12  13
ATOM     13  C   UNL     1      30.408  20.477  14.980  0.00  0.00    +0.208 C 
BRANCH  13  14
ATOM     14  C   UNL     1      30.918  19.061  15.163  0.00  0.00    +0.011 A 
ATOM     15  C   UNL     1      30.598  18.012  14.296  0.00  0.00    +0.010 A 
ATOM     16  C   UNL     1      31.180  16.760  14.485  0.00  0.00    +0.020 A 
ATOM     17  C   UNL     1      32.067  16.596  15.536  0.00  0.00    +0.111 A 
ATOM     18  N   UNL     1      32.394  17.579  16.400  0.00  0.00    -0.263 NA
ATOM     19  C   UNL     1      31.817  18.782  16.192  0.00  0.00    +0.118 A 
ENDBRANCH  13  14
BRANCH  13  20
ATOM     20  C   UNL     1      30.855  20.945  13.599  0.00  0.00    +0.034 C 
ATOM     21  C   UNL     1      32.315  21.194  13.309  0.00  0.00    +0.008 C 
ATOM     22  C   UNL     1      31.350  22.347  13.321  0.00  0.00    +0.008 C 
ENDBRANCH  13  20
ENDBRANCH  12  13
ENDBRANCH   5  12
TORSDOF 5
ENDMDL
MODEL 4
REMARK VINA RESULT:      -6.1      2.077      3.038
REMARK  Name = ZINC001228612316
REMARK  5 active torsions:
REMARK  status: ('A' for Active; 'I' for Inactive)
REMARK    1  A    between atoms: C_2  and  C_4
REMARK    2  A    between atoms: C_8  and  O_9
REMARK    3  A    between atoms: O_9  and  C_10
REMARK    4  A    between atoms: C_10  and  C_11
REMARK    5  A    between atoms: C_10  and  C_17
REMARK                            x       y       z     vdW  Elec       q    Type
REMARK                         _______ _______ _______ _____ _____    ______ ____
ROOT
ATOM      1  C   UNL     1      28.020  21.609  18.491  0.00  0.00    +0.040 A 
ATOM      2  C   UNL     1      26.820  21.247  17.869  0.00  0.00    +0.013 A 
ATOM      3  C   UNL     1      26.837  20.685  16.592  0.00  0.00    +0.004 A 
ATOM      4  C   UNL     1      28.049  20.481  15.928  0.00  0.00    +0.046 A 
ATOM      5  C   UNL     1      29.251  20.842  16.536  0.00  0.00    +0.122 A 
ATOM      6  C   UNL     1      29.232  21.404  17.820  0.00  0.00    +0.058 A 
ENDROOT
BRANCH   1   8
ATOM      7  N   UNL     1      29.134  22.469  20.488  0.00  0.00    -0.325 N 
ATOM      8  C   UNL     1      27.951  22.188  19.860  0.00  0.00    +0.242 C 
ATOM      9  O   UNL     1      26.880  22.443  20.399  0.00  0.00    -0.270 OA
ATOM     10  H   UNL     1      29.064  22.958  21.371  0.00  0.00    +0.145 HD
ATOM     11  H   UNL     1      30.017  22.502  20.001  0.00  0.00    +0.145 HD
ENDBRANCH   1   8
BRANCH   5  12
ATOM     12  O   UNL     1      30.491  20.760  15.963  0.00  0.00    -0.484 OA
BRANCH  12  13
ATOM     13  C   UNL     1      30.617  20.146  14.669  0.00  0.00    +0.208 C 
BRANCH  13  14
ATOM     14  C   UNL     1      31.427  20.973  13.690  0.00  0.00    +0.011 A 
ATOM     15  C   UNL     1      32.582  20.501  13.059  0.00  0.00    +0.010 A 
ATOM     16  C   UNL     1      33.219  21.292  12.105  0.00  0.00    +0.020 A 
ATOM     17  C   UNL     1      32.677  22.533  11.808  0.00  0.00    +0.111 A 
ATOM     18  N   UNL     1      31.572  23.028  12.400  0.00  0.00    -0.263 NA
ATOM     19  C   UNL     1      30.974  22.239  13.320  0.00  0.00    +0.118 A 
ENDBRANCH  13  14
BRANCH  13  20
ATOM     20  C   UNL     1      31.319  18.800  14.816  0.00  0.00    +0.034 C 
ATOM     21  C   UNL     1      30.864  17.607  14.011  0.00  0.00    +0.008 C 
ATOM     22  C   UNL     1      30.689  17.611  15.505  0.00  0.00    +0.008 C 
ENDBRANCH  13  20
ENDBRANCH  12  13
ENDBRANCH   5  12
TORSDOF 5
ENDMDL
MODEL 5
REMARK VINA RESULT:      -6.1      2.591      6.419
REMARK  Name = ZINC001228612316
REMARK  5 active torsions:
REMARK  status: ('A' for Active; 'I' for Inactive)
REMARK    1  A    between atoms: C_2  and  C_4
REMARK    2  A    between atoms: C_8  and  O_9
REMARK    3  A    between atoms: O_9  and  C_10
REMARK    4  A    between atoms: C_10  and  C_11
REMARK    5  A    between atoms: C_10  and  C_17
REMARK                            x       y       z     vdW  Elec       q    Type
REMARK                         _______ _______ _______ _____ _____    ______ ____
ROOT
ATOM      1  C   UNL     1      32.131  17.717  16.447  0.00  0.00    +0.040 A 
ATOM      2  C   UNL     1      31.155  17.302  15.535  0.00  0.00    +0.013 A 
ATOM      3  C   UNL     1      30.209  18.210  15.060  0.00  0.00    +0.004 A 
ATOM      4  C   UNL     1      30.231  19.539  15.491  0.00  0.00    +0.046 A 
ATOM      5  C   UNL     1      31.196  19.965  16.404  0.00  0.00    +0.122 A 
ATOM      6  C   UNL     1      32.146  19.050  16.877  0.00  0.00    +0.058 A 
ENDROOT
BRANCH   1   8
ATOM      7  N   UNL     1      33.564  15.790  16.000  0.00  0.00    -0.325 N 
ATOM      8  C   UNL     1      33.128  16.715  16.910  0.00  0.00    +0.242 C 
ATOM      9  O   UNL     1      33.577  16.732  18.050  0.00  0.00    -0.270 OA
ATOM     10  H   UNL     1      34.317  15.187  16.305  0.00  0.00    +0.145 HD
ATOM     11  H   UNL     1      33.409  15.884  15.008  0.00  0.00    +0.145 HD
ENDBRANCH   1   8
BRANCH   5  12
ATOM     12  O   UNL     1      31.277  21.215  16.954  0.00  0.00    -0.484 OA
BRANCH  12  13
ATOM     13  C   UNL     1      30.847  21.404  18.312  0.00  0.00    +0.208 C 
BRANCH  13  14
ATOM     14  C   UNL     1      31.827  22.208  19.145  0.00  0.00    +0.011 A 
ATOM     15  C   UNL     1      32.248  21.821  20.420  0.00  0.00    +0.010 A 
ATOM     16  C   UNL     1      33.219  22.571  21.082  0.00  0.00    +0.020 A 
ATOM     17  C   UNL     1      33.741  23.685  20.445  0.00  0.00    +0.111 A 
ATOM     18  N   UNL     1      33.355  24.096  19.220  0.00  0.00    -0.263 NA
ATOM     19  C   UNL     1      32.414  23.351  18.601  0.00  0.00    +0.118 A 
ENDBRANCH  13  14
BRANCH  13  20
ATOM     20  C   UNL     1      29.521  22.156  18.322  0.00  0.00    +0.034 C 
ATOM     21  C   UNL     1      28.721  22.284  19.596  0.00  0.00    +0.008 C 
ATOM     22  C   UNL     1      28.181  21.466  18.455  0.00  0.00    +0.008 C 
ENDBRANCH  13  20
ENDBRANCH  12  13
ENDBRANCH   5  12
TORSDOF 5
ENDMDL
MODEL 6
REMARK VINA RESULT:      -6.1      6.523     10.539
REMARK  Name = ZINC001228612316
REMARK  5 active torsions:
REMARK  status: ('A' for Active; 'I' for Inactive)
REMARK    1  A    between atoms: C_2  and  C_4
REMARK    2  A    between atoms: C_8  and  O_9
REMARK    3  A    between atoms: O_9  and  C_10
REMARK    4  A    between atoms: C_10  and  C_11
REMARK    5  A    between atoms: C_10  and  C_17
REMARK                            x       y       z     vdW  Elec       q    Type
REMARK                         _______ _______ _______ _____ _____    ______ ____
ROOT
ATOM      1  C   UNL     1      25.219  24.019  19.888  0.00  0.00    +0.040 A 
ATOM      2  C   UNL     1      25.731  24.903  20.844  0.00  0.00    +0.013 A 
ATOM      3  C   UNL     1      24.959  25.977  21.287  0.00  0.00    +0.004 A 
ATOM      4  C   UNL     1      23.672  26.176  20.781  0.00  0.00    +0.046 A 
ATOM      5  C   UNL     1      23.152  25.304  19.824  0.00  0.00    +0.122 A 
ATOM      6  C   UNL     1      23.929  24.224  19.383  0.00  0.00    +0.058 A 
ENDROOT
BRANCH   1   8
ATOM      7  N   UNL     1      25.913  22.412  18.184  0.00  0.00    -0.325 N 
ATOM      8  C   UNL     1      26.074  22.879  19.461  0.00  0.00    +0.242 C 
ATOM      9  O   UNL     1      26.920  22.394  20.203  0.00  0.00    -0.270 OA
ATOM     10  H   UNL     1      26.575  21.709  17.881  0.00  0.00    +0.145 HD
ATOM     11  H   UNL     1      25.413  22.923  17.474  0.00  0.00    +0.145 HD
ENDBRANCH   1   8
BRANCH   5  12
ATOM     12  O   UNL     1      21.940  25.433  19.202  0.00  0.00    -0.484 OA
BRANCH  12  13
ATOM     13  C   UNL     1      21.728  26.552  18.326  0.00  0.00    +0.208 C 
BRANCH  13  14
ATOM     14  C   UNL     1      21.523  26.150  16.879  0.00  0.00    +0.011 A 
ATOM     15  C   UNL     1      20.910  26.975  15.932  0.00  0.00    +0.010 A 
ATOM     16  C   UNL     1      20.840  26.565  14.602  0.00  0.00    +0.020 A 
ATOM     17  C   UNL     1      21.389  25.341  14.259  0.00  0.00    +0.111 A 
ATOM     18  N   UNL     1      21.980  24.511  15.143  0.00  0.00    -0.263 NA
ATOM     19  C   UNL     1      22.035  24.934  16.425  0.00  0.00    +0.118 A 
ENDBRANCH  13  14
BRANCH  13  20
ATOM     20  C   UNL     1      20.479  27.308  18.767  0.00  0.00    +0.034 C 
ATOM     21  C   UNL     1      20.573  28.743  19.229  0.00  0.00    +0.008 C 
ATOM     22  C   UNL     1      20.196  27.666  20.210  0.00  0.00    +0.008 C 
ENDBRANCH  13  20
ENDBRANCH  12  13
ENDBRANCH   5  12
TORSDOF 5
ENDMDL
MODEL 7
REMARK VINA RESULT:      -6.1      2.576      6.760
REMARK  Name = ZINC001228612316
REMARK  5 active torsions:
REMARK  status: ('A' for Active; 'I' for Inactive)
REMARK    1  A    between atoms: C_2  and  C_4
REMARK    2  A    between atoms: C_8  and  O_9
REMARK    3  A    between atoms: O_9  and  C_10
REMARK    4  A    between atoms: C_10  and  C_11
REMARK    5  A    between atoms: C_10  and  C_17
REMARK                            x       y       z     vdW  Elec       q    Type
REMARK                         _______ _______ _______ _____ _____    ______ ____
ROOT
ATOM      1  C   UNL     1      31.888  18.618  13.188  0.00  0.00    +0.040 A 
ATOM      2  C   UNL     1      31.879  17.377  13.834  0.00  0.00    +0.013 A 
ATOM      3  C   UNL     1      30.966  17.129  14.860  0.00  0.00    +0.004 A 
ATOM      4  C   UNL     1      30.057  18.117  15.247  0.00  0.00    +0.046 A 
ATOM      5  C   UNL     1      30.060  19.360  14.614  0.00  0.00    +0.122 A 
ATOM      6  C   UNL     1      30.976  19.605  13.582  0.00  0.00    +0.058 A 
ENDROOT
BRANCH   1   8
ATOM      7  N   UNL     1      32.412  19.410  10.938  0.00  0.00    -0.325 N 
ATOM      8  C   UNL     1      32.868  18.827  12.089  0.00  0.00    +0.242 C 
ATOM      9  O   UNL     1      34.050  18.526  12.213  0.00  0.00    -0.270 OA
ATOM     10  H   UNL     1      33.115  19.639  10.247  0.00  0.00    +0.145 HD
ATOM     11  H   UNL     1      31.525  19.885  10.880  0.00  0.00    +0.145 HD
ENDBRANCH   1   8
BRANCH   5  12
ATOM     12  O   UNL     1      29.272  20.427  14.950  0.00  0.00    -0.484 OA
BRANCH  12  13
ATOM     13  C   UNL     1      28.824  20.557  16.309  0.00  0.00    +0.208 C 
BRANCH  13  14
ATOM     14  C   UNL     1      29.601  21.591  17.101  0.00  0.00    +0.011 A 
ATOM     15  C   UNL     1      29.613  21.638  18.497  0.00  0.00    +0.010 A 
ATOM     16  C   UNL     1      30.423  22.565  19.149  0.00  0.00    +0.020 A 
ATOM     17  C   UNL     1      31.202  23.416  18.381  0.00  0.00    +0.111 A 
ATOM     18  N   UNL     1      31.212  23.409  17.033  0.00  0.00    -0.263 NA
ATOM     19  C   UNL     1      30.418  22.500  16.428  0.00  0.00    +0.118 A 
ENDBRANCH  13  14
BRANCH  13  20
ATOM     20  C   UNL     1      27.360  20.986  16.318  0.00  0.00    +0.034 C 
ATOM     21  C   UNL     1      26.598  21.083  17.618  0.00  0.00    +0.008 C 
ATOM     22  C   UNL     1      26.222  20.033  16.609  0.00  0.00    +0.008 C 
ENDBRANCH  13  20
ENDBRANCH  12  13
ENDBRANCH   5  12
TORSDOF 5
ENDMDL
MODEL 8
REMARK VINA RESULT:      -6.1      2.829      4.917
REMARK  Name = ZINC001228612316
REMARK  5 active torsions:
REMARK  status: ('A' for Active; 'I' for Inactive)
REMARK    1  A    between atoms: C_2  and  C_4
REMARK    2  A    between atoms: C_8  and  O_9
REMARK    3  A    between atoms: O_9  and  C_10
REMARK    4  A    between atoms: C_10  and  C_11
REMARK    5  A    between atoms: C_10  and  C_17
REMARK                            x       y       z     vdW  Elec       q    Type
REMARK                         _______ _______ _______ _____ _____    ______ ____
ROOT
ATOM      1  C   UNL     1      30.230  20.045  16.169  0.00  0.00    +0.040 A 
ATOM      2  C   UNL     1      31.357  20.166  16.989  0.00  0.00    +0.013 A 
ATOM      3  C   UNL     1      32.424  19.279  16.846  0.00  0.00    +0.004 A 
ATOM      4  C   UNL     1      32.374  18.267  15.883  0.00  0.00    +0.046 A 
ATOM      5  C   UNL     1      31.254  18.134  15.063  0.00  0.00    +0.122 A 
ATOM      6  C   UNL     1      30.185  19.028  15.208  0.00  0.00    +0.058 A 
ENDROOT
BRANCH   1   8
ATOM      7  N   UNL     1      28.659  21.665  15.231  0.00  0.00    -0.325 N 
ATOM      8  C   UNL     1      29.125  21.026  16.348  0.00  0.00    +0.242 C 
ATOM      9  O   UNL     1      28.620  21.234  17.445  0.00  0.00    -0.270 OA
ATOM     10  H   UNL     1      27.840  22.246  15.360  0.00  0.00    +0.145 HD
ATOM     11  H   UNL     1      28.873  21.356  14.295  0.00  0.00    +0.145 HD
ENDBRANCH   1   8
BRANCH   5  12
ATOM     12  O   UNL     1      31.057  17.145  14.138  0.00  0.00    -0.484 OA
BRANCH  12  13
ATOM     13  C   UNL     1      32.187  16.648  13.403  0.00  0.00    +0.208 C 
BRANCH  13  14
ATOM     14  C   UNL     1      32.228  15.135  13.316  0.00  0.00    +0.011 A 
ATOM     15  C   UNL     1      32.828  14.326  14.285  0.00  0.00    +0.010 A 
ATOM     16  C   UNL     1      32.743  12.939  14.175  0.00  0.00    +0.020 A 
ATOM     17  C   UNL     1      32.058  12.404  13.097  0.00  0.00    +0.111 A 
ATOM     18  N   UNL     1      31.474  13.149  12.136  0.00  0.00    -0.263 NA
ATOM     19  C   UNL     1      31.570  14.489  12.269  0.00  0.00    +0.118 A 
ENDBRANCH  13  14
BRANCH  13  20
ATOM     20  C   UNL     1      32.136  17.183  11.976  0.00  0.00    +0.034 C 
ATOM     21  C   UNL     1      33.407  17.386  11.187  0.00  0.00    +0.008 C 
ATOM     22  C   UNL     1      32.585  18.577  11.599  0.00  0.00    +0.008 C 
ENDBRANCH  13  20
ENDBRANCH  12  13
ENDBRANCH   5  12
TORSDOF 5
ENDMDL
MODEL 9
REMARK VINA RESULT:      -6.0      2.551      3.680
REMARK  Name = ZINC001228612316
REMARK  5 active torsions:
REMARK  status: ('A' for Active; 'I' for Inactive)
REMARK    1  A    between atoms: C_2  and  C_4
REMARK    2  A    between atoms: C_8  and  O_9
REMARK    3  A    between atoms: O_9  and  C_10
REMARK    4  A    between atoms: C_10  and  C_11
REMARK    5  A    between atoms: C_10  and  C_17
REMARK                            x       y       z     vdW  Elec       q    Type
REMARK                         _______ _______ _______ _____ _____    ______ ____
ROOT
ATOM      1  C   UNL     1      27.846  21.477  18.330  0.00  0.00    +0.040 A 
ATOM      2  C   UNL     1      28.109  22.170  19.517  0.00  0.00    +0.013 A 
ATOM      3  C   UNL     1      29.423  22.477  19.871  0.00  0.00    +0.004 A 
ATOM      4  C   UNL     1      30.482  22.097  19.042  0.00  0.00    +0.046 A 
ATOM      5  C   UNL     1      30.232  21.402  17.859  0.00  0.00    +0.122 A 
ATOM      6  C   UNL     1      28.911  21.097  17.506  0.00  0.00    +0.058 A 
ENDROOT
BRANCH   1   8
ATOM      7  N   UNL     1      25.459  21.791  18.747  0.00  0.00    -0.325 N 
ATOM      8  C   UNL     1      26.427  21.189  17.989  0.00  0.00    +0.242 C 
ATOM      9  O   UNL     1      26.124  20.471  17.044  0.00  0.00    -0.270 OA
ATOM     10  H   UNL     1      24.505  21.666  18.432  0.00  0.00    +0.145 HD
ATOM     11  H   UNL     1      25.652  22.563  19.367  0.00  0.00    +0.145 HD
ENDBRANCH   1   8
BRANCH   5  12
ATOM     12  O   UNL     1      31.184  20.914  17.005  0.00  0.00    -0.484 OA
BRANCH  12  13
ATOM     13  C   UNL     1      30.795  20.541  15.673  0.00  0.00    +0.208 C 
BRANCH  13  14
ATOM     14  C   UNL     1      31.436  21.397  14.599  0.00  0.00    +0.011 A 
ATOM     15  C   UNL     1      30.705  22.074  13.619  0.00  0.00    +0.010 A 
ATOM     16  C   UNL     1      31.365  22.911  12.721  0.00  0.00    +0.020 A 
ATOM     17  C   UNL     1      32.739  23.047  12.834  0.00  0.00    +0.111 A 
ATOM     18  N   UNL     1      33.482  22.405  13.758  0.00  0.00    -0.263 NA
ATOM     19  C   UNL     1      32.816  21.601  14.616  0.00  0.00    +0.118 A 
ENDBRANCH  13  14
BRANCH  13  20
ATOM     20  C   UNL     1      31.212  19.098  15.412  0.00  0.00    +0.034 C 
ATOM     21  C   UNL     1      30.882  18.430  14.098  0.00  0.00    +0.008 C 
ATOM     22  C   UNL     1      30.229  17.949  15.365  0.00  0.00    +0.008 C 
ENDBRANCH  13  20
ENDBRANCH  12  13
ENDBRANCH   5  12
TORSDOF 5
ENDMDL
