MODEL 1
REMARK VINA RESULT:      -6.3      0.000      0.000
REMARK  Name = ZINC001228612316
REMARK  5 active torsions:
REMARK  status: ('A' for Active; 'I' for Inactive)
REMARK    1  A    between atoms: C_2  and  C_4
REMARK    2  A    between atoms: C_8  and  O_9
REMARK    3  A    between atoms: O_9  and  C_10
REMARK    4  A    between atoms: C_10  and  C_11
REMARK    5  A    between atoms: C_10  and  C_17
REMARK                            x       y       z     vdW  Elec       q    Type
REMARK                         _______ _______ _______ _____ _____    ______ ____
ROOT
ATOM      1  C   UNL     1      27.816  21.658  18.500  0.00  0.00    +0.040 A 
ATOM      2  C   UNL     1      26.658  21.349  17.777  0.00  0.00    +0.013 A 
ATOM      3  C   UNL     1      26.759  20.811  16.494  0.00  0.00    +0.004 A 
ATOM      4  C   UNL     1      28.013  20.576  15.925  0.00  0.00    +0.046 A 
ATOM      5  C   UNL     1      29.174  20.885  16.634  0.00  0.00    +0.122 A 
ATOM      6  C   UNL     1      29.070  21.423  17.924  0.00  0.00    +0.058 A 
ENDROOT
BRANCH   1   8
ATOM      7  N   UNL     1      28.786  22.360  20.630  0.00  0.00    -0.325 N 
ATOM      8  C   UNL     1      27.656  22.214  19.871  0.00  0.00    +0.242 C 
ATOM      9  O   UNL     1      26.564  22.566  20.301  0.00  0.00    -0.270 OA
ATOM     10  H   UNL     1      28.669  22.836  21.515  0.00  0.00    +0.145 HD
ATOM     11  H   UNL     1      29.715  22.312  20.241  0.00  0.00    +0.145 HD
ENDBRANCH   1   8
BRANCH   5  12
ATOM     12  O   UNL     1      30.452  20.770  16.160  0.00  0.00    -0.484 OA
BRANCH  12  13
ATOM     13  C   UNL     1      31.229  19.619  16.531  0.00  0.00    +0.208 C 
BRANCH  13  14
ATOM     14  C   UNL     1      31.460  18.656  15.384  0.00  0.00    +0.011 A 
ATOM     15  C   UNL     1      30.603  17.591  15.090  0.00  0.00    +0.010 A 
ATOM     16  C   UNL     1      30.840  16.806  13.964  0.00  0.00    +0.020 A 
ATOM     17  C   UNL     1      31.928  17.112  13.163  0.00  0.00    +0.111 A 
ATOM     18  N   UNL     1      32.783  18.123  13.416  0.00  0.00    -0.263 NA
ATOM     19  C   UNL     1      32.529  18.869  14.513  0.00  0.00    +0.118 A 
ENDBRANCH  13  14
BRANCH  13  20
ATOM     20  C   UNL     1      32.599  20.073  17.025  0.00  0.00    +0.034 C 
ATOM     21  C   UNL     1      33.343  19.271  18.065  0.00  0.00    +0.008 C 
ATOM     22  C   UNL     1      32.832  20.644  18.406  0.00  0.00    +0.008 C 
ENDBRANCH  13  20
ENDBRANCH  12  13
ENDBRANCH   5  12
TORSDOF 5
ENDMDL
MODEL 2
REMARK VINA RESULT:      -6.3      6.554      9.851
REMARK  Name = ZINC001228612316
REMARK  5 active torsions:
REMARK  status: ('A' for Active; 'I' for Inactive)
REMARK    1  A    between atoms: C_2  and  C_4
REMARK    2  A    between atoms: C_8  and  O_9
REMARK    3  A    between atoms: O_9  and  C_10
REMARK    4  A    between atoms: C_10  and  C_11
REMARK    5  A    between atoms: C_10  and  C_17
REMARK                            x       y       z     vdW  Elec       q    Type
REMARK                         _______ _______ _______ _____ _____    ______ ____
ROOT
ATOM      1  C   UNL     1      21.423  25.850  16.310  0.00  0.00    +0.040 A 
ATOM      2  C   UNL     1      20.893  26.970  16.960  0.00  0.00    +0.013 A 
ATOM      3  C   UNL     1      21.124  27.162  18.322  0.00  0.00    +0.004 A 
ATOM      4  C   UNL     1      21.887  26.240  19.044  0.00  0.00    +0.046 A 
ATOM      5  C   UNL     1      22.417  25.117  18.408  0.00  0.00    +0.122 A 
ATOM      6  C   UNL     1      22.184  24.928  17.039  0.00  0.00    +0.058 A 
ENDROOT
BRANCH   1   8
ATOM      7  N   UNL     1      21.644  24.574  14.238  0.00  0.00    -0.325 N 
ATOM      8  C   UNL     1      21.163  25.699  14.853  0.00  0.00    +0.242 C 
ATOM      9  O   UNL     1      20.511  26.525  14.225  0.00  0.00    -0.270 OA
ATOM     10  H   UNL     1      21.365  24.441  13.274  0.00  0.00    +0.145 HD
ATOM     11  H   UNL     1      21.968  23.768  14.749  0.00  0.00    +0.145 HD
ENDBRANCH   1   8
BRANCH   5  12
ATOM     12  O   UNL     1      23.114  24.111  19.018  0.00  0.00    -0.484 OA
BRANCH  12  13
ATOM     13  C   UNL     1      24.544  24.221  19.119  0.00  0.00    +0.208 C 
BRANCH  13  14
ATOM     14  C   UNL     1      24.996  25.187  20.197  0.00  0.00    +0.011 A 
ATOM     15  C   UNL     1      24.531  25.140  21.514  0.00  0.00    +0.010 A 
ATOM     16  C   UNL     1      25.063  26.008  22.465  0.00  0.00    +0.020 A 
ATOM     17  C   UNL     1      26.048  26.897  22.068  0.00  0.00    +0.111 A 
ATOM     18  N   UNL     1      26.517  26.981  20.807  0.00  0.00    -0.263 NA
ATOM     19  C   UNL     1      25.985  26.127  19.906  0.00  0.00    +0.118 A 
ENDBRANCH  13  14
BRANCH  13  20
ATOM     20  C   UNL     1      25.132  22.855  19.460  0.00  0.00    +0.034 C 
ATOM     21  C   UNL     1      26.627  22.653  19.500  0.00  0.00    +0.008 C 
ATOM     22  C   UNL     1      25.810  21.970  18.438  0.00  0.00    +0.008 C 
ENDBRANCH  13  20
ENDBRANCH  12  13
ENDBRANCH   5  12
TORSDOF 5
ENDMDL
MODEL 3
REMARK VINA RESULT:      -6.3      1.713      2.258
REMARK  Name = ZINC001228612316
REMARK  5 active torsions:
REMARK  status: ('A' for Active; 'I' for Inactive)
REMARK    1  A    between atoms: C_2  and  C_4
REMARK    2  A    between atoms: C_8  and  O_9
REMARK    3  A    between atoms: O_9  and  C_10
REMARK    4  A    between atoms: C_10  and  C_11
REMARK    5  A    between atoms: C_10  and  C_17
REMARK                            x       y       z     vdW  Elec       q    Type
REMARK                         _______ _______ _______ _____ _____    ______ ____
ROOT
ATOM      1  C   UNL     1      27.729  21.283  17.768  0.00  0.00    +0.040 A 
ATOM      2  C   UNL     1      27.696  21.902  19.023  0.00  0.00    +0.013 A 
ATOM      3  C   UNL     1      28.883  22.311  19.632  0.00  0.00    +0.004 A 
ATOM      4  C   UNL     1      30.109  22.106  18.993  0.00  0.00    +0.046 A 
ATOM      5  C   UNL     1      30.155  21.486  17.744  0.00  0.00    +0.122 A 
ATOM      6  C   UNL     1      28.961  21.079  17.134  0.00  0.00    +0.058 A 
ENDROOT
BRANCH   1   8
ATOM      7  N   UNL     1      25.727  19.884  17.766  0.00  0.00    -0.325 N 
ATOM      8  C   UNL     1      26.436  20.881  17.152  0.00  0.00    +0.242 C 
ATOM      9  O   UNL     1      25.995  21.441  16.156  0.00  0.00    -0.270 OA
ATOM     10  H   UNL     1      24.804  19.700  17.393  0.00  0.00    +0.145 HD
ATOM     11  H   UNL     1      25.926  19.568  18.702  0.00  0.00    +0.145 HD
ENDBRANCH   1   8
BRANCH   5  12
ATOM     12  O   UNL     1      31.293  21.166  17.055  0.00  0.00    -0.484 OA
BRANCH  12  13
ATOM     13  C   UNL     1      31.807  19.828  17.151  0.00  0.00    +0.208 C 
BRANCH  13  14
ATOM     14  C   UNL     1      31.821  19.094  15.824  0.00  0.00    +0.011 A 
ATOM     15  C   UNL     1      30.993  18.005  15.540  0.00  0.00    +0.010 A 
ATOM     16  C   UNL     1      31.005  17.443  14.265  0.00  0.00    +0.020 A 
ATOM     17  C   UNL     1      31.846  17.991  13.310  0.00  0.00    +0.111 A 
ATOM     18  N   UNL     1      32.667  19.034  13.546  0.00  0.00    -0.263 NA
ATOM     19  C   UNL     1      32.634  19.560  14.790  0.00  0.00    +0.118 A 
ENDBRANCH  13  14
BRANCH  13  20
ATOM     20  C   UNL     1      33.245  19.876  17.657  0.00  0.00    +0.034 C 
ATOM     21  C   UNL     1      33.821  18.721  18.441  0.00  0.00    +0.008 C 
ATOM     22  C   UNL     1      33.602  20.047  19.117  0.00  0.00    +0.008 C 
ENDBRANCH  13  20
ENDBRANCH  12  13
ENDBRANCH   5  12
TORSDOF 5
ENDMDL
MODEL 4
REMARK VINA RESULT:      -6.2      1.912      2.612
REMARK  Name = ZINC001228612316
REMARK  5 active torsions:
REMARK  status: ('A' for Active; 'I' for Inactive)
REMARK    1  A    between atoms: C_2  and  C_4
REMARK    2  A    between atoms: C_8  and  O_9
REMARK    3  A    between atoms: O_9  and  C_10
REMARK    4  A    between atoms: C_10  and  C_11
REMARK    5  A    between atoms: C_10  and  C_17
REMARK                            x       y       z     vdW  Elec       q    Type
REMARK                         _______ _______ _______ _____ _____    ______ ____
ROOT
ATOM      1  C   UNL     1      28.942  21.808  18.520  0.00  0.00    +0.040 A 
ATOM      2  C   UNL     1      27.590  21.665  18.850  0.00  0.00    +0.013 A 
ATOM      3  C   UNL     1      26.694  21.145  17.916  0.00  0.00    +0.004 A 
ATOM      4  C   UNL     1      27.140  20.764  16.648  0.00  0.00    +0.046 A 
ATOM      5  C   UNL     1      28.485  20.905  16.306  0.00  0.00    +0.122 A 
ATOM      6  C   UNL     1      29.384  21.426  17.247  0.00  0.00    +0.058 A 
ENDROOT
BRANCH   1   8
ATOM      7  N   UNL     1      29.365  23.303  20.405  0.00  0.00    -0.325 N 
ATOM      8  C   UNL     1      29.861  22.351  19.557  0.00  0.00    +0.242 C 
ATOM      9  O   UNL     1      31.009  21.940  19.679  0.00  0.00    -0.270 OA
ATOM     10  H   UNL     1      29.972  23.580  21.167  0.00  0.00    +0.145 HD
ATOM     11  H   UNL     1      28.379  23.493  20.498  0.00  0.00    +0.145 HD
ENDBRANCH   1   8
BRANCH   5  12
ATOM     12  O   UNL     1      29.028  20.637  15.079  0.00  0.00    -0.484 OA
BRANCH  12  13
ATOM     13  C   UNL     1      30.454  20.490  14.969  0.00  0.00    +0.208 C 
BRANCH  13  14
ATOM     14  C   UNL     1      30.925  19.061  15.158  0.00  0.00    +0.011 A 
ATOM     15  C   UNL     1      30.587  18.020  14.288  0.00  0.00    +0.010 A 
ATOM     16  C   UNL     1      31.135  16.754  14.483  0.00  0.00    +0.020 A 
ATOM     17  C   UNL     1      32.008  16.568  15.543  0.00  0.00    +0.111 A 
ATOM     18  N   UNL     1      32.352  17.542  16.409  0.00  0.00    -0.263 NA
ATOM     19  C   UNL     1      31.808  18.760  16.196  0.00  0.00    +0.118 A 
ENDBRANCH  13  14
BRANCH  13  20
ATOM     20  C   UNL     1      30.901  20.935  13.581  0.00  0.00    +0.034 C 
ATOM     21  C   UNL     1      32.362  21.180  13.288  0.00  0.00    +0.008 C 
ATOM     22  C   UNL     1      31.395  22.333  13.281  0.00  0.00    +0.008 C 
ENDBRANCH  13  20
ENDBRANCH  12  13
ENDBRANCH   5  12
TORSDOF 5
ENDMDL
MODEL 5
REMARK VINA RESULT:      -6.1      3.401      5.668
REMARK  Name = ZINC001228612316
REMARK  5 active torsions:
REMARK  status: ('A' for Active; 'I' for Inactive)
REMARK    1  A    between atoms: C_2  and  C_4
REMARK    2  A    between atoms: C_8  and  O_9
REMARK    3  A    between atoms: O_9  and  C_10
REMARK    4  A    between atoms: C_10  and  C_11
REMARK    5  A    between atoms: C_10  and  C_17
REMARK                            x       y       z     vdW  Elec       q    Type
REMARK                         _______ _______ _______ _____ _____    ______ ____
ROOT
ATOM      1  C   UNL     1      30.275  19.738  14.971  0.00  0.00    +0.040 A 
ATOM      2  C   UNL     1      31.048  19.868  16.130  0.00  0.00    +0.013 A 
ATOM      3  C   UNL     1      31.870  18.819  16.544  0.00  0.00    +0.004 A 
ATOM      4  C   UNL     1      31.925  17.635  15.805  0.00  0.00    +0.046 A 
ATOM      5  C   UNL     1      31.156  17.491  14.651  0.00  0.00    +0.122 A 
ATOM      6  C   UNL     1      30.334  18.547  14.236  0.00  0.00    +0.058 A 
ENDROOT
BRANCH   1   8
ATOM      7  N   UNL     1      29.547  21.335  13.271  0.00  0.00    -0.325 N 
ATOM      8  C   UNL     1      29.429  20.891  14.561  0.00  0.00    +0.242 C 
ATOM      9  O   UNL     1      28.627  21.407  15.330  0.00  0.00    -0.270 OA
ATOM     10  H   UNL     1      28.889  22.048  12.984  0.00  0.00    +0.145 HD
ATOM     11  H   UNL     1      30.005  20.800  12.549  0.00  0.00    +0.145 HD
ENDBRANCH   1   8
BRANCH   5  12
ATOM     12  O   UNL     1      31.069  16.360  13.886  0.00  0.00    -0.484 OA
BRANCH  12  13
ATOM     13  C   UNL     1      32.260  15.852  13.262  0.00  0.00    +0.208 C 
BRANCH  13  14
ATOM     14  C   UNL     1      32.409  14.348  13.389  0.00  0.00    +0.011 A 
ATOM     15  C   UNL     1      31.930  13.447  12.434  0.00  0.00    +0.010 A 
ATOM     16  C   UNL     1      32.186  12.085  12.581  0.00  0.00    +0.020 A 
ATOM     17  C   UNL     1      32.917  11.667  13.682  0.00  0.00    +0.111 A 
ATOM     18  N   UNL     1      33.387  12.502  14.630  0.00  0.00    -0.263 NA
ATOM     19  C   UNL     1      33.126  13.816  14.460  0.00  0.00    +0.118 A 
ENDBRANCH  13  14
BRANCH  13  20
ATOM     20  C   UNL     1      32.229  16.181  11.773  0.00  0.00    +0.034 C 
ATOM     21  C   UNL     1      33.511  16.285  10.984  0.00  0.00    +0.008 C 
ATOM     22  C   UNL     1      32.673  17.513  11.212  0.00  0.00    +0.008 C 
ENDBRANCH  13  20
ENDBRANCH  12  13
ENDBRANCH   5  12
TORSDOF 5
ENDMDL
MODEL 6
REMARK VINA RESULT:      -6.1      2.076      3.029
REMARK  Name = ZINC001228612316
REMARK  5 active torsions:
REMARK  status: ('A' for Active; 'I' for Inactive)
REMARK    1  A    between atoms: C_2  and  C_4
REMARK    2  A    between atoms: C_8  and  O_9
REMARK    3  A    between atoms: O_9  and  C_10
REMARK    4  A    between atoms: C_10  and  C_11
REMARK    5  A    between atoms: C_10  and  C_17
REMARK                            x       y       z     vdW  Elec       q    Type
REMARK                         _______ _______ _______ _____ _____    ______ ____
ROOT
ATOM      1  C   UNL     1      28.036  21.624  18.493  0.00  0.00    +0.040 A 
ATOM      2  C   UNL     1      26.831  21.273  17.874  0.00  0.00    +0.013 A 
ATOM      3  C   UNL     1      26.839  20.724  16.591  0.00  0.00    +0.004 A 
ATOM      4  C   UNL     1      28.047  20.520  15.920  0.00  0.00    +0.046 A 
ATOM      5  C   UNL     1      29.254  20.869  16.525  0.00  0.00    +0.122 A 
ATOM      6  C   UNL     1      29.243  21.419  17.814  0.00  0.00    +0.058 A 
ENDROOT
BRANCH   1   8
ATOM      7  N   UNL     1      29.165  22.455  20.494  0.00  0.00    -0.325 N 
ATOM      8  C   UNL     1      27.977  22.190  19.868  0.00  0.00    +0.242 C 
ATOM      9  O   UNL     1      26.910  22.447  20.414  0.00  0.00    -0.270 OA
ATOM     10  H   UNL     1      29.101  22.937  21.382  0.00  0.00    +0.145 HD
ATOM     11  H   UNL     1      30.046  22.487  20.004  0.00  0.00    +0.145 HD
ENDBRANCH   1   8
BRANCH   5  12
ATOM     12  O   UNL     1      30.490  20.786  15.945  0.00  0.00    -0.484 OA
BRANCH  12  13
ATOM     13  C   UNL     1      30.607  20.178  14.648  0.00  0.00    +0.208 C 
BRANCH  13  14
ATOM     14  C   UNL     1      31.387  21.022  13.658  0.00  0.00    +0.011 A 
ATOM     15  C   UNL     1      30.965  22.281  13.224  0.00  0.00    +0.010 A 
ATOM     16  C   UNL     1      31.784  23.030  12.381  0.00  0.00    +0.020 A 
ATOM     17  C   UNL     1      33.004  22.495  12.000  0.00  0.00    +0.111 A 
ATOM     18  N   UNL     1      33.443  21.281  12.388  0.00  0.00    -0.263 NA
ATOM     19  C   UNL     1      32.630  20.578  13.206  0.00  0.00    +0.118 A 
ENDBRANCH  13  14
BRANCH  13  20
ATOM     20  C   UNL     1      31.337  18.845  14.781  0.00  0.00    +0.034 C 
ATOM     21  C   UNL     1      30.851  17.627  14.032  0.00  0.00    +0.008 C 
ATOM     22  C   UNL     1      30.768  17.663  15.534  0.00  0.00    +0.008 C 
ENDBRANCH  13  20
ENDBRANCH  12  13
ENDBRANCH   5  12
TORSDOF 5
ENDMDL
MODEL 7
REMARK VINA RESULT:      -6.1      2.587      6.742
REMARK  Name = ZINC001228612316
REMARK  5 active torsions:
REMARK  status: ('A' for Active; 'I' for Inactive)
REMARK    1  A    between atoms: C_2  and  C_4
REMARK    2  A    between atoms: C_8  and  O_9
REMARK    3  A    between atoms: O_9  and  C_10
REMARK    4  A    between atoms: C_10  and  C_11
REMARK    5  A    between atoms: C_10  and  C_17
REMARK                            x       y       z     vdW  Elec       q    Type
REMARK                         _______ _______ _______ _____ _____    ______ ____
ROOT
ATOM      1  C   UNL     1      31.861  18.849  13.140  0.00  0.00    +0.040 A 
ATOM      2  C   UNL     1      31.880  17.578  13.725  0.00  0.00    +0.013 A 
ATOM      3  C   UNL     1      30.964  17.255  14.726  0.00  0.00    +0.004 A 
ATOM      4  C   UNL     1      30.022  18.196  15.149  0.00  0.00    +0.046 A 
ATOM      5  C   UNL     1      29.996  19.468  14.577  0.00  0.00    +0.122 A 
ATOM      6  C   UNL     1      30.916  19.789  13.570  0.00  0.00    +0.058 A 
ENDROOT
BRANCH   1   8
ATOM      7  N   UNL     1      32.467  18.887  10.774  0.00  0.00    -0.325 N 
ATOM      8  C   UNL     1      32.847  19.139  12.064  0.00  0.00    +0.242 C 
ATOM      9  O   UNL     1      33.946  19.622  12.310  0.00  0.00    -0.270 OA
ATOM     10  H   UNL     1      33.110  19.190  10.053  0.00  0.00    +0.145 HD
ATOM     11  H   UNL     1      31.508  18.722  10.508  0.00  0.00    +0.145 HD
ENDBRANCH   1   8
BRANCH   5  12
ATOM     12  O   UNL     1      29.174  20.495  14.955  0.00  0.00    -0.484 OA
BRANCH  12  13
ATOM     13  C   UNL     1      28.757  20.580  16.327  0.00  0.00    +0.208 C 
BRANCH  13  14
ATOM     14  C   UNL     1      29.541  21.601  17.130  0.00  0.00    +0.011 A 
ATOM     15  C   UNL     1      29.522  21.658  18.526  0.00  0.00    +0.010 A 
ATOM     16  C   UNL     1      30.340  22.570  19.190  0.00  0.00    +0.020 A 
ATOM     17  C   UNL     1      31.155  23.397  18.434  0.00  0.00    +0.111 A 
ATOM     18  N   UNL     1      31.195  23.381  17.087  0.00  0.00    -0.263 NA
ATOM     19  C   UNL     1      30.393  22.486  16.469  0.00  0.00    +0.118 A 
ENDBRANCH  13  14
BRANCH  13  20
ATOM     20  C   UNL     1      27.289  20.989  16.384  0.00  0.00    +0.034 C 
ATOM     21  C   UNL     1      26.557  21.036  17.704  0.00  0.00    +0.008 C 
ATOM     22  C   UNL     1      26.170  20.013  16.672  0.00  0.00    +0.008 C 
ENDBRANCH  13  20
ENDBRANCH  12  13
ENDBRANCH   5  12
TORSDOF 5
ENDMDL
MODEL 8
REMARK VINA RESULT:      -6.0      2.575      6.421
REMARK  Name = ZINC001228612316
REMARK  5 active torsions:
REMARK  status: ('A' for Active; 'I' for Inactive)
REMARK    1  A    between atoms: C_2  and  C_4
REMARK    2  A    between atoms: C_8  and  O_9
REMARK    3  A    between atoms: O_9  and  C_10
REMARK    4  A    between atoms: C_10  and  C_11
REMARK    5  A    between atoms: C_10  and  C_17
REMARK                            x       y       z     vdW  Elec       q    Type
REMARK                         _______ _______ _______ _____ _____    ______ ____
ROOT
ATOM      1  C   UNL     1      32.369  17.693  16.583  0.00  0.00    +0.040 A 
ATOM      2  C   UNL     1      31.489  17.169  15.630  0.00  0.00    +0.013 A 
ATOM      3  C   UNL     1      30.515  17.985  15.054  0.00  0.00    +0.004 A 
ATOM      4  C   UNL     1      30.414  19.329  15.423  0.00  0.00    +0.046 A 
ATOM      5  C   UNL     1      31.284  19.862  16.375  0.00  0.00    +0.122 A 
ATOM      6  C   UNL     1      32.262  19.040  16.950  0.00  0.00    +0.058 A 
ENDROOT
BRANCH   1   8
ATOM      7  N   UNL     1      33.934  15.834  16.329  0.00  0.00    -0.325 N 
ATOM      8  C   UNL     1      33.401  16.787  17.155  0.00  0.00    +0.242 C 
ATOM      9  O   UNL     1      33.794  16.905  18.309  0.00  0.00    -0.270 OA
ATOM     10  H   UNL     1      34.707  15.301  16.706  0.00  0.00    +0.145 HD
ATOM     11  H   UNL     1      33.822  15.855  15.327  0.00  0.00    +0.145 HD
ENDBRANCH   1   8
BRANCH   5  12
ATOM     12  O   UNL     1      31.239  21.137  16.870  0.00  0.00    -0.484 OA
BRANCH  12  13
ATOM     13  C   UNL     1      30.813  21.338  18.227  0.00  0.00    +0.208 C 
BRANCH  13  14
ATOM     14  C   UNL     1      31.789  22.160  19.046  0.00  0.00    +0.011 A 
ATOM     15  C   UNL     1      32.223  21.791  20.322  0.00  0.00    +0.010 A 
ATOM     16  C   UNL     1      33.189  22.556  20.971  0.00  0.00    +0.020 A 
ATOM     17  C   UNL     1      33.695  23.670  20.321  0.00  0.00    +0.111 A 
ATOM     18  N   UNL     1      33.297  24.066  19.095  0.00  0.00    -0.263 NA
ATOM     19  C   UNL     1      32.361  23.304  18.489  0.00  0.00    +0.118 A 
ENDBRANCH  13  14
BRANCH  13  20
ATOM     20  C   UNL     1      29.480  22.080  18.233  0.00  0.00    +0.034 C 
ATOM     21  C   UNL     1      28.654  22.162  19.495  0.00  0.00    +0.008 C 
ATOM     22  C   UNL     1      28.144  21.376  18.318  0.00  0.00    +0.008 C 
ENDBRANCH  13  20
ENDBRANCH  12  13
ENDBRANCH   5  12
TORSDOF 5
ENDMDL
MODEL 9
REMARK VINA RESULT:      -6.0      3.888      6.633
REMARK  Name = ZINC001228612316
REMARK  5 active torsions:
REMARK  status: ('A' for Active; 'I' for Inactive)
REMARK    1  A    between atoms: C_2  and  C_4
REMARK    2  A    between atoms: C_8  and  O_9
REMARK    3  A    between atoms: O_9  and  C_10
REMARK    4  A    between atoms: C_10  and  C_11
REMARK    5  A    between atoms: C_10  and  C_17
REMARK                            x       y       z     vdW  Elec       q    Type
REMARK                         _______ _______ _______ _____ _____    ______ ____
ROOT
ATOM      1  C   UNL     1      32.134  23.787  12.183  0.00  0.00    +0.040 A 
ATOM      2  C   UNL     1      33.459  23.428  12.453  0.00  0.00    +0.013 A 
ATOM      3  C   UNL     1      33.736  22.263  13.168  0.00  0.00    +0.004 A 
ATOM      4  C   UNL     1      32.693  21.448  13.617  0.00  0.00    +0.046 A 
ATOM      5  C   UNL     1      31.368  21.798  13.358  0.00  0.00    +0.122 A 
ATOM      6  C   UNL     1      31.093  22.968  12.638  0.00  0.00    +0.058 A 
ENDROOT
BRANCH   1   8
ATOM      7  N   UNL     1      30.639  25.580  11.462  0.00  0.00    -0.325 N 
ATOM      8  C   UNL     1      31.891  25.030  11.402  0.00  0.00    +0.242 C 
ATOM      9  O   UNL     1      32.782  25.570  10.756  0.00  0.00    -0.270 OA
ATOM     10  H   UNL     1      30.526  26.479  11.011  0.00  0.00    +0.145 HD
ATOM     11  H   UNL     1      29.958  25.314  12.156  0.00  0.00    +0.145 HD
ENDBRANCH   1   8
BRANCH   5  12
ATOM     12  O   UNL     1      30.264  21.124  13.806  0.00  0.00    -0.484 OA
BRANCH  12  13
ATOM     13  C   UNL     1      30.374  20.326  14.995  0.00  0.00    +0.208 C 
BRANCH  13  14
ATOM     14  C   UNL     1      29.401  20.735  16.084  0.00  0.00    +0.011 A 
ATOM     15  C   UNL     1      28.013  20.640  15.949  0.00  0.00    +0.010 A 
ATOM     16  C   UNL     1      27.192  20.953  17.030  0.00  0.00    +0.020 A 
ATOM     17  C   UNL     1      27.786  21.350  18.217  0.00  0.00    +0.111 A 
ATOM     18  N   UNL     1      29.119  21.464  18.385  0.00  0.00    -0.263 NA
ATOM     19  C   UNL     1      29.891  21.153  17.322  0.00  0.00    +0.118 A 
ENDBRANCH  13  14
BRANCH  13  20
ATOM     20  C   UNL     1      30.084  18.868  14.653  0.00  0.00    +0.034 C 
ATOM     21  C   UNL     1      30.608  17.756  15.529  0.00  0.00    +0.008 C 
ATOM     22  C   UNL     1      31.138  17.917  14.130  0.00  0.00    +0.008 C 
ENDBRANCH  13  20
ENDBRANCH  12  13
ENDBRANCH   5  12
TORSDOF 5
ENDMDL
