MODEL 1
REMARK VINA RESULT:      -7.5      0.000      0.000
REMARK  Name = ZINC000870248439
REMARK  2 active torsions:
REMARK  status: ('A' for Active; 'I' for Inactive)
REMARK    1  A    between atoms: C_2  and  C_4
REMARK    2  A    between atoms: C_7  and  C_8
REMARK                            x       y       z     vdW  Elec       q    Type
REMARK                         _______ _______ _______ _____ _____    ______ ____
ROOT
ATOM      1  C   UNL     1      30.357  20.513  14.878  0.00  0.00    +0.247 C 
ATOM      2  O   UNL     1      30.741  21.496  14.245  0.00  0.00    -0.270 OA
ATOM      3  N   UNL     1      30.797  19.209  14.613  0.00  0.00    -0.297 N 
ATOM      4  C   UNL     1      30.348  18.001  15.310  0.00  0.00    +0.108 C 
ATOM      5  C   UNL     1      31.461  16.984  15.529  0.00  0.00    +0.026 C 
ATOM      6  C   UNL     1      32.267  16.662  14.252  0.00  0.00    -0.025 C 
ATOM      7  C   UNL     1      33.482  15.798  14.676  0.00  0.00    +0.017 C 
ATOM      8  C   UNL     1      34.382  15.348  13.534  0.00  0.00    +0.069 C 
ATOM      9  S   UNL     1      33.498  14.337  12.315  0.00  0.00    -0.161 S 
ATOM     10  C   UNL     1      32.092  15.432  11.982  0.00  0.00    +0.069 C 
ATOM     11  C   UNL     1      31.384  15.857  13.264  0.00  0.00    +0.017 C 
ATOM     12  C   UNL     1      32.742  18.015  13.661  0.00  0.00    +0.026 C 
ATOM     13  C   UNL     1      31.594  18.993  13.409  0.00  0.00    +0.108 C 
ENDROOT
BRANCH   1  17
ATOM     14  C   UNL     1      27.625  21.480  18.014  0.00  0.00    +0.037 A 
ATOM     15  C   UNL     1      29.000  21.510  18.271  0.00  0.00    +0.014 A 
ATOM     16  C   UNL     1      29.897  21.102  17.283  0.00  0.00    +0.014 A 
ATOM     17  C   UNL     1      29.429  20.758  16.010  0.00  0.00    +0.037 A 
ATOM     18  C   UNL     1      28.051  20.642  15.783  0.00  0.00    +0.014 A 
ATOM     19  C   UNL     1      27.148  20.993  16.790  0.00  0.00    +0.014 A 
BRANCH  14  21
ATOM     20  N   UNL     1      27.147  22.306  20.249  0.00  0.00    -0.325 N 
ATOM     21  C   UNL     1      26.649  21.958  19.025  0.00  0.00    +0.242 C 
ATOM     22  O   UNL     1      25.463  22.086  18.761  0.00  0.00    -0.270 OA
ATOM     23  H   UNL     1      26.494  22.744  20.887  0.00  0.00    +0.145 HD
ATOM     24  H   UNL     1      28.132  22.462  20.408  0.00  0.00    +0.145 HD
ENDBRANCH  14  21
ENDBRANCH   1  17
TORSDOF 2
ENDMDL
MODEL 2
REMARK VINA RESULT:      -7.1      1.005      1.448
REMARK  Name = ZINC000870248439
REMARK  2 active torsions:
REMARK  status: ('A' for Active; 'I' for Inactive)
REMARK    1  A    between atoms: C_2  and  C_4
REMARK    2  A    between atoms: C_7  and  C_8
REMARK                            x       y       z     vdW  Elec       q    Type
REMARK                         _______ _______ _______ _____ _____    ______ ____
ROOT
ATOM      1  C   UNL     1      31.020  20.332  14.476  0.00  0.00    +0.247 C 
ATOM      2  O   UNL     1      31.570  21.198  13.796  0.00  0.00    -0.270 OA
ATOM      3  N   UNL     1      31.270  18.962  14.322  0.00  0.00    -0.297 N 
ATOM      4  C   UNL     1      30.620  17.888  15.077  0.00  0.00    +0.108 C 
ATOM      5  C   UNL     1      31.559  16.738  15.419  0.00  0.00    +0.026 C 
ATOM      6  C   UNL     1      32.356  16.208  14.208  0.00  0.00    -0.025 C 
ATOM      7  C   UNL     1      33.410  15.209  14.748  0.00  0.00    +0.017 C 
ATOM      8  C   UNL     1      34.276  14.548  13.683  0.00  0.00    +0.069 C 
ATOM      9  S   UNL     1      33.297  13.589  12.495  0.00  0.00    -0.161 S 
ATOM     10  C   UNL     1      32.084  14.850  12.020  0.00  0.00    +0.069 C 
ATOM     11  C   UNL     1      31.401  15.469  13.234  0.00  0.00    +0.017 C 
ATOM     12  C   UNL     1      33.049  17.428  13.549  0.00  0.00    +0.026 C 
ATOM     13  C   UNL     1      32.071  18.542  13.175  0.00  0.00    +0.108 C 
ENDROOT
BRANCH   1  17
ATOM     14  C   UNL     1      28.395  21.397  17.671  0.00  0.00    +0.037 A 
ATOM     15  C   UNL     1      27.860  21.126  16.407  0.00  0.00    +0.014 A 
ATOM     16  C   UNL     1      28.715  20.873  15.334  0.00  0.00    +0.014 A 
ATOM     17  C   UNL     1      30.096  20.794  15.542  0.00  0.00    +0.037 A 
ATOM     18  C   UNL     1      30.635  21.154  16.784  0.00  0.00    +0.014 A 
ATOM     19  C   UNL     1      29.783  21.466  17.847  0.00  0.00    +0.014 A 
BRANCH  14  21
ATOM     20  N   UNL     1      26.172  21.422  18.653  0.00  0.00    -0.325 N 
ATOM     21  C   UNL     1      27.512  21.618  18.843  0.00  0.00    +0.242 C 
ATOM     22  O   UNL     1      27.963  21.909  19.940  0.00  0.00    -0.270 OA
ATOM     23  H   UNL     1      25.596  21.456  19.484  0.00  0.00    +0.145 HD
ATOM     24  H   UNL     1      25.805  20.934  17.849  0.00  0.00    +0.145 HD
ENDBRANCH  14  21
ENDBRANCH   1  17
TORSDOF 2
ENDMDL
MODEL 3
REMARK VINA RESULT:      -6.8      4.462      5.815
REMARK  Name = ZINC000870248439
REMARK  2 active torsions:
REMARK  status: ('A' for Active; 'I' for Inactive)
REMARK    1  A    between atoms: C_2  and  C_4
REMARK    2  A    between atoms: C_7  and  C_8
REMARK                            x       y       z     vdW  Elec       q    Type
REMARK                         _______ _______ _______ _____ _____    ______ ____
ROOT
ATOM      1  C   UNL     1      31.693  20.251  13.624  0.00  0.00    +0.247 C 
ATOM      2  O   UNL     1      31.997  19.101  13.309  0.00  0.00    -0.270 OA
ATOM      3  N   UNL     1      32.146  21.382  12.932  0.00  0.00    -0.297 N 
ATOM      4  C   UNL     1      31.846  22.772  13.283  0.00  0.00    +0.108 C 
ATOM      5  C   UNL     1      31.635  23.668  12.068  0.00  0.00    +0.026 C 
ATOM      6  C   UNL     1      32.757  23.556  11.013  0.00  0.00    -0.025 C 
ATOM      7  C   UNL     1      32.296  24.344   9.761  0.00  0.00    +0.017 C 
ATOM      8  C   UNL     1      33.299  24.377   8.616  0.00  0.00    +0.069 C 
ATOM      9  S   UNL     1      34.868  25.148   9.096  0.00  0.00    -0.161 S 
ATOM     10  C   UNL     1      35.231  24.185  10.588  0.00  0.00    +0.069 C 
ATOM     11  C   UNL     1      34.061  24.187  11.566  0.00  0.00    +0.017 C 
ATOM     12  C   UNL     1      32.919  22.050  10.679  0.00  0.00    +0.026 C 
ATOM     13  C   UNL     1      33.177  21.188  11.915  0.00  0.00    +0.108 C 
ENDROOT
BRANCH   1  17
ATOM     14  C   UNL     1      28.986  21.013  16.837  0.00  0.00    +0.037 A 
ATOM     15  C   UNL     1      30.317  20.692  17.125  0.00  0.00    +0.014 A 
ATOM     16  C   UNL     1      31.184  20.346  16.089  0.00  0.00    +0.014 A 
ATOM     17  C   UNL     1      30.752  20.415  14.760  0.00  0.00    +0.037 A 
ATOM     18  C   UNL     1      29.399  20.648  14.480  0.00  0.00    +0.014 A 
ATOM     19  C   UNL     1      28.513  20.936  15.521  0.00  0.00    +0.014 A 
BRANCH  14  21
ATOM     20  N   UNL     1      26.727  21.505  17.587  0.00  0.00    -0.325 N 
ATOM     21  C   UNL     1      28.053  21.436  17.912  0.00  0.00    +0.242 C 
ATOM     22  O   UNL     1      28.443  21.659  19.048  0.00  0.00    -0.270 OA
ATOM     23  H   UNL     1      26.090  21.674  18.355  0.00  0.00    +0.145 HD
ATOM     24  H   UNL     1      26.351  21.079  16.752  0.00  0.00    +0.145 HD
ENDBRANCH  14  21
ENDBRANCH   1  17
TORSDOF 2
ENDMDL
MODEL 4
REMARK VINA RESULT:      -6.8      4.302      8.427
REMARK  Name = ZINC000870248439
REMARK  2 active torsions:
REMARK  status: ('A' for Active; 'I' for Inactive)
REMARK    1  A    between atoms: C_2  and  C_4
REMARK    2  A    between atoms: C_7  and  C_8
REMARK                            x       y       z     vdW  Elec       q    Type
REMARK                         _______ _______ _______ _____ _____    ______ ____
ROOT
ATOM      1  C   UNL     1      32.446  17.096  11.949  0.00  0.00    +0.247 C 
ATOM      2  O   UNL     1      32.673  17.680  10.890  0.00  0.00    -0.270 OA
ATOM      3  N   UNL     1      31.979  17.747  13.099  0.00  0.00    -0.297 N 
ATOM      4  C   UNL     1      31.726  17.110  14.394  0.00  0.00    +0.108 C 
ATOM      5  C   UNL     1      30.502  17.668  15.110  0.00  0.00    +0.026 C 
ATOM      6  C   UNL     1      30.484  19.209  15.198  0.00  0.00    -0.025 C 
ATOM      7  C   UNL     1      29.096  19.626  15.745  0.00  0.00    +0.017 C 
ATOM      8  C   UNL     1      28.903  21.125  15.937  0.00  0.00    +0.069 C 
ATOM      9  S   UNL     1      30.093  21.829  17.111  0.00  0.00    -0.161 S 
ATOM     10  C   UNL     1      31.633  21.200  16.388  0.00  0.00    +0.069 C 
ATOM     11  C   UNL     1      31.588  19.691  16.176  0.00  0.00    +0.017 C 
ATOM     12  C   UNL     1      30.687  19.750  13.759  0.00  0.00    +0.026 C 
ATOM     13  C   UNL     1      31.949  19.207  13.088  0.00  0.00    +0.108 C 
ENDROOT
BRANCH   1  17
ATOM     14  C   UNL     1      32.948  12.870  12.281  0.00  0.00    +0.037 A 
ATOM     15  C   UNL     1      34.053  13.667  11.964  0.00  0.00    +0.014 A 
ATOM     16  C   UNL     1      33.880  15.036  11.757  0.00  0.00    +0.014 A 
ATOM     17  C   UNL     1      32.627  15.624  11.962  0.00  0.00    +0.037 A 
ATOM     18  C   UNL     1      31.508  14.813  12.190  0.00  0.00    +0.014 A 
ATOM     19  C   UNL     1      31.667  13.433  12.339  0.00  0.00    +0.014 A 
BRANCH  14  21
ATOM     20  N   UNL     1      33.378  10.612  11.490  0.00  0.00    -0.325 N 
ATOM     21  C   UNL     1      33.107  11.420  12.558  0.00  0.00    +0.242 C 
ATOM     22  O   UNL     1      33.053  10.975  13.695  0.00  0.00    -0.270 OA
ATOM     23  H   UNL     1      33.606   9.650  11.706  0.00  0.00    +0.145 HD
ATOM     24  H   UNL     1      33.687  10.977  10.600  0.00  0.00    +0.145 HD
ENDBRANCH  14  21
ENDBRANCH   1  17
TORSDOF 2
ENDMDL
MODEL 5
REMARK VINA RESULT:      -6.7      2.713      4.333
REMARK  Name = ZINC000870248439
REMARK  2 active torsions:
REMARK  status: ('A' for Active; 'I' for Inactive)
REMARK    1  A    between atoms: C_2  and  C_4
REMARK    2  A    between atoms: C_7  and  C_8
REMARK                            x       y       z     vdW  Elec       q    Type
REMARK                         _______ _______ _______ _____ _____    ______ ____
ROOT
ATOM      1  C   UNL     1      32.306  16.686  15.866  0.00  0.00    +0.247 C 
ATOM      2  O   UNL     1      32.568  16.423  17.040  0.00  0.00    -0.270 OA
ATOM      3  N   UNL     1      32.618  15.832  14.800  0.00  0.00    -0.297 N 
ATOM      4  C   UNL     1      32.363  16.109  13.384  0.00  0.00    +0.108 C 
ATOM      5  C   UNL     1      31.934  14.877  12.597  0.00  0.00    +0.026 C 
ATOM      6  C   UNL     1      32.861  13.659  12.801  0.00  0.00    -0.025 C 
ATOM      7  C   UNL     1      32.182  12.441  12.124  0.00  0.00    +0.017 C 
ATOM      8  C   UNL     1      32.974  11.142  12.191  0.00  0.00    +0.069 C 
ATOM      9  S   UNL     1      34.591  11.279  11.381  0.00  0.00    -0.161 S 
ATOM     10  C   UNL     1      35.217  12.764  12.212  0.00  0.00    +0.069 C 
ATOM     11  C   UNL     1      34.231  13.923  12.125  0.00  0.00    +0.017 C 
ATOM     12  C   UNL     1      32.986  13.432  14.330  0.00  0.00    +0.026 C 
ATOM     13  C   UNL     1      33.463  14.674  15.082  0.00  0.00    +0.108 C 
ENDROOT
BRANCH   1  17
ATOM     14  C   UNL     1      30.224  20.384  15.398  0.00  0.00    +0.037 A 
ATOM     15  C   UNL     1      29.501  19.186  15.391  0.00  0.00    +0.014 A 
ATOM     16  C   UNL     1      30.180  17.969  15.446  0.00  0.00    +0.014 A 
ATOM     17  C   UNL     1      31.570  17.948  15.604  0.00  0.00    +0.037 A 
ATOM     18  C   UNL     1      32.298  19.141  15.520  0.00  0.00    +0.014 A 
ATOM     19  C   UNL     1      31.625  20.360  15.406  0.00  0.00    +0.014 A 
BRANCH  14  21
ATOM     20  N   UNL     1      28.164  21.672  15.468  0.00  0.00    -0.325 N 
ATOM     21  C   UNL     1      29.529  21.695  15.394  0.00  0.00    +0.242 C 
ATOM     22  O   UNL     1      30.147  22.749  15.381  0.00  0.00    -0.270 OA
ATOM     23  H   UNL     1      27.710  22.568  15.588  0.00  0.00    +0.145 HD
ATOM     24  H   UNL     1      27.651  20.846  15.743  0.00  0.00    +0.145 HD
ENDBRANCH  14  21
ENDBRANCH   1  17
TORSDOF 2
ENDMDL
MODEL 6
REMARK VINA RESULT:      -6.6      2.629      4.263
REMARK  Name = ZINC000870248439
REMARK  2 active torsions:
REMARK  status: ('A' for Active; 'I' for Inactive)
REMARK    1  A    between atoms: C_2  and  C_4
REMARK    2  A    between atoms: C_7  and  C_8
REMARK                            x       y       z     vdW  Elec       q    Type
REMARK                         _______ _______ _______ _____ _____    ______ ____
ROOT
ATOM      1  C   UNL     1      29.016  21.972  18.915  0.00  0.00    +0.247 C 
ATOM      2  O   UNL     1      29.737  22.007  19.911  0.00  0.00    -0.270 OA
ATOM      3  N   UNL     1      29.435  21.456  17.681  0.00  0.00    -0.297 N 
ATOM      4  C   UNL     1      28.633  21.422  16.456  0.00  0.00    +0.108 C 
ATOM      5  C   UNL     1      28.846  20.159  15.632  0.00  0.00    +0.026 C 
ATOM      6  C   UNL     1      30.332  19.832  15.372  0.00  0.00    -0.025 C 
ATOM      7  C   UNL     1      30.391  18.425  14.724  0.00  0.00    +0.017 C 
ATOM      8  C   UNL     1      31.788  17.942  14.359  0.00  0.00    +0.069 C 
ATOM      9  S   UNL     1      32.606  19.035  13.165  0.00  0.00    -0.161 S 
ATOM     10  C   UNL     1      32.391  20.622  14.016  0.00  0.00    +0.069 C 
ATOM     11  C   UNL     1      30.935  20.873  14.394  0.00  0.00    +0.017 C 
ATOM     12  C   UNL     1      31.045  19.827  16.749  0.00  0.00    +0.026 C 
ATOM     13  C   UNL     1      30.850  21.128  17.528  0.00  0.00    +0.108 C 
ENDROOT
BRANCH   1  17
ATOM     14  C   UNL     1      25.006  23.430  19.086  0.00  0.00    +0.037 A 
ATOM     15  C   UNL     1      26.031  24.172  19.685  0.00  0.00    +0.014 A 
ATOM     16  C   UNL     1      27.327  23.658  19.720  0.00  0.00    +0.014 A 
ATOM     17  C   UNL     1      27.620  22.452  19.074  0.00  0.00    +0.037 A 
ATOM     18  C   UNL     1      26.581  21.670  18.555  0.00  0.00    +0.014 A 
ATOM     19  C   UNL     1      25.270  22.155  18.571  0.00  0.00    +0.014 A 
BRANCH  14  21
ATOM     20  N   UNL     1      23.443  25.040  18.153  0.00  0.00    -0.325 N 
ATOM     21  C   UNL     1      23.629  23.973  18.987  0.00  0.00    +0.242 C 
ATOM     22  O   UNL     1      22.692  23.458  19.579  0.00  0.00    -0.270 OA
ATOM     23  H   UNL     1      22.483  25.323  17.999  0.00  0.00    +0.145 HD
ATOM     24  H   UNL     1      24.127  25.313  17.462  0.00  0.00    +0.145 HD
ENDBRANCH  14  21
ENDBRANCH   1  17
TORSDOF 2
ENDMDL
MODEL 7
REMARK VINA RESULT:      -6.6      4.124      7.704
REMARK  Name = ZINC000870248439
REMARK  2 active torsions:
REMARK  status: ('A' for Active; 'I' for Inactive)
REMARK    1  A    between atoms: C_2  and  C_4
REMARK    2  A    between atoms: C_7  and  C_8
REMARK                            x       y       z     vdW  Elec       q    Type
REMARK                         _______ _______ _______ _____ _____    ______ ____
ROOT
ATOM      1  C   UNL     1      30.772  20.162  14.991  0.00  0.00    +0.247 C 
ATOM      2  O   UNL     1      29.787  20.745  14.538  0.00  0.00    -0.270 OA
ATOM      3  N   UNL     1      31.526  20.651  16.067  0.00  0.00    -0.297 N 
ATOM      4  C   UNL     1      32.724  20.018  16.623  0.00  0.00    +0.108 C 
ATOM      5  C   UNL     1      32.818  20.134  18.139  0.00  0.00    +0.026 C 
ATOM      6  C   UNL     1      32.614  21.572  18.664  0.00  0.00    -0.025 C 
ATOM      7  C   UNL     1      32.518  21.492  20.209  0.00  0.00    +0.017 C 
ATOM      8  C   UNL     1      32.349  22.831  20.914  0.00  0.00    +0.069 C 
ATOM      9  S   UNL     1      33.734  23.958  20.594  0.00  0.00    -0.161 S 
ATOM     10  C   UNL     1      33.766  23.886  18.783  0.00  0.00    +0.069 C 
ATOM     11  C   UNL     1      33.828  22.452  18.270  0.00  0.00    +0.017 C 
ATOM     12  C   UNL     1      31.282  22.091  18.062  0.00  0.00    +0.026 C 
ATOM     13  C   UNL     1      31.241  22.004  16.536  0.00  0.00    +0.108 C 
ENDROOT
BRANCH   1  17
ATOM     14  C   UNL     1      31.602  16.465  13.024  0.00  0.00    +0.037 A 
ATOM     15  C   UNL     1      30.721  16.479  14.111  0.00  0.00    +0.014 A 
ATOM     16  C   UNL     1      30.519  17.663  14.821  0.00  0.00    +0.014 A 
ATOM     17  C   UNL     1      31.117  18.851  14.389  0.00  0.00    +0.037 A 
ATOM     18  C   UNL     1      32.066  18.817  13.359  0.00  0.00    +0.014 A 
ATOM     19  C   UNL     1      32.317  17.620  12.683  0.00  0.00    +0.014 A 
BRANCH  14  21
ATOM     20  N   UNL     1      32.782  15.268  11.268  0.00  0.00    -0.325 N 
ATOM     21  C   UNL     1      31.798  15.235  12.217  0.00  0.00    +0.242 C 
ATOM     22  O   UNL     1      31.149  14.221  12.425  0.00  0.00    -0.270 OA
ATOM     23  H   UNL     1      32.989  14.389  10.811  0.00  0.00    +0.145 HD
ATOM     24  H   UNL     1      33.497  15.982  11.255  0.00  0.00    +0.145 HD
ENDBRANCH  14  21
ENDBRANCH   1  17
TORSDOF 2
ENDMDL
MODEL 8
REMARK VINA RESULT:      -6.3     21.300     22.505
REMARK  Name = ZINC000870248439
REMARK  2 active torsions:
REMARK  status: ('A' for Active; 'I' for Inactive)
REMARK    1  A    between atoms: C_2  and  C_4
REMARK    2  A    between atoms: C_7  and  C_8
REMARK                            x       y       z     vdW  Elec       q    Type
REMARK                         _______ _______ _______ _____ _____    ______ ____
ROOT
ATOM      1  C   UNL     1      18.196   3.892  27.156  0.00  0.00    +0.247 C 
ATOM      2  O   UNL     1      17.691   3.547  26.089  0.00  0.00    -0.270 OA
ATOM      3  N   UNL     1      19.534   3.640  27.490  0.00  0.00    -0.297 N 
ATOM      4  C   UNL     1      20.177   3.995  28.757  0.00  0.00    +0.108 C 
ATOM      5  C   UNL     1      21.620   4.456  28.591  0.00  0.00    +0.026 C 
ATOM      6  C   UNL     1      22.482   3.499  27.741  0.00  0.00    -0.025 C 
ATOM      7  C   UNL     1      23.838   4.203  27.481  0.00  0.00    +0.017 C 
ATOM      8  C   UNL     1      24.845   3.388  26.680  0.00  0.00    +0.069 C 
ATOM      9  S   UNL     1      25.282   1.832  27.502  0.00  0.00    -0.161 S 
ATOM     10  C   UNL     1      23.619   1.174  27.802  0.00  0.00    +0.069 C 
ATOM     11  C   UNL     1      22.729   2.182  28.521  0.00  0.00    +0.017 C 
ATOM     12  C   UNL     1      21.726   3.268  26.407  0.00  0.00    +0.026 C 
ATOM     13  C   UNL     1      20.298   2.760  26.610  0.00  0.00    +0.108 C 
ENDROOT
BRANCH   1  17
ATOM     14  C   UNL     1      15.967   6.132  30.028  0.00  0.00    +0.037 A 
ATOM     15  C   UNL     1      15.729   4.759  29.896  0.00  0.00    +0.014 A 
ATOM     16  C   UNL     1      16.381   4.038  28.896  0.00  0.00    +0.014 A 
ATOM     17  C   UNL     1      17.340   4.664  28.092  0.00  0.00    +0.037 A 
ATOM     18  C   UNL     1      17.511   6.052  28.165  0.00  0.00    +0.014 A 
ATOM     19  C   UNL     1      16.815   6.789  29.127  0.00  0.00    +0.014 A 
BRANCH  14  21
ATOM     20  N   UNL     1      14.491   7.928  30.739  0.00  0.00    -0.325 N 
ATOM     21  C   UNL     1      15.330   6.916  31.115  0.00  0.00    +0.242 C 
ATOM     22  O   UNL     1      15.502   6.638  32.292  0.00  0.00    -0.270 OA
ATOM     23  H   UNL     1      13.969   8.373  31.483  0.00  0.00    +0.145 HD
ATOM     24  H   UNL     1      14.128   8.008  29.799  0.00  0.00    +0.145 HD
ENDBRANCH  14  21
ENDBRANCH   1  17
TORSDOF 2
ENDMDL
MODEL 9
REMARK VINA RESULT:      -6.3      5.582      7.329
REMARK  Name = ZINC000870248439
REMARK  2 active torsions:
REMARK  status: ('A' for Active; 'I' for Inactive)
REMARK    1  A    between atoms: C_2  and  C_4
REMARK    2  A    between atoms: C_7  and  C_8
REMARK                            x       y       z     vdW  Elec       q    Type
REMARK                         _______ _______ _______ _____ _____    ______ ____
ROOT
ATOM      1  C   UNL     1      32.035  22.198  19.321  0.00  0.00    +0.247 C 
ATOM      2  O   UNL     1      32.426  21.449  20.216  0.00  0.00    -0.270 OA
ATOM      3  N   UNL     1      32.852  23.165  18.719  0.00  0.00    -0.297 N 
ATOM      4  C   UNL     1      32.431  24.106  17.678  0.00  0.00    +0.108 C 
ATOM      5  C   UNL     1      33.506  24.363  16.629  0.00  0.00    +0.026 C 
ATOM      6  C   UNL     1      34.882  24.725  17.229  0.00  0.00    -0.025 C 
ATOM      7  C   UNL     1      35.905  24.739  16.065  0.00  0.00    +0.017 C 
ATOM      8  C   UNL     1      37.327  25.115  16.461  0.00  0.00    +0.069 C 
ATOM      9  S   UNL     1      37.425  26.776  17.183  0.00  0.00    -0.161 S 
ATOM     10  C   UNL     1      36.141  26.626  18.454  0.00  0.00    +0.069 C 
ATOM     11  C   UNL     1      34.820  26.134  17.874  0.00  0.00    +0.017 C 
ATOM     12  C   UNL     1      35.238  23.616  18.253  0.00  0.00    +0.026 C 
ATOM     13  C   UNL     1      34.159  23.418  19.318  0.00  0.00    +0.108 C 
ENDROOT
BRANCH   1  17
ATOM     14  C   UNL     1      28.012  21.425  18.119  0.00  0.00    +0.037 A 
ATOM     15  C   UNL     1      29.063  21.046  17.276  0.00  0.00    +0.014 A 
ATOM     16  C   UNL     1      30.374  21.381  17.614  0.00  0.00    +0.014 A 
ATOM     17  C   UNL     1      30.646  22.006  18.836  0.00  0.00    +0.037 A 
ATOM     18  C   UNL     1      29.589  22.464  19.633  0.00  0.00    +0.014 A 
ATOM     19  C   UNL     1      28.270  22.182  19.269  0.00  0.00    +0.014 A 
BRANCH  14  21
ATOM     20  N   UNL     1      25.657  21.410  18.718  0.00  0.00    -0.325 N 
ATOM     21  C   UNL     1      26.612  21.037  17.814  0.00  0.00    +0.242 C 
ATOM     22  O   UNL     1      26.317  20.461  16.779  0.00  0.00    -0.270 OA
ATOM     23  H   UNL     1      24.696  21.250  18.442  0.00  0.00    +0.145 HD
ATOM     24  H   UNL     1      25.828  22.103  19.433  0.00  0.00    +0.145 HD
ENDBRANCH  14  21
ENDBRANCH   1  17
TORSDOF 2
ENDMDL
