MODEL 1
REMARK VINA RESULT:      -6.4      0.000      0.000
REMARK  Name = ZINC000870248439
REMARK  2 active torsions:
REMARK  status: ('A' for Active; 'I' for Inactive)
REMARK    1  A    between atoms: C_2  and  C_4
REMARK    2  A    between atoms: C_7  and  C_8
REMARK                            x       y       z     vdW  Elec       q    Type
REMARK                         _______ _______ _______ _____ _____    ______ ____
ROOT
ATOM      1  C   UNL     1      33.634  17.272  14.695  0.00  0.00    +0.247 C 
ATOM      2  O   UNL     1      33.996  16.764  15.756  0.00  0.00    -0.270 OA
ATOM      3  N   UNL     1      33.809  16.654  13.450  0.00  0.00    -0.297 N 
ATOM      4  C   UNL     1      33.388  17.197  12.161  0.00  0.00    +0.108 C 
ATOM      5  C   UNL     1      32.722  16.174  11.263  0.00  0.00    +0.026 C 
ATOM      6  C   UNL     1      33.561  14.894  11.098  0.00  0.00    -0.025 C 
ATOM      7  C   UNL     1      32.683  13.858  10.360  0.00  0.00    +0.017 C 
ATOM      8  C   UNL     1      33.380  12.538  10.059  0.00  0.00    +0.069 C 
ATOM      9  S   UNL     1      34.852  12.751   9.017  0.00  0.00    -0.161 S 
ATOM     10  C   UNL     1      35.714  14.027   9.972  0.00  0.00    +0.069 C 
ATOM     11  C   UNL     1      34.812  15.222  10.243  0.00  0.00    +0.017 C 
ATOM     12  C   UNL     1      33.921  14.385  12.522  0.00  0.00    +0.026 C 
ATOM     13  C   UNL     1      34.616  15.441  13.380  0.00  0.00    +0.108 C 
ENDROOT
BRANCH   1  17
ATOM     14  C   UNL     1      31.593  21.020  14.530  0.00  0.00    +0.037 A 
ATOM     15  C   UNL     1      32.974  21.001  14.728  0.00  0.00    +0.014 A 
ATOM     16  C   UNL     1      33.624  19.785  14.899  0.00  0.00    +0.014 A 
ATOM     17  C   UNL     1      32.926  18.578  14.761  0.00  0.00    +0.037 A 
ATOM     18  C   UNL     1      31.534  18.597  14.630  0.00  0.00    +0.014 A 
ATOM     19  C   UNL     1      30.867  19.822  14.526  0.00  0.00    +0.014 A 
BRANCH  14  21
ATOM     20  N   UNL     1      30.878  23.169  15.408  0.00  0.00    -0.325 N 
ATOM     21  C   UNL     1      30.889  22.309  14.341  0.00  0.00    +0.242 C 
ATOM     22  O   UNL     1      30.368  22.603  13.273  0.00  0.00    -0.270 OA
ATOM     23  H   UNL     1      30.474  24.084  15.228  0.00  0.00    +0.145 HD
ATOM     24  H   UNL     1      31.513  23.081  16.183  0.00  0.00    +0.145 HD
ENDBRANCH  14  21
ENDBRANCH   1  17
TORSDOF 2
ENDMDL
MODEL 2
REMARK VINA RESULT:      -6.3      0.858      1.342
REMARK  Name = ZINC000870248439
REMARK  2 active torsions:
REMARK  status: ('A' for Active; 'I' for Inactive)
REMARK    1  A    between atoms: C_2  and  C_4
REMARK    2  A    between atoms: C_7  and  C_8
REMARK                            x       y       z     vdW  Elec       q    Type
REMARK                         _______ _______ _______ _____ _____    ______ ____
ROOT
ATOM      1  C   UNL     1      33.531  16.686  14.457  0.00  0.00    +0.247 C 
ATOM      2  O   UNL     1      33.844  16.169  15.530  0.00  0.00    -0.270 OA
ATOM      3  N   UNL     1      33.770  16.080  13.216  0.00  0.00    -0.297 N 
ATOM      4  C   UNL     1      33.410  16.633  11.913  0.00  0.00    +0.108 C 
ATOM      5  C   UNL     1      32.796  15.616  10.974  0.00  0.00    +0.026 C 
ATOM      6  C   UNL     1      33.649  14.342  10.838  0.00  0.00    -0.025 C 
ATOM      7  C   UNL     1      32.814  13.308  10.049  0.00  0.00    +0.017 C 
ATOM      8  C   UNL     1      33.533  11.995   9.770  0.00  0.00    +0.069 C 
ATOM      9  S   UNL     1      35.053  12.226   8.803  0.00  0.00    -0.161 S 
ATOM     10  C   UNL     1      35.860  13.497   9.812  0.00  0.00    +0.069 C 
ATOM     11  C   UNL     1      34.939  14.684  10.049  0.00  0.00    +0.017 C 
ATOM     12  C   UNL     1      33.942  13.821  12.274  0.00  0.00    +0.026 C 
ATOM     13  C   UNL     1      34.587  14.873  13.174  0.00  0.00    +0.108 C 
ENDROOT
BRANCH   1  17
ATOM     14  C   UNL     1      31.473  20.396  14.936  0.00  0.00    +0.037 A 
ATOM     15  C   UNL     1      30.746  19.245  14.631  0.00  0.00    +0.014 A 
ATOM     16  C   UNL     1      31.422  18.062  14.360  0.00  0.00    +0.014 A 
ATOM     17  C   UNL     1      32.813  17.987  14.500  0.00  0.00    +0.037 A 
ATOM     18  C   UNL     1      33.547  19.153  14.740  0.00  0.00    +0.014 A 
ATOM     19  C   UNL     1      32.874  20.362  14.946  0.00  0.00    +0.014 A 
BRANCH  14  21
ATOM     20  N   UNL     1      29.665  21.580  16.045  0.00  0.00    -0.325 N 
ATOM     21  C   UNL     1      30.765  21.663  15.232  0.00  0.00    +0.242 C 
ATOM     22  O   UNL     1      31.162  22.736  14.795  0.00  0.00    -0.270 OA
ATOM     23  H   UNL     1      29.252  22.470  16.313  0.00  0.00    +0.145 HD
ATOM     24  H   UNL     1      29.480  20.782  16.629  0.00  0.00    +0.145 HD
ENDBRANCH  14  21
ENDBRANCH   1  17
TORSDOF 2
ENDMDL
MODEL 3
REMARK VINA RESULT:      -6.1      2.298      3.121
REMARK  Name = ZINC000870248439
REMARK  2 active torsions:
REMARK  status: ('A' for Active; 'I' for Inactive)
REMARK    1  A    between atoms: C_2  and  C_4
REMARK    2  A    between atoms: C_7  and  C_8
REMARK                            x       y       z     vdW  Elec       q    Type
REMARK                         _______ _______ _______ _____ _____    ______ ____
ROOT
ATOM      1  C   UNL     1      33.114  18.057  12.861  0.00  0.00    +0.247 C 
ATOM      2  O   UNL     1      33.164  18.432  11.690  0.00  0.00    -0.270 OA
ATOM      3  N   UNL     1      33.592  16.811  13.288  0.00  0.00    -0.297 N 
ATOM      4  C   UNL     1      33.576  16.316  14.662  0.00  0.00    +0.108 C 
ATOM      5  C   UNL     1      34.868  15.641  15.077  0.00  0.00    +0.026 C 
ATOM      6  C   UNL     1      35.315  14.556  14.083  0.00  0.00    -0.025 C 
ATOM      7  C   UNL     1      36.739  14.113  14.492  0.00  0.00    +0.017 C 
ATOM      8  C   UNL     1      37.321  12.991  13.642  0.00  0.00    +0.069 C 
ATOM      9  S   UNL     1      36.313  11.482  13.697  0.00  0.00    -0.161 S 
ATOM     10  C   UNL     1      34.697  12.185  13.275  0.00  0.00    +0.069 C 
ATOM     11  C   UNL     1      34.344  13.351  14.185  0.00  0.00    +0.017 C 
ATOM     12  C   UNL     1      35.332  15.196  12.666  0.00  0.00    +0.026 C 
ATOM     13  C   UNL     1      34.000  15.838  12.282  0.00  0.00    +0.108 C 
ENDROOT
BRANCH   1  17
ATOM     14  C   UNL     1      31.460  20.995  15.482  0.00  0.00    +0.037 A 
ATOM     15  C   UNL     1      32.837  20.971  15.263  0.00  0.00    +0.014 A 
ATOM     16  C   UNL     1      33.392  19.947  14.506  0.00  0.00    +0.014 A 
ATOM     17  C   UNL     1      32.572  19.007  13.868  0.00  0.00    +0.037 A 
ATOM     18  C   UNL     1      31.200  18.991  14.141  0.00  0.00    +0.014 A 
ATOM     19  C   UNL     1      30.647  19.980  14.960  0.00  0.00    +0.014 A 
BRANCH  14  21
ATOM     20  N   UNL     1      30.899  23.343  15.747  0.00  0.00    -0.325 N 
ATOM     21  C   UNL     1      30.855  22.083  16.284  0.00  0.00    +0.242 C 
ATOM     22  O   UNL     1      30.315  21.861  17.361  0.00  0.00    -0.270 OA
ATOM     23  H   UNL     1      30.395  24.057  16.267  0.00  0.00    +0.145 HD
ATOM     24  H   UNL     1      31.080  23.512  14.772  0.00  0.00    +0.145 HD
ENDBRANCH  14  21
ENDBRANCH   1  17
TORSDOF 2
ENDMDL
MODEL 4
REMARK VINA RESULT:      -6.1      5.048      6.235
REMARK  Name = ZINC000870248439
REMARK  2 active torsions:
REMARK  status: ('A' for Active; 'I' for Inactive)
REMARK    1  A    between atoms: C_2  and  C_4
REMARK    2  A    between atoms: C_7  and  C_8
REMARK                            x       y       z     vdW  Elec       q    Type
REMARK                         _______ _______ _______ _____ _____    ______ ____
ROOT
ATOM      1  C   UNL     1      32.988  19.963  12.035  0.00  0.00    +0.247 C 
ATOM      2  O   UNL     1      32.868  18.769  11.762  0.00  0.00    -0.270 OA
ATOM      3  N   UNL     1      33.540  20.900  11.151  0.00  0.00    -0.297 N 
ATOM      4  C   UNL     1      33.693  22.330  11.409  0.00  0.00    +0.108 C 
ATOM      5  C   UNL     1      33.296  23.201  10.235  0.00  0.00    +0.026 C 
ATOM      6  C   UNL     1      33.982  22.779   8.924  0.00  0.00    -0.025 C 
ATOM      7  C   UNL     1      33.328  23.587   7.779  0.00  0.00    +0.017 C 
ATOM      8  C   UNL     1      33.931  23.335   6.403  0.00  0.00    +0.069 C 
ATOM      9  S   UNL     1      35.698  23.745   6.332  0.00  0.00    -0.161 S 
ATOM     10  C   UNL     1      36.284  22.794   7.759  0.00  0.00    +0.069 C 
ATOM     11  C   UNL     1      35.490  23.128   9.013  0.00  0.00    +0.017 C 
ATOM     12  C   UNL     1      33.726  21.258   8.730  0.00  0.00    +0.026 C 
ATOM     13  C   UNL     1      34.169  20.418   9.927  0.00  0.00    +0.108 C 
ENDROOT
BRANCH   1  17
ATOM     14  C   UNL     1      31.470  21.628  15.663  0.00  0.00    +0.037 A 
ATOM     15  C   UNL     1      32.835  21.361  15.551  0.00  0.00    +0.014 A 
ATOM     16  C   UNL     1      33.315  20.713  14.419  0.00  0.00    +0.014 A 
ATOM     17  C   UNL     1      32.461  20.429  13.345  0.00  0.00    +0.037 A 
ATOM     18  C   UNL     1      31.085  20.634  13.484  0.00  0.00    +0.014 A 
ATOM     19  C   UNL     1      30.589  21.224  14.651  0.00  0.00    +0.014 A 
BRANCH  14  21
ATOM     20  N   UNL     1      31.705  23.348  17.361  0.00  0.00    -0.325 N 
ATOM     21  C   UNL     1      30.947  22.323  16.862  0.00  0.00    +0.242 C 
ATOM     22  O   UNL     1      29.873  22.013  17.363  0.00  0.00    -0.270 OA
ATOM     23  H   UNL     1      31.284  23.873  18.123  0.00  0.00    +0.145 HD
ATOM     24  H   UNL     1      32.431  23.797  16.828  0.00  0.00    +0.145 HD
ENDBRANCH  14  21
ENDBRANCH   1  17
TORSDOF 2
ENDMDL
MODEL 5
REMARK VINA RESULT:      -6.0      3.098      4.606
REMARK  Name = ZINC000870248439
REMARK  2 active torsions:
REMARK  status: ('A' for Active; 'I' for Inactive)
REMARK    1  A    between atoms: C_2  and  C_4
REMARK    2  A    between atoms: C_7  and  C_8
REMARK                            x       y       z     vdW  Elec       q    Type
REMARK                         _______ _______ _______ _____ _____    ______ ____
ROOT
ATOM      1  C   UNL     1      32.233  21.749  13.910  0.00  0.00    +0.247 C 
ATOM      2  O   UNL     1      31.800  22.445  12.992  0.00  0.00    -0.270 OA
ATOM      3  N   UNL     1      32.436  20.367  13.795  0.00  0.00    -0.297 N 
ATOM      4  C   UNL     1      32.960  19.491  14.840  0.00  0.00    +0.108 C 
ATOM      5  C   UNL     1      33.992  18.502  14.338  0.00  0.00    +0.026 C 
ATOM      6  C   UNL     1      33.505  17.705  13.115  0.00  0.00    -0.025 C 
ATOM      7  C   UNL     1      34.713  16.911  12.569  0.00  0.00    +0.017 C 
ATOM      8  C   UNL     1      34.396  16.013  11.381  0.00  0.00    +0.069 C 
ATOM      9  S   UNL     1      33.136  14.765  11.769  0.00  0.00    -0.161 S 
ATOM     10  C   UNL     1      31.848  15.841  12.453  0.00  0.00    +0.069 C 
ATOM     11  C   UNL     1      32.395  16.722  13.567  0.00  0.00    +0.017 C 
ATOM     12  C   UNL     1      33.007  18.730  12.057  0.00  0.00    +0.026 C 
ATOM     13  C   UNL     1      31.947  19.687  12.601  0.00  0.00    +0.108 C 
ENDROOT
BRANCH   1  17
ATOM     14  C   UNL     1      33.120  23.988  17.437  0.00  0.00    +0.037 A 
ATOM     15  C   UNL     1      34.060  23.930  16.408  0.00  0.00    +0.014 A 
ATOM     16  C   UNL     1      33.826  23.109  15.312  0.00  0.00    +0.014 A 
ATOM     17  C   UNL     1      32.607  22.431  15.177  0.00  0.00    +0.037 A 
ATOM     18  C   UNL     1      31.694  22.436  16.236  0.00  0.00    +0.014 A 
ATOM     19  C   UNL     1      31.958  23.207  17.372  0.00  0.00    +0.014 A 
BRANCH  14  21
ATOM     20  N   UNL     1      32.381  25.781  18.899  0.00  0.00    -0.325 N 
ATOM     21  C   UNL     1      33.355  24.863  18.609  0.00  0.00    +0.242 C 
ATOM     22  O   UNL     1      34.359  24.749  19.301  0.00  0.00    -0.270 OA
ATOM     23  H   UNL     1      32.516  26.304  19.760  0.00  0.00    +0.145 HD
ATOM     24  H   UNL     1      31.447  25.717  18.532  0.00  0.00    +0.145 HD
ENDBRANCH  14  21
ENDBRANCH   1  17
TORSDOF 2
ENDMDL
MODEL 6
REMARK VINA RESULT:      -6.0      1.934      2.480
REMARK  Name = ZINC000870248439
REMARK  2 active torsions:
REMARK  status: ('A' for Active; 'I' for Inactive)
REMARK    1  A    between atoms: C_2  and  C_4
REMARK    2  A    between atoms: C_7  and  C_8
REMARK                            x       y       z     vdW  Elec       q    Type
REMARK                         _______ _______ _______ _____ _____    ______ ____
ROOT
ATOM      1  C   UNL     1      33.064  19.036  11.967  0.00  0.00    +0.247 C 
ATOM      2  O   UNL     1      33.500  19.781  11.090  0.00  0.00    -0.270 OA
ATOM      3  N   UNL     1      33.141  17.638  11.893  0.00  0.00    -0.297 N 
ATOM      4  C   UNL     1      32.658  16.702  12.905  0.00  0.00    +0.108 C 
ATOM      5  C   UNL     1      33.624  15.570  13.191  0.00  0.00    +0.026 C 
ATOM      6  C   UNL     1      34.082  14.845  11.913  0.00  0.00    -0.025 C 
ATOM      7  C   UNL     1      35.221  13.880  12.313  0.00  0.00    +0.017 C 
ATOM      8  C   UNL     1      35.760  13.030  11.170  0.00  0.00    +0.069 C 
ATOM      9  S   UNL     1      34.482  11.981  10.420  0.00  0.00    -0.161 S 
ATOM     10  C   UNL     1      33.219  13.238  10.089  0.00  0.00    +0.069 C 
ATOM     11  C   UNL     1      32.890  14.036  11.341  0.00  0.00    +0.017 C 
ATOM     12  C   UNL     1      34.607  15.925  10.926  0.00  0.00    +0.026 C 
ATOM     13  C   UNL     1      33.589  17.029  10.647  0.00  0.00    +0.108 C 
ENDROOT
BRANCH   1  17
ATOM     14  C   UNL     1      31.409  21.152  15.287  0.00  0.00    +0.037 A 
ATOM     15  C   UNL     1      32.772  20.854  15.276  0.00  0.00    +0.014 A 
ATOM     16  C   UNL     1      33.292  20.066  14.257  0.00  0.00    +0.014 A 
ATOM     17  C   UNL     1      32.486  19.665  13.184  0.00  0.00    +0.037 A 
ATOM     18  C   UNL     1      31.109  19.905  13.228  0.00  0.00    +0.014 A 
ATOM     19  C   UNL     1      30.570  20.640  14.289  0.00  0.00    +0.014 A 
BRANCH  14  21
ATOM     20  N   UNL     1      30.995  23.350  16.233  0.00  0.00    -0.325 N 
ATOM     21  C   UNL     1      30.843  21.995  16.365  0.00  0.00    +0.242 C 
ATOM     22  O   UNL     1      30.243  21.504  17.313  0.00  0.00    -0.270 OA
ATOM     23  H   UNL     1      30.517  23.913  16.932  0.00  0.00    +0.145 HD
ATOM     24  H   UNL     1      31.230  23.788  15.358  0.00  0.00    +0.145 HD
ENDBRANCH  14  21
ENDBRANCH   1  17
TORSDOF 2
ENDMDL
MODEL 7
REMARK VINA RESULT:      -5.9      1.797      2.327
REMARK  Name = ZINC000870248439
REMARK  2 active torsions:
REMARK  status: ('A' for Active; 'I' for Inactive)
REMARK    1  A    between atoms: C_2  and  C_4
REMARK    2  A    between atoms: C_7  and  C_8
REMARK                            x       y       z     vdW  Elec       q    Type
REMARK                         _______ _______ _______ _____ _____    ______ ____
ROOT
ATOM      1  C   UNL     1      34.273  16.667  15.241  0.00  0.00    +0.247 C 
ATOM      2  O   UNL     1      34.653  16.623  16.411  0.00  0.00    -0.270 OA
ATOM      3  N   UNL     1      34.666  15.734  14.271  0.00  0.00    -0.297 N 
ATOM      4  C   UNL     1      34.238  15.723  12.875  0.00  0.00    +0.108 C 
ATOM      5  C   UNL     1      33.871  14.344  12.366  0.00  0.00    +0.026 C 
ATOM      6  C   UNL     1      34.969  13.301  12.636  0.00  0.00    -0.025 C 
ATOM      7  C   UNL     1      34.386  11.914  12.283  0.00  0.00    +0.017 C 
ATOM      8  C   UNL     1      35.366  10.758  12.437  0.00  0.00    +0.069 C 
ATOM      9  S   UNL     1      36.833  10.945  11.385  0.00  0.00    -0.161 S 
ATOM     10  C   UNL     1      37.335  12.619  11.864  0.00  0.00    +0.069 C 
ATOM     11  C   UNL     1      36.184  13.604  11.722  0.00  0.00    +0.017 C 
ATOM     12  C   UNL     1      35.321  13.373  14.149  0.00  0.00    +0.026 C 
ATOM     13  C   UNL     1      35.712  14.777  14.608  0.00  0.00    +0.108 C 
ENDROOT
BRANCH   1  17
ATOM     14  C   UNL     1      31.427  19.769  14.521  0.00  0.00    +0.037 A 
ATOM     15  C   UNL     1      31.035  18.436  14.392  0.00  0.00    +0.014 A 
ATOM     16  C   UNL     1      31.984  17.429  14.511  0.00  0.00    +0.014 A 
ATOM     17  C   UNL     1      33.304  17.731  14.869  0.00  0.00    +0.037 A 
ATOM     18  C   UNL     1      33.713  19.067  14.933  0.00  0.00    +0.014 A 
ATOM     19  C   UNL     1      32.774  20.087  14.746  0.00  0.00    +0.014 A 
BRANCH  14  21
ATOM     20  N   UNL     1      29.706  21.155  15.528  0.00  0.00    -0.325 N 
ATOM     21  C   UNL     1      30.425  20.853  14.402  0.00  0.00    +0.242 C 
ATOM     22  O   UNL     1      30.269  21.468  13.355  0.00  0.00    -0.270 OA
ATOM     23  H   UNL     1      29.093  21.962  15.452  0.00  0.00    +0.145 HD
ATOM     24  H   UNL     1      29.992  20.869  16.449  0.00  0.00    +0.145 HD
ENDBRANCH  14  21
ENDBRANCH   1  17
TORSDOF 2
ENDMDL
MODEL 8
REMARK VINA RESULT:      -5.9      4.501      8.648
REMARK  Name = ZINC000870248439
REMARK  2 active torsions:
REMARK  status: ('A' for Active; 'I' for Inactive)
REMARK    1  A    between atoms: C_2  and  C_4
REMARK    2  A    between atoms: C_7  and  C_8
REMARK                            x       y       z     vdW  Elec       q    Type
REMARK                         _______ _______ _______ _____ _____    ______ ____
ROOT
ATOM      1  C   UNL     1      31.284  21.167  14.745  0.00  0.00    +0.247 C 
ATOM      2  O   UNL     1      30.093  21.455  14.858  0.00  0.00    -0.270 OA
ATOM      3  N   UNL     1      32.313  21.918  15.328  0.00  0.00    -0.297 N 
ATOM      4  C   UNL     1      33.741  21.621  15.244  0.00  0.00    +0.108 C 
ATOM      5  C   UNL     1      34.469  21.775  16.563  0.00  0.00    +0.026 C 
ATOM      6  C   UNL     1      34.207  23.137  17.230  0.00  0.00    -0.025 C 
ATOM      7  C   UNL     1      34.810  23.080  18.652  0.00  0.00    +0.017 C 
ATOM      8  C   UNL     1      34.691  24.376  19.442  0.00  0.00    +0.069 C 
ATOM      9  S   UNL     1      35.521  25.768  18.623  0.00  0.00    -0.161 S 
ATOM     10  C   UNL     1      34.767  25.643  16.981  0.00  0.00    +0.069 C 
ATOM     11  C   UNL     1      34.916  24.243  16.406  0.00  0.00    +0.017 C 
ATOM     12  C   UNL     1      32.667  23.334  17.301  0.00  0.00    +0.026 C 
ATOM     13  C   UNL     1      31.981  23.198  15.943  0.00  0.00    +0.108 C 
ENDROOT
BRANCH   1  17
ATOM     14  C   UNL     1      32.555  17.574  12.817  0.00  0.00    +0.037 A 
ATOM     15  C   UNL     1      32.839  18.805  12.226  0.00  0.00    +0.014 A 
ATOM     16  C   UNL     1      32.327  19.968  12.788  0.00  0.00    +0.014 A 
ATOM     17  C   UNL     1      31.627  19.926  14.001  0.00  0.00    +0.037 A 
ATOM     18  C   UNL     1      31.286  18.690  14.558  0.00  0.00    +0.014 A 
ATOM     19  C   UNL     1      31.741  17.512  13.957  0.00  0.00    +0.014 A 
BRANCH  14  21
ATOM     20  N   UNL     1      32.190  15.444  11.708  0.00  0.00    -0.325 N 
ATOM     21  C   UNL     1      33.098  16.327  12.232  0.00  0.00    +0.242 C 
ATOM     22  O   UNL     1      34.303  16.111  12.191  0.00  0.00    -0.270 OA
ATOM     23  H   UNL     1      32.588  14.642  11.227  0.00  0.00    +0.145 HD
ATOM     24  H   UNL     1      31.246  15.707  11.481  0.00  0.00    +0.145 HD
ENDBRANCH  14  21
ENDBRANCH   1  17
TORSDOF 2
ENDMDL
MODEL 9
REMARK VINA RESULT:      -5.9      2.497      3.172
REMARK  Name = ZINC000870248439
REMARK  2 active torsions:
REMARK  status: ('A' for Active; 'I' for Inactive)
REMARK    1  A    between atoms: C_2  and  C_4
REMARK    2  A    between atoms: C_7  and  C_8
REMARK                            x       y       z     vdW  Elec       q    Type
REMARK                         _______ _______ _______ _____ _____    ______ ____
ROOT
ATOM      1  C   UNL     1      32.229  17.679  12.760  0.00  0.00    +0.247 C 
ATOM      2  O   UNL     1      31.484  16.708  12.897  0.00  0.00    -0.270 OA
ATOM      3  N   UNL     1      33.301  17.702  11.859  0.00  0.00    -0.297 N 
ATOM      4  C   UNL     1      34.208  18.825  11.639  0.00  0.00    +0.108 C 
ATOM      5  C   UNL     1      34.496  19.093  10.176  0.00  0.00    +0.026 C 
ATOM      6  C   UNL     1      34.954  17.832   9.422  0.00  0.00    -0.025 C 
ATOM      7  C   UNL     1      34.993  18.182   7.917  0.00  0.00    +0.017 C 
ATOM      8  C   UNL     1      35.485  17.056   7.018  0.00  0.00    +0.069 C 
ATOM      9  S   UNL     1      37.171  16.523   7.431  0.00  0.00    -0.161 S 
ATOM     10  C   UNL     1      36.967  16.232   9.208  0.00  0.00    +0.069 C 
ATOM     11  C   UNL     1      36.377  17.448   9.905  0.00  0.00    +0.017 C 
ATOM     12  C   UNL     1      33.905  16.717   9.693  0.00  0.00    +0.026 C 
ATOM     13  C   UNL     1      33.670  16.464  11.182  0.00  0.00    +0.108 C 
ENDROOT
BRANCH   1  17
ATOM     14  C   UNL     1      31.178  20.974  15.266  0.00  0.00    +0.037 A 
ATOM     15  C   UNL     1      30.448  20.740  14.100  0.00  0.00    +0.014 A 
ATOM     16  C   UNL     1      30.858  19.743  13.224  0.00  0.00    +0.014 A 
ATOM     17  C   UNL     1      31.926  18.898  13.555  0.00  0.00    +0.037 A 
ATOM     18  C   UNL     1      32.698  19.174  14.688  0.00  0.00    +0.014 A 
ATOM     19  C   UNL     1      32.329  20.221  15.537  0.00  0.00    +0.014 A 
BRANCH  14  21
ATOM     20  N   UNL     1      30.897  23.327  15.795  0.00  0.00    -0.325 N 
ATOM     21  C   UNL     1      30.748  22.030  16.211  0.00  0.00    +0.242 C 
ATOM     22  O   UNL     1      30.258  21.755  17.298  0.00  0.00    -0.270 OA
ATOM     23  H   UNL     1      30.509  24.032  16.416  0.00  0.00    +0.145 HD
ATOM     24  H   UNL     1      31.033  23.576  14.830  0.00  0.00    +0.145 HD
ENDBRANCH  14  21
ENDBRANCH   1  17
TORSDOF 2
ENDMDL
