MODEL 1
REMARK VINA RESULT:      -6.9      0.000      0.000
REMARK  Name = ZINC000583127796
REMARK  2 active torsions:
REMARK  status: ('A' for Active; 'I' for Inactive)
REMARK    1  A    between atoms: C_2  and  C_4
REMARK    2  A    between atoms: C_7  and  C_8
REMARK                            x       y       z     vdW  Elec       q    Type
REMARK                         _______ _______ _______ _____ _____    ______ ____
ROOT
ATOM      1  C   UNL     1      30.273  17.285  14.120  0.00  0.00    +0.247 C 
ATOM      2  O   UNL     1      29.760  16.434  13.396  0.00  0.00    -0.270 OA
ATOM      3  N   UNL     1      31.651  17.323  14.389  0.00  0.00    -0.297 N 
ATOM      4  C   UNL     1      32.348  18.300  15.229  0.00  0.00    +0.108 C 
ATOM      5  C   UNL     1      33.489  18.983  14.498  0.00  0.00    +0.020 C 
ATOM      6  C   UNL     1      34.412  17.974  13.839  0.00  0.00    +0.011 C 
ATOM      7  C   UNL     1      33.657  16.962  12.941  0.00  0.00    -0.004 C 
ATOM      8  C   UNL     1      34.696  15.931  12.452  0.00  0.00    +0.020 C 
ATOM      9  C   UNL     1      34.219  15.292  11.165  0.00  0.00    +0.070 C 
ATOM     10  S   UNL     1      33.506  16.659  10.236  0.00  0.00    -0.160 S 
ATOM     11  C   UNL     1      33.068  17.653  11.689  0.00  0.00    +0.077 C 
ATOM     12  C   UNL     1      32.521  16.307  13.775  0.00  0.00    +0.115 C 
ENDROOT
BRANCH   1  16
ATOM     13  C   UNL     1      27.992  20.465  15.849  0.00  0.00    +0.037 A 
ATOM     14  C   UNL     1      27.586  19.142  16.057  0.00  0.00    +0.014 A 
ATOM     15  C   UNL     1      28.250  18.100  15.405  0.00  0.00    +0.014 A 
ATOM     16  C   UNL     1      29.382  18.366  14.629  0.00  0.00    +0.037 A 
ATOM     17  C   UNL     1      29.722  19.695  14.340  0.00  0.00    +0.014 A 
ATOM     18  C   UNL     1      29.019  20.743  14.940  0.00  0.00    +0.014 A 
BRANCH  13  20
ATOM     19  N   UNL     1      28.177  22.391  17.322  0.00  0.00    -0.325 N 
ATOM     20  C   UNL     1      27.354  21.590  16.580  0.00  0.00    +0.242 C 
ATOM     21  O   UNL     1      26.159  21.819  16.480  0.00  0.00    -0.270 OA
ATOM     22  H   UNL     1      27.749  23.225  17.707  0.00  0.00    +0.145 HD
ATOM     23  H   UNL     1      29.179  22.396  17.198  0.00  0.00    +0.145 HD
ENDBRANCH  13  20
ENDBRANCH   1  16
TORSDOF 2
ENDMDL
MODEL 2
REMARK VINA RESULT:      -6.7      1.323      1.739
REMARK  Name = ZINC000583127796
REMARK  2 active torsions:
REMARK  status: ('A' for Active; 'I' for Inactive)
REMARK    1  A    between atoms: C_2  and  C_4
REMARK    2  A    between atoms: C_7  and  C_8
REMARK                            x       y       z     vdW  Elec       q    Type
REMARK                         _______ _______ _______ _____ _____    ______ ____
ROOT
ATOM      1  C   UNL     1      30.842  16.687  13.751  0.00  0.00    +0.247 C 
ATOM      2  O   UNL     1      30.366  16.113  12.773  0.00  0.00    -0.270 OA
ATOM      3  N   UNL     1      32.211  16.643  14.063  0.00  0.00    -0.297 N 
ATOM      4  C   UNL     1      32.867  17.298  15.198  0.00  0.00    +0.108 C 
ATOM      5  C   UNL     1      34.019  18.188  14.766  0.00  0.00    +0.020 C 
ATOM      6  C   UNL     1      34.977  17.452  13.847  0.00  0.00    +0.011 C 
ATOM      7  C   UNL     1      34.265  16.782  12.645  0.00  0.00    -0.004 C 
ATOM      8  C   UNL     1      35.335  15.971  11.883  0.00  0.00    +0.020 C 
ATOM      9  C   UNL     1      34.907  15.782  10.444  0.00  0.00    +0.070 C 
ATOM     10  S   UNL     1      34.200  17.372   9.984  0.00  0.00    -0.160 S 
ATOM     11  C   UNL     1      33.703  17.839  11.666  0.00  0.00    +0.077 C 
ATOM     12  C   UNL     1      33.116  15.886  13.183  0.00  0.00    +0.115 C 
ENDROOT
BRANCH   1  16
ATOM     13  C   UNL     1      27.906  19.011  15.818  0.00  0.00    +0.037 A 
ATOM     14  C   UNL     1      28.842  19.660  15.007  0.00  0.00    +0.014 A 
ATOM     15  C   UNL     1      29.878  18.930  14.418  0.00  0.00    +0.014 A 
ATOM     16  C   UNL     1      29.920  17.539  14.552  0.00  0.00    +0.037 A 
ATOM     17  C   UNL     1      29.045  16.906  15.447  0.00  0.00    +0.014 A 
ATOM     18  C   UNL     1      28.047  17.645  16.089  0.00  0.00    +0.014 A 
BRANCH  13  20
ATOM     19  N   UNL     1      25.871  19.016  17.150  0.00  0.00    -0.325 N 
ATOM     20  C   UNL     1      26.753  19.744  16.402  0.00  0.00    +0.242 C 
ATOM     21  O   UNL     1      26.629  20.952  16.264  0.00  0.00    -0.270 OA
ATOM     22  H   UNL     1      25.167  19.549  17.645  0.00  0.00    +0.145 HD
ATOM     23  H   UNL     1      26.097  18.098  17.507  0.00  0.00    +0.145 HD
ENDBRANCH  13  20
ENDBRANCH   1  16
TORSDOF 2
ENDMDL
MODEL 3
REMARK VINA RESULT:      -6.5      4.543      5.505
REMARK  Name = ZINC000583127796
REMARK  2 active torsions:
REMARK  status: ('A' for Active; 'I' for Inactive)
REMARK    1  A    between atoms: C_2  and  C_4
REMARK    2  A    between atoms: C_7  and  C_8
REMARK                            x       y       z     vdW  Elec       q    Type
REMARK                         _______ _______ _______ _____ _____    ______ ____
ROOT
ATOM      1  C   UNL     1      32.200  22.451  13.991  0.00  0.00    +0.247 C 
ATOM      2  O   UNL     1      33.082  21.641  14.271  0.00  0.00    -0.270 OA
ATOM      3  N   UNL     1      32.431  23.576  13.182  0.00  0.00    -0.297 N 
ATOM      4  C   UNL     1      31.444  24.586  12.792  0.00  0.00    +0.108 C 
ATOM      5  C   UNL     1      31.366  24.767  11.286  0.00  0.00    +0.020 C 
ATOM      6  C   UNL     1      32.739  24.986  10.680  0.00  0.00    +0.011 C 
ATOM      7  C   UNL     1      33.762  23.898  11.091  0.00  0.00    -0.004 C 
ATOM      8  C   UNL     1      35.129  24.323  10.513  0.00  0.00    +0.020 C 
ATOM      9  C   UNL     1      36.016  23.108  10.347  0.00  0.00    +0.070 C 
ATOM     10  S   UNL     1      34.906  21.837   9.721  0.00  0.00    -0.160 S 
ATOM     11  C   UNL     1      33.404  22.528  10.470  0.00  0.00    +0.077 C 
ATOM     12  C   UNL     1      33.782  23.794  12.641  0.00  0.00    +0.115 C 
ENDROOT
BRANCH   1  16
ATOM     13  C   UNL     1      28.402  21.340  15.617  0.00  0.00    +0.037 A 
ATOM     14  C   UNL     1      28.818  20.774  14.407  0.00  0.00    +0.014 A 
ATOM     15  C   UNL     1      30.001  21.212  13.805  0.00  0.00    +0.014 A 
ATOM     16  C   UNL     1      30.820  22.138  14.458  0.00  0.00    +0.037 A 
ATOM     17  C   UNL     1      30.351  22.778  15.614  0.00  0.00    +0.014 A 
ATOM     18  C   UNL     1      29.137  22.387  16.186  0.00  0.00    +0.014 A 
BRANCH  13  20
ATOM     19  N   UNL     1      27.220  19.565  16.784  0.00  0.00    -0.325 N 
ATOM     20  C   UNL     1      27.188  20.850  16.320  0.00  0.00    +0.242 C 
ATOM     21  O   UNL     1      26.229  21.579  16.519  0.00  0.00    -0.270 OA
ATOM     22  H   UNL     1      26.441  19.289  17.371  0.00  0.00    +0.145 HD
ATOM     23  H   UNL     1      28.082  19.048  16.881  0.00  0.00    +0.145 HD
ENDBRANCH  13  20
ENDBRANCH   1  16
TORSDOF 2
ENDMDL
MODEL 4
REMARK VINA RESULT:      -6.5      4.530      5.588
REMARK  Name = ZINC000583127796
REMARK  2 active torsions:
REMARK  status: ('A' for Active; 'I' for Inactive)
REMARK    1  A    between atoms: C_2  and  C_4
REMARK    2  A    between atoms: C_7  and  C_8
REMARK                            x       y       z     vdW  Elec       q    Type
REMARK                         _______ _______ _______ _____ _____    ______ ____
ROOT
ATOM      1  C   UNL     1      32.400  22.518  14.335  0.00  0.00    +0.247 C 
ATOM      2  O   UNL     1      33.398  21.831  14.548  0.00  0.00    -0.270 OA
ATOM      3  N   UNL     1      32.411  23.623  13.468  0.00  0.00    -0.297 N 
ATOM      4  C   UNL     1      31.275  24.491  13.149  0.00  0.00    +0.108 C 
ATOM      5  C   UNL     1      31.025  24.591  11.655  0.00  0.00    +0.020 C 
ATOM      6  C   UNL     1      32.294  24.942  10.900  0.00  0.00    +0.011 C 
ATOM      7  C   UNL     1      33.477  24.002  11.239  0.00  0.00    -0.004 C 
ATOM      8  C   UNL     1      34.718  24.557  10.507  0.00  0.00    +0.020 C 
ATOM      9  C   UNL     1      35.725  23.448  10.290  0.00  0.00    +0.070 C 
ATOM     10  S   UNL     1      34.720  22.028   9.828  0.00  0.00    -0.160 S 
ATOM     11  C   UNL     1      33.228  22.572  10.706  0.00  0.00    +0.077 C 
ATOM     12  C   UNL     1      33.665  23.973  12.781  0.00  0.00    +0.115 C 
ENDROOT
BRANCH   1  16
ATOM     13  C   UNL     1      28.546  21.420  15.830  0.00  0.00    +0.037 A 
ATOM     14  C   UNL     1      29.312  22.352  16.538  0.00  0.00    +0.014 A 
ATOM     15  C   UNL     1      30.618  22.635  16.128  0.00  0.00    +0.014 A 
ATOM     16  C   UNL     1      31.123  22.067  14.954  0.00  0.00    +0.037 A 
ATOM     17  C   UNL     1      30.394  21.058  14.308  0.00  0.00    +0.014 A 
ATOM     18  C   UNL     1      29.112  20.727  14.754  0.00  0.00    +0.014 A 
BRANCH  13  20
ATOM     19  N   UNL     1      26.728  19.843  16.180  0.00  0.00    -0.325 N 
ATOM     20  C   UNL     1      27.132  21.148  16.197  0.00  0.00    +0.242 C 
ATOM     21  O   UNL     1      26.381  22.045  16.548  0.00  0.00    -0.270 OA
ATOM     22  H   UNL     1      25.804  19.662  16.555  0.00  0.00    +0.145 HD
ATOM     23  H   UNL     1      27.386  19.076  16.170  0.00  0.00    +0.145 HD
ENDBRANCH  13  20
ENDBRANCH   1  16
TORSDOF 2
ENDMDL
MODEL 5
REMARK VINA RESULT:      -6.2      1.322      1.951
REMARK  Name = ZINC000583127796
REMARK  2 active torsions:
REMARK  status: ('A' for Active; 'I' for Inactive)
REMARK    1  A    between atoms: C_2  and  C_4
REMARK    2  A    between atoms: C_7  and  C_8
REMARK                            x       y       z     vdW  Elec       q    Type
REMARK                         _______ _______ _______ _____ _____    ______ ____
ROOT
ATOM      1  C   UNL     1      31.383  16.476  13.334  0.00  0.00    +0.247 C 
ATOM      2  O   UNL     1      30.789  15.850  12.458  0.00  0.00    -0.270 OA
ATOM      3  N   UNL     1      32.759  16.329  13.571  0.00  0.00    -0.297 N 
ATOM      4  C   UNL     1      33.549  17.035  14.583  0.00  0.00    +0.108 C 
ATOM      5  C   UNL     1      34.747  17.752  13.987  0.00  0.00    +0.020 C 
ATOM      6  C   UNL     1      35.567  16.829  13.105  0.00  0.00    +0.011 C 
ATOM      7  C   UNL     1      34.716  16.108  12.030  0.00  0.00    -0.004 C 
ATOM      8  C   UNL     1      35.651  15.115  11.306  0.00  0.00    +0.020 C 
ATOM      9  C   UNL     1      35.110  14.815   9.925  0.00  0.00    +0.070 C 
ATOM     10  S   UNL     1      34.525  16.408   9.328  0.00  0.00    -0.160 S 
ATOM     11  C   UNL     1      34.189  17.102  10.970  0.00  0.00    +0.077 C 
ATOM     12  C   UNL     1      33.528  15.394  12.732  0.00  0.00    +0.115 C 
ENDROOT
BRANCH   1  16
ATOM     13  C   UNL     1      28.887  19.415  15.188  0.00  0.00    +0.037 A 
ATOM     14  C   UNL     1      30.136  19.797  14.687  0.00  0.00    +0.014 A 
ATOM     15  C   UNL     1      31.011  18.831  14.184  0.00  0.00    +0.014 A 
ATOM     16  C   UNL     1      30.600  17.497  14.085  0.00  0.00    +0.037 A 
ATOM     17  C   UNL     1      29.394  17.101  14.680  0.00  0.00    +0.014 A 
ATOM     18  C   UNL     1      28.545  18.059  15.242  0.00  0.00    +0.014 A 
BRANCH  13  20
ATOM     19  N   UNL     1      28.297  21.733  15.625  0.00  0.00    -0.325 N 
ATOM     20  C   UNL     1      27.906  20.424  15.664  0.00  0.00    +0.242 C 
ATOM     21  O   UNL     1      26.784  20.102  16.023  0.00  0.00    -0.270 OA
ATOM     22  H   UNL     1      27.576  22.414  15.829  0.00  0.00    +0.145 HD
ATOM     23  H   UNL     1      29.090  22.042  15.081  0.00  0.00    +0.145 HD
ENDBRANCH  13  20
ENDBRANCH   1  16
TORSDOF 2
ENDMDL
MODEL 6
REMARK VINA RESULT:      -6.1      6.949      7.979
REMARK  Name = ZINC000583127796
REMARK  2 active torsions:
REMARK  status: ('A' for Active; 'I' for Inactive)
REMARK    1  A    between atoms: C_2  and  C_4
REMARK    2  A    between atoms: C_7  and  C_8
REMARK                            x       y       z     vdW  Elec       q    Type
REMARK                         _______ _______ _______ _____ _____    ______ ____
ROOT
ATOM      1  C   UNL     1      33.271  24.905   9.719  0.00  0.00    +0.247 C 
ATOM      2  O   UNL     1      33.683  26.053   9.565  0.00  0.00    -0.270 OA
ATOM      3  N   UNL     1      33.401  23.913   8.733  0.00  0.00    -0.297 N 
ATOM      4  C   UNL     1      32.949  22.523   8.830  0.00  0.00    +0.108 C 
ATOM      5  C   UNL     1      34.064  21.531   8.552  0.00  0.00    +0.020 C 
ATOM      6  C   UNL     1      34.784  21.851   7.255  0.00  0.00    +0.011 C 
ATOM      7  C   UNL     1      35.269  23.320   7.180  0.00  0.00    -0.004 C 
ATOM      8  C   UNL     1      35.856  23.530   5.768  0.00  0.00    +0.020 C 
ATOM      9  C   UNL     1      36.844  24.676   5.788  0.00  0.00    +0.070 C 
ATOM     10  S   UNL     1      37.745  24.451   7.330  0.00  0.00    -0.160 S 
ATOM     11  C   UNL     1      36.403  23.590   8.196  0.00  0.00    +0.077 C 
ATOM     12  C   UNL     1      34.062  24.258   7.464  0.00  0.00    +0.115 C 
ENDROOT
BRANCH   1  16
ATOM     13  C   UNL     1      31.639  23.543  13.432  0.00  0.00    +0.037 A 
ATOM     14  C   UNL     1      30.849  24.329  12.587  0.00  0.00    +0.014 A 
ATOM     15  C   UNL     1      31.403  24.878  11.427  0.00  0.00    +0.014 A 
ATOM     16  C   UNL     1      32.713  24.559  11.057  0.00  0.00    +0.037 A 
ATOM     17  C   UNL     1      33.532  23.859  11.954  0.00  0.00    +0.014 A 
ATOM     18  C   UNL     1      32.997  23.362  13.146  0.00  0.00    +0.014 A 
BRANCH  13  20
ATOM     19  N   UNL     1      29.904  23.413  15.130  0.00  0.00    -0.325 N 
ATOM     20  C   UNL     1      31.064  22.887  14.634  0.00  0.00    +0.242 C 
ATOM     21  O   UNL     1      31.575  21.891  15.124  0.00  0.00    -0.270 OA
ATOM     22  H   UNL     1      29.457  22.879  15.867  0.00  0.00    +0.145 HD
ATOM     23  H   UNL     1      29.323  24.040  14.592  0.00  0.00    +0.145 HD
ENDBRANCH  13  20
ENDBRANCH   1  16
TORSDOF 2
ENDMDL
MODEL 7
REMARK VINA RESULT:      -6.0      6.860      9.094
REMARK  Name = ZINC000583127796
REMARK  2 active torsions:
REMARK  status: ('A' for Active; 'I' for Inactive)
REMARK    1  A    between atoms: C_2  and  C_4
REMARK    2  A    between atoms: C_7  and  C_8
REMARK                            x       y       z     vdW  Elec       q    Type
REMARK                         _______ _______ _______ _____ _____    ______ ____
ROOT
ATOM      1  C   UNL     1      32.286  24.532  11.199  0.00  0.00    +0.247 C 
ATOM      2  O   UNL     1      31.147  24.990  11.273  0.00  0.00    -0.270 OA
ATOM      3  N   UNL     1      32.963  23.999  12.308  0.00  0.00    -0.297 N 
ATOM      4  C   UNL     1      34.313  23.428  12.313  0.00  0.00    +0.108 C 
ATOM      5  C   UNL     1      34.343  22.021  12.882  0.00  0.00    +0.020 C 
ATOM      6  C   UNL     1      33.643  21.948  14.226  0.00  0.00    +0.011 C 
ATOM      7  C   UNL     1      32.212  22.539  14.194  0.00  0.00    -0.004 C 
ATOM      8  C   UNL     1      31.682  22.517  15.644  0.00  0.00    +0.020 C 
ATOM      9  C   UNL     1      30.169  22.510  15.637  0.00  0.00    +0.070 C 
ATOM     10  S   UNL     1      29.742  21.390  14.295  0.00  0.00    -0.160 S 
ATOM     11  C   UNL     1      31.262  21.666  13.342  0.00  0.00    +0.077 C 
ATOM     12  C   UNL     1      32.282  23.979  13.613  0.00  0.00    +0.115 C 
ENDROOT
BRANCH   1  16
ATOM     13  C   UNL     1      34.264  24.027   7.440  0.00  0.00    +0.037 A 
ATOM     14  C   UNL     1      34.584  25.132   8.236  0.00  0.00    +0.014 A 
ATOM     15  C   UNL     1      33.866  25.375   9.410  0.00  0.00    +0.014 A 
ATOM     16  C   UNL     1      32.901  24.461   9.844  0.00  0.00    +0.037 A 
ATOM     17  C   UNL     1      32.512  23.415   8.995  0.00  0.00    +0.014 A 
ATOM     18  C   UNL     1      33.185  23.206   7.788  0.00  0.00    +0.014 A 
BRANCH  13  20
ATOM     19  N   UNL     1      35.324  24.730   5.367  0.00  0.00    -0.325 N 
ATOM     20  C   UNL     1      35.053  23.700   6.223  0.00  0.00    +0.242 C 
ATOM     21  O   UNL     1      35.483  22.574   6.026  0.00  0.00    -0.270 OA
ATOM     22  H   UNL     1      35.969  24.519   4.614  0.00  0.00    +0.145 HD
ATOM     23  H   UNL     1      35.228  25.698   5.640  0.00  0.00    +0.145 HD
ENDBRANCH  13  20
ENDBRANCH   1  16
TORSDOF 2
ENDMDL
MODEL 8
REMARK VINA RESULT:      -5.8      6.460      8.074
REMARK  Name = ZINC000583127796
REMARK  2 active torsions:
REMARK  status: ('A' for Active; 'I' for Inactive)
REMARK    1  A    between atoms: C_2  and  C_4
REMARK    2  A    between atoms: C_7  and  C_8
REMARK                            x       y       z     vdW  Elec       q    Type
REMARK                         _______ _______ _______ _____ _____    ______ ____
ROOT
ATOM      1  C   UNL     1      33.181  23.645  18.526  0.00  0.00    +0.247 C 
ATOM      2  O   UNL     1      33.377  24.815  18.850  0.00  0.00    -0.270 OA
ATOM      3  N   UNL     1      34.052  22.603  18.886  0.00  0.00    -0.297 N 
ATOM      4  C   UNL     1      33.896  21.184  18.552  0.00  0.00    +0.108 C 
ATOM      5  C   UNL     1      33.933  20.294  19.782  0.00  0.00    +0.020 C 
ATOM      6  C   UNL     1      35.143  20.590  20.648  0.00  0.00    +0.011 C 
ATOM      7  C   UNL     1      35.278  22.091  21.004  0.00  0.00    -0.004 C 
ATOM      8  C   UNL     1      36.610  22.256  21.767  0.00  0.00    +0.020 C 
ATOM      9  C   UNL     1      36.555  23.495  22.634  0.00  0.00    +0.070 C 
ATOM     10  S   UNL     1      34.891  23.476  23.320  0.00  0.00    -0.160 S 
ATOM     11  C   UNL     1      34.144  22.548  21.951  0.00  0.00    +0.077 C 
ATOM     12  C   UNL     1      35.244  22.919  19.689  0.00  0.00    +0.115 C 
ENDROOT
BRANCH   1  16
ATOM     13  C   UNL     1      29.529  22.428  16.662  0.00  0.00    +0.037 A 
ATOM     14  C   UNL     1      30.694  22.509  15.892  0.00  0.00    +0.014 A 
ATOM     15  C   UNL     1      31.868  23.014  16.457  0.00  0.00    +0.014 A 
ATOM     16  C   UNL     1      31.908  23.343  17.815  0.00  0.00    +0.037 A 
ATOM     17  C   UNL     1      30.717  23.360  18.555  0.00  0.00    +0.014 A 
ATOM     18  C   UNL     1      29.526  22.914  17.974  0.00  0.00    +0.014 A 
BRANCH  13  20
ATOM     19  N   UNL     1      27.113  22.162  16.736  0.00  0.00    -0.325 N 
ATOM     20  C   UNL     1      28.284  21.830  16.114  0.00  0.00    +0.242 C 
ATOM     21  O   UNL     1      28.301  21.118  15.122  0.00  0.00    -0.270 OA
ATOM     22  H   UNL     1      26.265  21.852  16.275  0.00  0.00    +0.145 HD
ATOM     23  H   UNL     1      27.040  22.951  17.363  0.00  0.00    +0.145 HD
ENDBRANCH  13  20
ENDBRANCH   1  16
TORSDOF 2
ENDMDL
MODEL 9
REMARK VINA RESULT:      -5.8      4.229      5.439
REMARK  Name = ZINC000583127796
REMARK  2 active torsions:
REMARK  status: ('A' for Active; 'I' for Inactive)
REMARK    1  A    between atoms: C_2  and  C_4
REMARK    2  A    between atoms: C_7  and  C_8
REMARK                            x       y       z     vdW  Elec       q    Type
REMARK                         _______ _______ _______ _____ _____    ______ ____
ROOT
ATOM      1  C   UNL     1      32.689  20.501  12.952  0.00  0.00    +0.247 C 
ATOM      2  O   UNL     1      32.755  20.207  11.760  0.00  0.00    -0.270 OA
ATOM      3  N   UNL     1      33.505  21.483  13.537  0.00  0.00    -0.297 N 
ATOM      4  C   UNL     1      33.492  21.904  14.941  0.00  0.00    +0.108 C 
ATOM      5  C   UNL     1      33.297  23.402  15.094  0.00  0.00    +0.020 C 
ATOM      6  C   UNL     1      34.272  24.181  14.231  0.00  0.00    +0.011 C 
ATOM      7  C   UNL     1      34.257  23.734  12.748  0.00  0.00    -0.004 C 
ATOM      8  C   UNL     1      35.379  24.514  12.030  0.00  0.00    +0.020 C 
ATOM      9  C   UNL     1      35.077  24.600  10.550  0.00  0.00    +0.070 C 
ATOM     10  S   UNL     1      33.306  24.911  10.481  0.00  0.00    -0.160 S 
ATOM     11  C   UNL     1      32.922  24.108  12.062  0.00  0.00    +0.077 C 
ATOM     12  C   UNL     1      34.475  22.196  12.690  0.00  0.00    +0.115 C 
ENDROOT
BRANCH   1  16
ATOM     13  C   UNL     1      29.512  18.426  14.928  0.00  0.00    +0.037 A 
ATOM     14  C   UNL     1      29.371  19.791  14.656  0.00  0.00    +0.014 A 
ATOM     15  C   UNL     1      30.442  20.509  14.117  0.00  0.00    +0.014 A 
ATOM     16  C   UNL     1      31.618  19.845  13.754  0.00  0.00    +0.037 A 
ATOM     17  C   UNL     1      31.795  18.504  14.122  0.00  0.00    +0.014 A 
ATOM     18  C   UNL     1      30.746  17.799  14.720  0.00  0.00    +0.014 A 
BRANCH  13  20
ATOM     19  N   UNL     1      28.508  16.260  15.389  0.00  0.00    -0.325 N 
ATOM     20  C   UNL     1      28.372  17.619  15.434  0.00  0.00    +0.242 C 
ATOM     21  O   UNL     1      27.382  18.148  15.918  0.00  0.00    -0.270 OA
ATOM     22  H   UNL     1      27.781  15.729  15.854  0.00  0.00    +0.145 HD
ATOM     23  H   UNL     1      29.404  15.812  15.262  0.00  0.00    +0.145 HD
ENDBRANCH  13  20
ENDBRANCH   1  16
TORSDOF 2
ENDMDL
