MODEL 1
REMARK VINA RESULT:      -6.9      0.000      0.000
REMARK  Name = ZINC000826139982
REMARK  4 active torsions:
REMARK  status: ('A' for Active; 'I' for Inactive)
REMARK    1  A    between atoms: C_2  and  C_4
REMARK    2  A    between atoms: C_8  and  C_10
REMARK    3  A    between atoms: C_14  and  S_15
REMARK    4  A    between atoms: S_15  and  C_16
REMARK                            x       y       z     vdW  Elec       q    Type
REMARK                         _______ _______ _______ _____ _____    ______ ____
ROOT
ATOM      1  C   UNL     1      13.580   4.485  14.682  0.00  0.00    +0.093 C 
ATOM      2  C   UNL     1      12.333   5.375  14.626  0.00  0.00    +0.033 C 
ATOM      3  C   UNL     1      11.820   5.262  13.197  0.00  0.00    +0.109 C 
ATOM      4  N   UNL     1      13.002   4.959  12.418  0.00  0.00    -0.297 N 
ATOM      5  C   UNL     1      13.087   5.285  11.070  0.00  0.00    +0.247 C 
ATOM      6  O   UNL     1      12.196   5.918  10.505  0.00  0.00    -0.270 OA
ATOM      7  C   UNL     1      13.926   4.183  13.230  0.00  0.00    +0.120 C 
ENDROOT
BRANCH   5   8
ATOM      8  C   UNL     1      14.308   4.940  10.270  0.00  0.00    +0.038 A 
ATOM      9  C   UNL     1      15.389   5.810  10.096  0.00  0.00    +0.013 A 
ATOM     10  C   UNL     1      16.442   5.486   9.242  0.00  0.00    +0.002 A 
ATOM     11  C   UNL     1      16.479   4.238   8.630  0.00  0.00    +0.015 A 
ATOM     12  C   UNL     1      15.481   3.296   8.897  0.00  0.00    +0.017 A 
ATOM     13  C   UNL     1      14.382   3.663   9.686  0.00  0.00    +0.028 A 
BRANCH  12  14
ATOM     14  S   UNL     1      15.574   1.655   8.213  0.00  0.00    -0.016 S 
BRANCH  14  15
ATOM     15  C   UNL     1      14.393   1.775   6.853  0.00  0.00    +0.448 C 
ATOM     16  F   UNL     1      14.693   0.992   5.790  0.00  0.00    -0.160 F 
ATOM     17  F   UNL     1      13.149   1.429   7.262  0.00  0.00    -0.160 F 
ATOM     18  F   UNL     1      14.321   3.050   6.395  0.00  0.00    -0.160 F 
ENDBRANCH  14  15
ENDBRANCH  12  14
ENDBRANCH   5   8
BRANCH   1  20
ATOM     19  N   UNL     1      12.899   3.412  16.752  0.00  0.00    -0.329 N 
ATOM     20  C   UNL     1      13.412   3.221  15.504  0.00  0.00    +0.215 C 
ATOM     21  O   UNL     1      13.754   2.104  15.144  0.00  0.00    -0.276 OA
ATOM     22  H   UNL     1      12.834   2.604  17.359  0.00  0.00    +0.145 HD
ATOM     23  H   UNL     1      12.667   4.321  17.127  0.00  0.00    +0.145 HD
ENDBRANCH   1  20
TORSDOF 4
ENDMDL
MODEL 2
REMARK VINA RESULT:      -6.8      4.987      6.630
REMARK  Name = ZINC000826139982
REMARK  4 active torsions:
REMARK  status: ('A' for Active; 'I' for Inactive)
REMARK    1  A    between atoms: C_2  and  C_4
REMARK    2  A    between atoms: C_8  and  C_10
REMARK    3  A    between atoms: C_14  and  S_15
REMARK    4  A    between atoms: S_15  and  C_16
REMARK                            x       y       z     vdW  Elec       q    Type
REMARK                         _______ _______ _______ _____ _____    ______ ____
ROOT
ATOM      1  C   UNL     1      16.088   1.849   8.445  0.00  0.00    +0.093 C 
ATOM      2  C   UNL     1      15.604   0.798   7.440  0.00  0.00    +0.033 C 
ATOM      3  C   UNL     1      15.043   1.589   6.265  0.00  0.00    +0.109 C 
ATOM      4  N   UNL     1      14.616   2.842   6.852  0.00  0.00    -0.297 N 
ATOM      5  C   UNL     1      13.611   3.608   6.277  0.00  0.00    +0.247 C 
ATOM      6  O   UNL     1      12.986   3.214   5.292  0.00  0.00    -0.270 OA
ATOM      7  C   UNL     1      15.482   3.166   7.974  0.00  0.00    +0.120 C 
ENDROOT
BRANCH   5   8
ATOM      8  C   UNL     1      13.199   4.918   6.882  0.00  0.00    +0.038 A 
ATOM      9  C   UNL     1      13.785   6.142   6.544  0.00  0.00    +0.013 A 
ATOM     10  C   UNL     1      13.450   7.311   7.226  0.00  0.00    +0.002 A 
ATOM     11  C   UNL     1      12.444   7.289   8.186  0.00  0.00    +0.015 A 
ATOM     12  C   UNL     1      11.746   6.106   8.443  0.00  0.00    +0.017 A 
ATOM     13  C   UNL     1      12.150   4.918   7.817  0.00  0.00    +0.028 A 
BRANCH  12  14
ATOM     14  S   UNL     1      10.379   6.086   9.585  0.00  0.00    -0.016 S 
BRANCH  14  15
ATOM     15  C   UNL     1      11.246   6.003  11.167  0.00  0.00    +0.448 C 
ATOM     16  F   UNL     1      12.394   5.286  11.130  0.00  0.00    -0.160 F 
ATOM     17  F   UNL     1      11.567   7.243  11.607  0.00  0.00    -0.160 F 
ATOM     18  F   UNL     1      10.458   5.435  12.113  0.00  0.00    -0.160 F 
ENDBRANCH  14  15
ENDBRANCH  12  14
ENDBRANCH   5   8
BRANCH   1  20
ATOM     19  N   UNL     1      18.183   0.829   9.131  0.00  0.00    -0.329 N 
ATOM     20  C   UNL     1      17.596   1.933   8.586  0.00  0.00    +0.215 C 
ATOM     21  O   UNL     1      18.270   2.913   8.308  0.00  0.00    -0.276 OA
ATOM     22  H   UNL     1      19.179   0.869   9.307  0.00  0.00    +0.145 HD
ATOM     23  H   UNL     1      17.666   0.020   9.445  0.00  0.00    +0.145 HD
ENDBRANCH   1  20
TORSDOF 4
ENDMDL
MODEL 3
REMARK VINA RESULT:      -6.7      1.858      2.158
REMARK  Name = ZINC000826139982
REMARK  4 active torsions:
REMARK  status: ('A' for Active; 'I' for Inactive)
REMARK    1  A    between atoms: C_2  and  C_4
REMARK    2  A    between atoms: C_8  and  C_10
REMARK    3  A    between atoms: C_14  and  S_15
REMARK    4  A    between atoms: S_15  and  C_16
REMARK                            x       y       z     vdW  Elec       q    Type
REMARK                         _______ _______ _______ _____ _____    ______ ____
ROOT
ATOM      1  C   UNL     1      13.328   4.837  14.343  0.00  0.00    +0.093 C 
ATOM      2  C   UNL     1      11.946   5.329  14.789  0.00  0.00    +0.033 C 
ATOM      3  C   UNL     1      11.052   5.191  13.564  0.00  0.00    +0.109 C 
ATOM      4  N   UNL     1      11.963   5.308  12.444  0.00  0.00    -0.297 N 
ATOM      5  C   UNL     1      11.533   5.754  11.201  0.00  0.00    +0.247 C 
ATOM      6  O   UNL     1      10.380   6.146  11.023  0.00  0.00    -0.270 OA
ATOM      7  C   UNL     1      13.260   4.768  12.823  0.00  0.00    +0.120 C 
ENDROOT
BRANCH   5   8
ATOM      8  C   UNL     1      12.484   5.843  10.044  0.00  0.00    +0.038 A 
ATOM      9  C   UNL     1      13.069   7.038   9.616  0.00  0.00    +0.013 A 
ATOM     10  C   UNL     1      13.846   7.084   8.460  0.00  0.00    +0.002 A 
ATOM     11  C   UNL     1      14.137   5.911   7.773  0.00  0.00    +0.015 A 
ATOM     12  C   UNL     1      13.680   4.682   8.259  0.00  0.00    +0.017 A 
ATOM     13  C   UNL     1      12.825   4.657   9.371  0.00  0.00    +0.028 A 
BRANCH  12  14
ATOM     14  S   UNL     1      14.137   3.159   7.458  0.00  0.00    -0.016 S 
BRANCH  14  15
ATOM     15  C   UNL     1      15.300   2.469   8.654  0.00  0.00    +0.448 C 
ATOM     16  F   UNL     1      14.709   1.877   9.719  0.00  0.00    -0.160 F 
ATOM     17  F   UNL     1      16.095   1.539   8.073  0.00  0.00    -0.160 F 
ATOM     18  F   UNL     1      16.112   3.439   9.143  0.00  0.00    -0.160 F 
ENDBRANCH  14  15
ENDBRANCH  12  14
ENDBRANCH   5   8
BRANCH   1  20
ATOM     19  N   UNL     1      13.010   3.119  16.031  0.00  0.00    -0.329 N 
ATOM     20  C   UNL     1      13.750   3.515  14.956  0.00  0.00    +0.215 C 
ATOM     21  O   UNL     1      14.709   2.852  14.592  0.00  0.00    -0.276 OA
ATOM     22  H   UNL     1      13.301   2.278  16.513  0.00  0.00    +0.145 HD
ATOM     23  H   UNL     1      12.252   3.664  16.418  0.00  0.00    +0.145 HD
ENDBRANCH   1  20
TORSDOF 4
ENDMDL
MODEL 4
REMARK VINA RESULT:      -6.6      4.688      6.294
REMARK  Name = ZINC000826139982
REMARK  4 active torsions:
REMARK  status: ('A' for Active; 'I' for Inactive)
REMARK    1  A    between atoms: C_2  and  C_4
REMARK    2  A    between atoms: C_8  and  C_10
REMARK    3  A    between atoms: C_14  and  S_15
REMARK    4  A    between atoms: S_15  and  C_16
REMARK                            x       y       z     vdW  Elec       q    Type
REMARK                         _______ _______ _______ _____ _____    ______ ____
ROOT
ATOM      1  C   UNL     1      17.442   3.037   8.084  0.00  0.00    +0.093 C 
ATOM      2  C   UNL     1      18.430   3.786   8.985  0.00  0.00    +0.033 C 
ATOM      3  C   UNL     1      17.573   4.682   9.869  0.00  0.00    +0.109 C 
ATOM      4  N   UNL     1      16.386   4.930   9.078  0.00  0.00    -0.297 N 
ATOM      5  C   UNL     1      15.616   6.072   9.262  0.00  0.00    +0.247 C 
ATOM      6  O   UNL     1      15.957   6.957  10.046  0.00  0.00    -0.270 OA
ATOM      7  C   UNL     1      16.117   3.773   8.240  0.00  0.00    +0.120 C 
ENDROOT
BRANCH   5   8
ATOM      8  C   UNL     1      14.373   6.301   8.453  0.00  0.00    +0.038 A 
ATOM      9  C   UNL     1      14.387   6.721   7.120  0.00  0.00    +0.013 A 
ATOM     10  C   UNL     1      13.204   7.038   6.454  0.00  0.00    +0.002 A 
ATOM     11  C   UNL     1      11.980   6.837   7.083  0.00  0.00    +0.015 A 
ATOM     12  C   UNL     1      11.933   6.286   8.367  0.00  0.00    +0.017 A 
ATOM     13  C   UNL     1      13.130   6.055   9.060  0.00  0.00    +0.028 A 
BRANCH  12  14
ATOM     14  S   UNL     1      10.373   5.915   9.142  0.00  0.00    -0.016 S 
BRANCH  14  15
ATOM     15  C   UNL     1      10.813   6.033  10.888  0.00  0.00    +0.448 C 
ATOM     16  F   UNL     1       9.752   5.987  11.729  0.00  0.00    -0.160 F 
ATOM     17  F   UNL     1      11.645   5.026  11.245  0.00  0.00    -0.160 F 
ATOM     18  F   UNL     1      11.464   7.196  11.139  0.00  0.00    -0.160 F 
ENDBRANCH  14  15
ENDBRANCH  12  14
ENDBRANCH   5   8
BRANCH   1  20
ATOM     19  N   UNL     1      18.472   0.946   8.766  0.00  0.00    -0.329 N 
ATOM     20  C   UNL     1      17.313   1.557   8.389  0.00  0.00    +0.215 C 
ATOM     21  O   UNL     1      16.287   0.905   8.262  0.00  0.00    -0.276 OA
ATOM     22  H   UNL     1      18.445  -0.056   8.912  0.00  0.00    +0.145 HD
ATOM     23  H   UNL     1      19.361   1.421   8.818  0.00  0.00    +0.145 HD
ENDBRANCH   1  20
TORSDOF 4
ENDMDL
MODEL 5
REMARK VINA RESULT:      -6.6      2.977      3.335
REMARK  Name = ZINC000826139982
REMARK  4 active torsions:
REMARK  status: ('A' for Active; 'I' for Inactive)
REMARK    1  A    between atoms: C_2  and  C_4
REMARK    2  A    between atoms: C_8  and  C_10
REMARK    3  A    between atoms: C_14  and  S_15
REMARK    4  A    between atoms: S_15  and  C_16
REMARK                            x       y       z     vdW  Elec       q    Type
REMARK                         _______ _______ _______ _____ _____    ______ ____
ROOT
ATOM      1  C   UNL     1      13.299   4.832  14.382  0.00  0.00    +0.093 C 
ATOM      2  C   UNL     1      11.867   5.263  14.719  0.00  0.00    +0.033 C 
ATOM      3  C   UNL     1      11.103   5.192  13.404  0.00  0.00    +0.109 C 
ATOM      4  N   UNL     1      12.116   5.405  12.392  0.00  0.00    -0.297 N 
ATOM      5  C   UNL     1      11.799   5.928  11.145  0.00  0.00    +0.247 C 
ATOM      6  O   UNL     1      10.659   6.308  10.879  0.00  0.00    -0.270 OA
ATOM      7  C   UNL     1      13.383   4.868  12.861  0.00  0.00    +0.120 C 
ENDROOT
BRANCH   5   8
ATOM      8  C   UNL     1      12.856   6.117  10.097  0.00  0.00    +0.038 A 
ATOM      9  C   UNL     1      12.811   7.125   9.129  0.00  0.00    +0.013 A 
ATOM     10  C   UNL     1      13.755   7.179   8.104  0.00  0.00    +0.002 A 
ATOM     11  C   UNL     1      14.822   6.286   8.096  0.00  0.00    +0.015 A 
ATOM     12  C   UNL     1      14.966   5.358   9.132  0.00  0.00    +0.017 A 
ATOM     13  C   UNL     1      13.965   5.253  10.107  0.00  0.00    +0.028 A 
BRANCH  12  14
ATOM     14  S   UNL     1      16.386   4.284   9.199  0.00  0.00    -0.016 S 
BRANCH  14  15
ATOM     15  C   UNL     1      17.547   5.298  10.138  0.00  0.00    +0.448 C 
ATOM     16  F   UNL     1      17.948   4.740  11.305  0.00  0.00    -0.160 F 
ATOM     17  F   UNL     1      18.665   5.548   9.414  0.00  0.00    -0.160 F 
ATOM     18  F   UNL     1      16.994   6.497  10.444  0.00  0.00    -0.160 F 
ENDBRANCH  14  15
ENDBRANCH  12  14
ENDBRANCH   5   8
BRANCH   1  20
ATOM     19  N   UNL     1      12.957   3.065  16.014  0.00  0.00    -0.329 N 
ATOM     20  C   UNL     1      13.694   3.479  14.945  0.00  0.00    +0.215 C 
ATOM     21  O   UNL     1      14.633   2.806  14.546  0.00  0.00    -0.276 OA
ATOM     22  H   UNL     1      13.233   2.200  16.464  0.00  0.00    +0.145 HD
ATOM     23  H   UNL     1      12.218   3.615  16.429  0.00  0.00    +0.145 HD
ENDBRANCH   1  20
TORSDOF 4
ENDMDL
MODEL 6
REMARK VINA RESULT:      -6.5      4.771      7.091
REMARK  Name = ZINC000826139982
REMARK  4 active torsions:
REMARK  status: ('A' for Active; 'I' for Inactive)
REMARK    1  A    between atoms: C_2  and  C_4
REMARK    2  A    between atoms: C_8  and  C_10
REMARK    3  A    between atoms: C_14  and  S_15
REMARK    4  A    between atoms: S_15  and  C_16
REMARK                            x       y       z     vdW  Elec       q    Type
REMARK                         _______ _______ _______ _____ _____    ______ ____
ROOT
ATOM      1  C   UNL     1      15.217   3.473   5.722  0.00  0.00    +0.093 C 
ATOM      2  C   UNL     1      15.570   4.407   4.559  0.00  0.00    +0.033 C 
ATOM      3  C   UNL     1      15.214   5.807   5.042  0.00  0.00    +0.109 C 
ATOM      4  N   UNL     1      14.160   5.592   6.011  0.00  0.00    -0.297 N 
ATOM      5  C   UNL     1      13.220   6.575   6.293  0.00  0.00    +0.247 C 
ATOM      6  O   UNL     1      13.194   7.636   5.670  0.00  0.00    -0.270 OA
ATOM      7  C   UNL     1      14.369   4.312   6.670  0.00  0.00    +0.120 C 
ENDROOT
BRANCH   5   8
ATOM      8  C   UNL     1      12.150   6.346   7.320  0.00  0.00    +0.038 A 
ATOM      9  C   UNL     1      10.829   6.021   6.999  0.00  0.00    +0.013 A 
ATOM     10  C   UNL     1       9.849   5.941   7.987  0.00  0.00    +0.002 A 
ATOM     11  C   UNL     1      10.200   6.082   9.325  0.00  0.00    +0.015 A 
ATOM     12  C   UNL     1      11.538   6.269   9.682  0.00  0.00    +0.017 A 
ATOM     13  C   UNL     1      12.502   6.437   8.677  0.00  0.00    +0.028 A 
BRANCH  12  14
ATOM     14  S   UNL     1      12.022   6.337  11.395  0.00  0.00    -0.016 S 
BRANCH  14  15
ATOM     15  C   UNL     1      13.289   5.053  11.453  0.00  0.00    +0.448 C 
ATOM     16  F   UNL     1      14.507   5.460  11.025  0.00  0.00    -0.160 F 
ATOM     17  F   UNL     1      13.447   4.588  12.715  0.00  0.00    -0.160 F 
ATOM     18  F   UNL     1      12.932   3.997  10.681  0.00  0.00    -0.160 F 
ENDBRANCH  14  15
ENDBRANCH  12  14
ENDBRANCH   5   8
BRANCH   1  20
ATOM     19  N   UNL     1      16.680   3.369   7.659  0.00  0.00    -0.329 N 
ATOM     20  C   UNL     1      16.417   2.862   6.421  0.00  0.00    +0.215 C 
ATOM     21  O   UNL     1      17.158   2.024   5.929  0.00  0.00    -0.276 OA
ATOM     22  H   UNL     1      17.513   3.038   8.131  0.00  0.00    +0.145 HD
ATOM     23  H   UNL     1      16.144   4.112   8.082  0.00  0.00    +0.145 HD
ENDBRANCH   1  20
TORSDOF 4
ENDMDL
MODEL 7
REMARK VINA RESULT:      -6.4      3.048      3.890
REMARK  Name = ZINC000826139982
REMARK  4 active torsions:
REMARK  status: ('A' for Active; 'I' for Inactive)
REMARK    1  A    between atoms: C_2  and  C_4
REMARK    2  A    between atoms: C_8  and  C_10
REMARK    3  A    between atoms: C_14  and  S_15
REMARK    4  A    between atoms: S_15  and  C_16
REMARK                            x       y       z     vdW  Elec       q    Type
REMARK                         _______ _______ _______ _____ _____    ______ ____
ROOT
ATOM      1  C   UNL     1      13.203   5.679  10.910  0.00  0.00    +0.093 C 
ATOM      2  C   UNL     1      11.766   6.175  11.101  0.00  0.00    +0.033 C 
ATOM      3  C   UNL     1      10.993   5.646   9.901  0.00  0.00    +0.109 C 
ATOM      4  N   UNL     1      11.993   5.518   8.862  0.00  0.00    -0.297 N 
ATOM      5  C   UNL     1      11.655   5.579   7.516  0.00  0.00    +0.247 C 
ATOM      6  O   UNL     1      10.505   5.826   7.153  0.00  0.00    -0.270 OA
ATOM      7  C   UNL     1      13.275   5.194   9.468  0.00  0.00    +0.120 C 
ENDROOT
BRANCH   5   8
ATOM      8  C   UNL     1      12.699   5.416   6.451  0.00  0.00    +0.038 A 
ATOM      9  C   UNL     1      13.231   6.485   5.723  0.00  0.00    +0.013 A 
ATOM     10  C   UNL     1      14.108   6.265   4.661  0.00  0.00    +0.002 A 
ATOM     11  C   UNL     1      14.547   4.976   4.381  0.00  0.00    +0.015 A 
ATOM     12  C   UNL     1      14.139   3.906   5.182  0.00  0.00    +0.017 A 
ATOM     13  C   UNL     1      13.189   4.125   6.190  0.00  0.00    +0.028 A 
BRANCH  12  14
ATOM     14  S   UNL     1      14.780   2.268   4.909  0.00  0.00    -0.016 S 
BRANCH  14  15
ATOM     15  C   UNL     1      16.017   2.153   6.219  0.00  0.00    +0.448 C 
ATOM     16  F   UNL     1      16.988   1.239   5.983  0.00  0.00    -0.160 F 
ATOM     17  F   UNL     1      16.632   3.345   6.408  0.00  0.00    -0.160 F 
ATOM     18  F   UNL     1      15.435   1.814   7.396  0.00  0.00    -0.160 F 
ENDBRANCH  14  15
ENDBRANCH  12  14
ENDBRANCH   5   8
BRANCH   1  20
ATOM     19  N   UNL     1      14.294   3.551  11.340  0.00  0.00    -0.329 N 
ATOM     20  C   UNL     1      13.632   4.606  11.894  0.00  0.00    +0.215 C 
ATOM     21  O   UNL     1      13.372   4.610  13.088  0.00  0.00    -0.276 OA
ATOM     22  H   UNL     1      14.537   2.780  11.950  0.00  0.00    +0.145 HD
ATOM     23  H   UNL     1      14.472   3.462  10.350  0.00  0.00    +0.145 HD
ENDBRANCH   1  20
TORSDOF 4
ENDMDL
MODEL 8
REMARK VINA RESULT:      -6.4     21.027     22.313
REMARK  Name = ZINC000826139982
REMARK  4 active torsions:
REMARK  status: ('A' for Active; 'I' for Inactive)
REMARK    1  A    between atoms: C_2  and  C_4
REMARK    2  A    between atoms: C_8  and  C_10
REMARK    3  A    between atoms: C_14  and  S_15
REMARK    4  A    between atoms: S_15  and  C_16
REMARK                            x       y       z     vdW  Elec       q    Type
REMARK                         _______ _______ _______ _____ _____    ______ ____
ROOT
ATOM      1  C   UNL     1      29.611  21.070  17.459  0.00  0.00    +0.093 C 
ATOM      2  C   UNL     1      29.893  22.381  16.715  0.00  0.00    +0.033 C 
ATOM      3  C   UNL     1      29.988  21.999  15.244  0.00  0.00    +0.109 C 
ATOM      4  N   UNL     1      30.424  20.618  15.263  0.00  0.00    -0.297 N 
ATOM      5  C   UNL     1      31.121  20.061  14.197  0.00  0.00    +0.247 C 
ATOM      6  O   UNL     1      31.468  20.741  13.232  0.00  0.00    -0.270 OA
ATOM      7  C   UNL     1      29.897  19.964  16.450  0.00  0.00    +0.120 C 
ENDROOT
BRANCH   5   8
ATOM      8  C   UNL     1      31.541  18.621  14.220  0.00  0.00    +0.038 A 
ATOM      9  C   UNL     1      32.875  18.206  14.183  0.00  0.00    +0.013 A 
ATOM     10  C   UNL     1      33.205  16.856  14.081  0.00  0.00    +0.002 A 
ATOM     11  C   UNL     1      32.204  15.893  14.123  0.00  0.00    +0.015 A 
ATOM     12  C   UNL     1      30.871  16.275  14.301  0.00  0.00    +0.017 A 
ATOM     13  C   UNL     1      30.541  17.638  14.312  0.00  0.00    +0.028 A 
BRANCH  12  14
ATOM     14  S   UNL     1      29.588  15.051  14.471  0.00  0.00    -0.016 S 
BRANCH  14  15
ATOM     15  C   UNL     1      29.235  14.671  12.742  0.00  0.00    +0.448 C 
ATOM     16  F   UNL     1      28.186  13.833  12.565  0.00  0.00    -0.160 F 
ATOM     17  F   UNL     1      28.962  15.800  12.046  0.00  0.00    -0.160 F 
ATOM     18  F   UNL     1      30.309  14.089  12.153  0.00  0.00    -0.160 F 
ENDBRANCH  14  15
ENDBRANCH  12  14
ENDBRANCH   5   8
BRANCH   1  20
ATOM     19  N   UNL     1      27.468  19.930  17.558  0.00  0.00    -0.329 N 
ATOM     20  C   UNL     1      28.212  20.967  18.038  0.00  0.00    +0.215 C 
ATOM     21  O   UNL     1      27.723  21.762  18.827  0.00  0.00    -0.276 OA
ATOM     22  H   UNL     1      26.505  19.865  17.866  0.00  0.00    +0.145 HD
ATOM     23  H   UNL     1      27.797  19.287  16.852  0.00  0.00    +0.145 HD
ENDBRANCH   1  20
TORSDOF 4
ENDMDL
MODEL 9
REMARK VINA RESULT:      -6.3      3.451      4.508
REMARK  Name = ZINC000826139982
REMARK  4 active torsions:
REMARK  status: ('A' for Active; 'I' for Inactive)
REMARK    1  A    between atoms: C_2  and  C_4
REMARK    2  A    between atoms: C_8  and  C_10
REMARK    3  A    between atoms: C_14  and  S_15
REMARK    4  A    between atoms: S_15  and  C_16
REMARK                            x       y       z     vdW  Elec       q    Type
REMARK                         _______ _______ _______ _____ _____    ______ ____
ROOT
ATOM      1  C   UNL     1      11.733   5.917  10.926  0.00  0.00    +0.093 C 
ATOM      2  C   UNL     1      10.808   6.388   9.798  0.00  0.00    +0.033 C 
ATOM      3  C   UNL     1      10.732   5.221   8.823  0.00  0.00    +0.109 C 
ATOM      4  N   UNL     1      11.985   4.518   9.011  0.00  0.00    -0.297 N 
ATOM      5  C   UNL     1      12.542   3.744   8.001  0.00  0.00    +0.247 C 
ATOM      6  O   UNL     1      12.037   3.690   6.880  0.00  0.00    -0.270 OA
ATOM      7  C   UNL     1      12.412   4.661  10.394  0.00  0.00    +0.120 C 
ENDROOT
BRANCH   5   8
ATOM      8  C   UNL     1      13.826   3.000   8.221  0.00  0.00    +0.038 A 
ATOM      9  C   UNL     1      13.914   1.605   8.254  0.00  0.00    +0.013 A 
ATOM     10  C   UNL     1      15.109   0.968   8.585  0.00  0.00    +0.002 A 
ATOM     11  C   UNL     1      16.263   1.719   8.784  0.00  0.00    +0.015 A 
ATOM     12  C   UNL     1      16.233   3.107   8.619  0.00  0.00    +0.017 A 
ATOM     13  C   UNL     1      15.008   3.745   8.375  0.00  0.00    +0.028 A 
BRANCH  12  14
ATOM     14  S   UNL     1      17.723   4.072   8.757  0.00  0.00    -0.016 S 
BRANCH  14  15
ATOM     15  C   UNL     1      17.226   5.313   9.970  0.00  0.00    +0.448 C 
ATOM     16  F   UNL     1      18.262   5.908  10.607  0.00  0.00    -0.160 F 
ATOM     17  F   UNL     1      16.503   6.297   9.384  0.00  0.00    -0.160 F 
ATOM     18  F   UNL     1      16.441   4.758  10.926  0.00  0.00    -0.160 F 
ENDBRANCH  14  15
ENDBRANCH  12  14
ENDBRANCH   5   8
BRANCH   1  20
ATOM     19  N   UNL     1      11.858   5.359  13.287  0.00  0.00    -0.329 N 
ATOM     20  C   UNL     1      11.031   5.668  12.249  0.00  0.00    +0.215 C 
ATOM     21  O   UNL     1       9.819   5.671  12.407  0.00  0.00    -0.276 OA
ATOM     22  H   UNL     1      11.427   5.118  14.171  0.00  0.00    +0.145 HD
ATOM     23  H   UNL     1      12.860   5.273  13.196  0.00  0.00    +0.145 HD
ENDBRANCH   1  20
TORSDOF 4
ENDMDL
