MODEL 1
REMARK VINA RESULT:      -7.0      0.000      0.000
REMARK  Name = ZINC000870248439
REMARK  2 active torsions:
REMARK  status: ('A' for Active; 'I' for Inactive)
REMARK    1  A    between atoms: C_2  and  C_4
REMARK    2  A    between atoms: C_7  and  C_8
REMARK                            x       y       z     vdW  Elec       q    Type
REMARK                         _______ _______ _______ _____ _____    ______ ____
ROOT
ATOM      1  C   UNL     1      31.891  16.944  16.090  0.00  0.00    +0.247 C 
ATOM      2  O   UNL     1      32.731  16.232  16.642  0.00  0.00    -0.270 OA
ATOM      3  N   UNL     1      31.953  18.344  16.093  0.00  0.00    -0.297 N 
ATOM      4  C   UNL     1      31.000  19.241  15.446  0.00  0.00    +0.108 C 
ATOM      5  C   UNL     1      31.657  20.382  14.695  0.00  0.00    +0.026 C 
ATOM      6  C   UNL     1      32.673  21.151  15.558  0.00  0.00    -0.025 C 
ATOM      7  C   UNL     1      33.428  22.125  14.624  0.00  0.00    +0.017 C 
ATOM      8  C   UNL     1      34.443  23.016  15.327  0.00  0.00    +0.069 C 
ATOM      9  S   UNL     1      33.684  24.064  16.601  0.00  0.00    -0.161 S 
ATOM     10  C   UNL     1      32.796  22.795  17.542  0.00  0.00    +0.069 C 
ATOM     11  C   UNL     1      31.906  21.955  16.639  0.00  0.00    +0.017 C 
ATOM     12  C   UNL     1      33.655  20.110  16.165  0.00  0.00    +0.026 C 
ATOM     13  C   UNL     1      32.948  18.997  16.936  0.00  0.00    +0.108 C 
ENDROOT
BRANCH   1  17
ATOM     14  C   UNL     1      28.897  14.698  14.034  0.00  0.00    +0.037 A 
ATOM     15  C   UNL     1      29.972  15.224  13.316  0.00  0.00    +0.014 A 
ATOM     16  C   UNL     1      30.884  16.052  13.959  0.00  0.00    +0.014 A 
ATOM     17  C   UNL     1      30.799  16.270  15.340  0.00  0.00    +0.037 A 
ATOM     18  C   UNL     1      29.687  15.799  16.046  0.00  0.00    +0.014 A 
ATOM     19  C   UNL     1      28.729  15.022  15.387  0.00  0.00    +0.014 A 
BRANCH  14  21
ATOM     20  N   UNL     1      28.422  12.916  12.453  0.00  0.00    -0.325 N 
ATOM     21  C   UNL     1      27.920  13.810  13.362  0.00  0.00    +0.242 C 
ATOM     22  O   UNL     1      26.726  13.854  13.629  0.00  0.00    -0.270 OA
ATOM     23  H   UNL     1      27.750  12.253  12.076  0.00  0.00    +0.145 HD
ATOM     24  H   UNL     1      29.396  12.669  12.415  0.00  0.00    +0.145 HD
ENDBRANCH  14  21
ENDBRANCH   1  17
TORSDOF 2
ENDMDL
MODEL 2
REMARK VINA RESULT:      -6.8      3.474      4.931
REMARK  Name = ZINC000870248439
REMARK  2 active torsions:
REMARK  status: ('A' for Active; 'I' for Inactive)
REMARK    1  A    between atoms: C_2  and  C_4
REMARK    2  A    between atoms: C_7  and  C_8
REMARK                            x       y       z     vdW  Elec       q    Type
REMARK                         _______ _______ _______ _____ _____    ______ ____
ROOT
ATOM      1  C   UNL     1      31.802  17.074  15.994  0.00  0.00    +0.247 C 
ATOM      2  O   UNL     1      31.406  18.229  16.150  0.00  0.00    -0.270 OA
ATOM      3  N   UNL     1      33.052  16.625  16.442  0.00  0.00    -0.297 N 
ATOM      4  C   UNL     1      33.571  15.267  16.301  0.00  0.00    +0.108 C 
ATOM      5  C   UNL     1      34.244  14.745  17.555  0.00  0.00    +0.026 C 
ATOM      6  C   UNL     1      35.308  15.712  18.103  0.00  0.00    -0.025 C 
ATOM      7  C   UNL     1      35.748  15.179  19.486  0.00  0.00    +0.017 C 
ATOM      8  C   UNL     1      36.850  15.990  20.155  0.00  0.00    +0.069 C 
ATOM      9  S   UNL     1      38.367  16.054  19.160  0.00  0.00    -0.161 S 
ATOM     10  C   UNL     1      37.669  16.614  17.584  0.00  0.00    +0.069 C 
ATOM     11  C   UNL     1      36.521  15.721  17.138  0.00  0.00    +0.017 C 
ATOM     12  C   UNL     1      34.642  17.109  18.246  0.00  0.00    +0.026 C 
ATOM     13  C   UNL     1      34.004  17.605  16.950  0.00  0.00    +0.108 C 
ENDROOT
BRANCH   1  17
ATOM     14  C   UNL     1      28.941  14.572  14.046  0.00  0.00    +0.037 A 
ATOM     15  C   UNL     1      28.866  14.751  15.427  0.00  0.00    +0.014 A 
ATOM     16  C   UNL     1      29.861  15.467  16.080  0.00  0.00    +0.014 A 
ATOM     17  C   UNL     1      30.873  16.106  15.352  0.00  0.00    +0.037 A 
ATOM     18  C   UNL     1      30.988  15.872  13.978  0.00  0.00    +0.014 A 
ATOM     19  C   UNL     1      30.026  15.094  13.328  0.00  0.00    +0.014 A 
BRANCH  14  21
ATOM     20  N   UNL     1      28.300  12.884  12.421  0.00  0.00    -0.325 N 
ATOM     21  C   UNL     1      27.884  13.814  13.337  0.00  0.00    +0.242 C 
ATOM     22  O   UNL     1      26.697  13.990  13.581  0.00  0.00    -0.270 OA
ATOM     23  H   UNL     1      27.565  12.310  12.017  0.00  0.00    +0.145 HD
ATOM     24  H   UNL     1      29.241  12.528  12.397  0.00  0.00    +0.145 HD
ENDBRANCH  14  21
ENDBRANCH   1  17
TORSDOF 2
ENDMDL
MODEL 3
REMARK VINA RESULT:      -6.5      5.157      6.926
REMARK  Name = ZINC000870248439
REMARK  2 active torsions:
REMARK  status: ('A' for Active; 'I' for Inactive)
REMARK    1  A    between atoms: C_2  and  C_4
REMARK    2  A    between atoms: C_7  and  C_8
REMARK                            x       y       z     vdW  Elec       q    Type
REMARK                         _______ _______ _______ _____ _____    ______ ____
ROOT
ATOM      1  C   UNL     1      32.307  21.210  14.912  0.00  0.00    +0.247 C 
ATOM      2  O   UNL     1      32.904  20.157  15.136  0.00  0.00    -0.270 OA
ATOM      3  N   UNL     1      32.592  22.033  13.815  0.00  0.00    -0.297 N 
ATOM      4  C   UNL     1      31.912  23.283  13.486  0.00  0.00    +0.108 C 
ATOM      5  C   UNL     1      31.581  23.422  12.014  0.00  0.00    +0.026 C 
ATOM      6  C   UNL     1      32.800  23.178  11.106  0.00  0.00    -0.025 C 
ATOM      7  C   UNL     1      32.288  23.122   9.649  0.00  0.00    +0.017 C 
ATOM      8  C   UNL     1      33.379  22.943   8.602  0.00  0.00    +0.069 C 
ATOM      9  S   UNL     1      34.599  24.287   8.632  0.00  0.00    -0.161 S 
ATOM     10  C   UNL     1      35.029  24.263  10.392  0.00  0.00    +0.069 C 
ATOM     11  C   UNL     1      33.789  24.362  11.267  0.00  0.00    +0.017 C 
ATOM     12  C   UNL     1      33.423  21.814  11.516  0.00  0.00    +0.026 C 
ATOM     13  C   UNL     1      33.765  21.732  13.002  0.00  0.00    +0.108 C 
ENDROOT
BRANCH   1  17
ATOM     14  C   UNL     1      28.964  22.452  17.260  0.00  0.00    +0.037 A 
ATOM     15  C   UNL     1      30.168  23.148  17.362  0.00  0.00    +0.014 A 
ATOM     16  C   UNL     1      31.289  22.678  16.690  0.00  0.00    +0.014 A 
ATOM     17  C   UNL     1      31.194  21.581  15.824  0.00  0.00    +0.037 A 
ATOM     18  C   UNL     1      30.006  20.844  15.773  0.00  0.00    +0.014 A 
ATOM     19  C   UNL     1      28.894  21.275  16.503  0.00  0.00    +0.014 A 
BRANCH  14  21
ATOM     20  N   UNL     1      27.963  23.574  19.168  0.00  0.00    -0.325 N 
ATOM     21  C   UNL     1      27.759  22.945  17.968  0.00  0.00    +0.242 C 
ATOM     22  O   UNL     1      26.640  22.823  17.487  0.00  0.00    -0.270 OA
ATOM     23  H   UNL     1      27.136  23.988  19.590  0.00  0.00    +0.145 HD
ATOM     24  H   UNL     1      28.861  23.927  19.451  0.00  0.00    +0.145 HD
ENDBRANCH  14  21
ENDBRANCH   1  17
TORSDOF 2
ENDMDL
MODEL 4
REMARK VINA RESULT:      -6.4      2.529      3.221
REMARK  Name = ZINC000870248439
REMARK  2 active torsions:
REMARK  status: ('A' for Active; 'I' for Inactive)
REMARK    1  A    between atoms: C_2  and  C_4
REMARK    2  A    between atoms: C_7  and  C_8
REMARK                            x       y       z     vdW  Elec       q    Type
REMARK                         _______ _______ _______ _____ _____    ______ ____
ROOT
ATOM      1  C   UNL     1      30.157  15.995  15.693  0.00  0.00    +0.247 C 
ATOM      2  O   UNL     1      29.615  15.505  16.684  0.00  0.00    -0.270 OA
ATOM      3  N   UNL     1      30.350  17.373  15.528  0.00  0.00    -0.297 N 
ATOM      4  C   UNL     1      30.999  18.014  14.387  0.00  0.00    +0.108 C 
ATOM      5  C   UNL     1      31.967  19.112  14.779  0.00  0.00    +0.026 C 
ATOM      6  C   UNL     1      31.338  20.143  15.733  0.00  0.00    -0.025 C 
ATOM      7  C   UNL     1      32.475  21.064  16.231  0.00  0.00    +0.017 C 
ATOM      8  C   UNL     1      32.019  22.191  17.149  0.00  0.00    +0.069 C 
ATOM      9  S   UNL     1      30.820  23.295  16.352  0.00  0.00    -0.161 S 
ATOM     10  C   UNL     1      29.620  22.067  15.771  0.00  0.00    +0.069 C 
ATOM     11  C   UNL     1      30.294  20.979  14.949  0.00  0.00    +0.017 C 
ATOM     12  C   UNL     1      30.713  19.360  16.922  0.00  0.00    +0.026 C 
ATOM     13  C   UNL     1      29.723  18.285  16.478  0.00  0.00    +0.108 C 
ENDROOT
BRANCH   1  17
ATOM     14  C   UNL     1      31.792  13.601  12.557  0.00  0.00    +0.037 A 
ATOM     15  C   UNL     1      30.439  13.938  12.527  0.00  0.00    +0.014 A 
ATOM     16  C   UNL     1      29.878  14.616  13.601  0.00  0.00    +0.014 A 
ATOM     17  C   UNL     1      30.680  15.063  14.660  0.00  0.00    +0.037 A 
ATOM     18  C   UNL     1      32.020  14.669  14.724  0.00  0.00    +0.014 A 
ATOM     19  C   UNL     1      32.572  13.926  13.675  0.00  0.00    +0.014 A 
BRANCH  14  21
ATOM     20  N   UNL     1      32.030  11.576  11.237  0.00  0.00    -0.325 N 
ATOM     21  C   UNL     1      32.404  12.882  11.416  0.00  0.00    +0.242 C 
ATOM     22  O   UNL     1      33.183  13.439  10.652  0.00  0.00    -0.270 OA
ATOM     23  H   UNL     1      32.386  11.132  10.395  0.00  0.00    +0.145 HD
ATOM     24  H   UNL     1      31.209  11.183  11.664  0.00  0.00    +0.145 HD
ENDBRANCH  14  21
ENDBRANCH   1  17
TORSDOF 2
ENDMDL
MODEL 5
REMARK VINA RESULT:      -6.4      4.616      7.548
REMARK  Name = ZINC000870248439
REMARK  2 active torsions:
REMARK  status: ('A' for Active; 'I' for Inactive)
REMARK    1  A    between atoms: C_2  and  C_4
REMARK    2  A    between atoms: C_7  and  C_8
REMARK                            x       y       z     vdW  Elec       q    Type
REMARK                         _______ _______ _______ _____ _____    ______ ____
ROOT
ATOM      1  C   UNL     1      30.026  21.083  15.608  0.00  0.00    +0.247 C 
ATOM      2  O   UNL     1      30.061  21.682  14.533  0.00  0.00    -0.270 OA
ATOM      3  N   UNL     1      30.578  19.809  15.793  0.00  0.00    -0.297 N 
ATOM      4  C   UNL     1      30.583  19.054  17.044  0.00  0.00    +0.108 C 
ATOM      5  C   UNL     1      31.912  18.392  17.346  0.00  0.00    +0.026 C 
ATOM      6  C   UNL     1      32.435  17.550  16.168  0.00  0.00    -0.025 C 
ATOM      7  C   UNL     1      33.880  17.124  16.512  0.00  0.00    +0.017 C 
ATOM      8  C   UNL     1      34.539  16.227  15.472  0.00  0.00    +0.069 C 
ATOM      9  S   UNL     1      33.629  14.678  15.212  0.00  0.00    -0.161 S 
ATOM     10  C   UNL     1      31.975  15.350  14.902  0.00  0.00    +0.069 C 
ATOM     11  C   UNL     1      31.542  16.292  16.015  0.00  0.00    +0.017 C 
ATOM     12  C   UNL     1      32.422  18.455  14.904  0.00  0.00    +0.026 C 
ATOM     13  C   UNL     1      31.055  19.078  14.625  0.00  0.00    +0.108 C 
ENDROOT
BRANCH   1  17
ATOM     14  C   UNL     1      28.124  23.316  18.711  0.00  0.00    +0.037 A 
ATOM     15  C   UNL     1      29.464  23.563  18.413  0.00  0.00    +0.014 A 
ATOM     16  C   UNL     1      30.118  22.760  17.487  0.00  0.00    +0.014 A 
ATOM     17  C   UNL     1      29.416  21.783  16.769  0.00  0.00    +0.037 A 
ATOM     18  C   UNL     1      28.093  21.491  17.114  0.00  0.00    +0.014 A 
ATOM     19  C   UNL     1      27.451  22.252  18.096  0.00  0.00    +0.014 A 
BRANCH  14  21
ATOM     20  N   UNL     1      27.961  25.395  19.956  0.00  0.00    -0.325 N 
ATOM     21  C   UNL     1      27.413  24.167  19.694  0.00  0.00    +0.242 C 
ATOM     22  O   UNL     1      26.371  23.801  20.222  0.00  0.00    -0.270 OA
ATOM     23  H   UNL     1      27.408  26.001  20.558  0.00  0.00    +0.145 HD
ATOM     24  H   UNL     1      28.640  25.828  19.353  0.00  0.00    +0.145 HD
ENDBRANCH  14  21
ENDBRANCH   1  17
TORSDOF 2
ENDMDL
MODEL 6
REMARK VINA RESULT:      -6.4      5.516      7.433
REMARK  Name = ZINC000870248439
REMARK  2 active torsions:
REMARK  status: ('A' for Active; 'I' for Inactive)
REMARK    1  A    between atoms: C_2  and  C_4
REMARK    2  A    between atoms: C_7  and  C_8
REMARK                            x       y       z     vdW  Elec       q    Type
REMARK                         _______ _______ _______ _____ _____    ______ ____
ROOT
ATOM      1  C   UNL     1      32.339  21.301  14.358  0.00  0.00    +0.247 C 
ATOM      2  O   UNL     1      32.605  20.108  14.508  0.00  0.00    -0.270 OA
ATOM      3  N   UNL     1      32.793  22.056  13.268  0.00  0.00    -0.297 N 
ATOM      4  C   UNL     1      32.500  23.466  13.026  0.00  0.00    +0.108 C 
ATOM      5  C   UNL     1      32.139  23.770  11.587  0.00  0.00    +0.026 C 
ATOM      6  C   UNL     1      33.172  23.220  10.587  0.00  0.00    -0.025 C 
ATOM      7  C   UNL     1      32.581  23.392   9.170  0.00  0.00    +0.017 C 
ATOM      8  C   UNL     1      33.503  22.949   8.042  0.00  0.00    +0.069 C 
ATOM      9  S   UNL     1      35.070  23.866   8.024  0.00  0.00    -0.161 S 
ATOM     10  C   UNL     1      35.577  23.628   9.747  0.00  0.00    +0.069 C 
ATOM     11  C   UNL     1      34.478  24.047  10.712  0.00  0.00    +0.017 C 
ATOM     12  C   UNL     1      33.380  21.714  10.910  0.00  0.00    +0.026 C 
ATOM     13  C   UNL     1      33.771  21.460  12.365  0.00  0.00    +0.108 C 
ENDROOT
BRANCH   1  17
ATOM     14  C   UNL     1      29.834  22.860  17.445  0.00  0.00    +0.037 A 
ATOM     15  C   UNL     1      29.255  22.194  16.364  0.00  0.00    +0.014 A 
ATOM     16  C   UNL     1      30.054  21.789  15.302  0.00  0.00    +0.014 A 
ATOM     17  C   UNL     1      31.445  21.940  15.359  0.00  0.00    +0.037 A 
ATOM     18  C   UNL     1      32.018  22.665  16.409  0.00  0.00    +0.014 A 
ATOM     19  C   UNL     1      31.208  23.136  17.447  0.00  0.00    +0.014 A 
BRANCH  14  21
ATOM     20  N   UNL     1      29.299  24.502  19.153  0.00  0.00    -0.325 N 
ATOM     21  C   UNL     1      28.994  23.293  18.585  0.00  0.00    +0.242 C 
ATOM     22  O   UNL     1      28.054  22.616  18.982  0.00  0.00    -0.270 OA
ATOM     23  H   UNL     1      28.654  24.825  19.869  0.00  0.00    +0.145 HD
ATOM     24  H   UNL     1      29.869  25.191  18.691  0.00  0.00    +0.145 HD
ENDBRANCH  14  21
ENDBRANCH   1  17
TORSDOF 2
ENDMDL
MODEL 7
REMARK VINA RESULT:      -6.4      4.295      7.130
REMARK  Name = ZINC000870248439
REMARK  2 active torsions:
REMARK  status: ('A' for Active; 'I' for Inactive)
REMARK    1  A    between atoms: C_2  and  C_4
REMARK    2  A    between atoms: C_7  and  C_8
REMARK                            x       y       z     vdW  Elec       q    Type
REMARK                         _______ _______ _______ _____ _____    ______ ____
ROOT
ATOM      1  C   UNL     1      31.779  20.410  16.073  0.00  0.00    +0.247 C 
ATOM      2  O   UNL     1      32.792  21.086  16.250  0.00  0.00    -0.270 OA
ATOM      3  N   UNL     1      31.811  19.079  15.637  0.00  0.00    -0.297 N 
ATOM      4  C   UNL     1      30.648  18.221  15.424  0.00  0.00    +0.108 C 
ATOM      5  C   UNL     1      30.824  16.818  15.969  0.00  0.00    +0.026 C 
ATOM      6  C   UNL     1      32.122  16.152  15.482  0.00  0.00    -0.025 C 
ATOM      7  C   UNL     1      32.294  14.838  16.278  0.00  0.00    +0.017 C 
ATOM      8  C   UNL     1      33.510  14.012  15.881  0.00  0.00    +0.069 C 
ATOM      9  S   UNL     1      33.472  13.515  14.135  0.00  0.00    -0.161 S 
ATOM     10  C   UNL     1      33.195  15.133  13.368  0.00  0.00    +0.069 C 
ATOM     11  C   UNL     1      31.986  15.833  13.971  0.00  0.00    +0.017 C 
ATOM     12  C   UNL     1      33.293  17.128  15.788  0.00  0.00    +0.026 C 
ATOM     13  C   UNL     1      33.083  18.520  15.194  0.00  0.00    +0.108 C 
ENDROOT
BRANCH   1  17
ATOM     14  C   UNL     1      28.165  22.318  17.313  0.00  0.00    +0.037 A 
ATOM     15  C   UNL     1      28.325  20.949  17.530  0.00  0.00    +0.014 A 
ATOM     16  C   UNL     1      29.447  20.303  17.024  0.00  0.00    +0.014 A 
ATOM     17  C   UNL     1      30.468  21.031  16.401  0.00  0.00    +0.037 A 
ATOM     18  C   UNL     1      30.279  22.389  16.126  0.00  0.00    +0.014 A 
ATOM     19  C   UNL     1      29.118  23.029  16.573  0.00  0.00    +0.014 A 
BRANCH  14  21
ATOM     20  N   UNL     1      27.136  23.683  19.039  0.00  0.00    -0.325 N 
ATOM     21  C   UNL     1      26.976  23.020  17.851  0.00  0.00    +0.242 C 
ATOM     22  O   UNL     1      25.912  23.030  17.247  0.00  0.00    -0.270 OA
ATOM     23  H   UNL     1      26.339  24.237  19.341  0.00  0.00    +0.145 HD
ATOM     24  H   UNL     1      28.040  23.922  19.411  0.00  0.00    +0.145 HD
ENDBRANCH  14  21
ENDBRANCH   1  17
TORSDOF 2
ENDMDL
MODEL 8
REMARK VINA RESULT:      -6.4      2.911      4.652
REMARK  Name = ZINC000870248439
REMARK  2 active torsions:
REMARK  status: ('A' for Active; 'I' for Inactive)
REMARK    1  A    between atoms: C_2  and  C_4
REMARK    2  A    between atoms: C_7  and  C_8
REMARK                            x       y       z     vdW  Elec       q    Type
REMARK                         _______ _______ _______ _____ _____    ______ ____
ROOT
ATOM      1  C   UNL     1      30.119  22.000  16.927  0.00  0.00    +0.247 C 
ATOM      2  O   UNL     1      29.041  22.368  17.394  0.00  0.00    -0.270 OA
ATOM      3  N   UNL     1      31.301  22.742  17.050  0.00  0.00    -0.297 N 
ATOM      4  C   UNL     1      32.611  22.353  16.534  0.00  0.00    +0.108 C 
ATOM      5  C   UNL     1      33.742  22.591  17.514  0.00  0.00    +0.026 C 
ATOM      6  C   UNL     1      33.750  24.025  18.073  0.00  0.00    -0.025 C 
ATOM      7  C   UNL     1      34.792  24.070  19.213  0.00  0.00    +0.017 C 
ATOM      8  C   UNL     1      34.975  25.442  19.848  0.00  0.00    +0.069 C 
ATOM      9  S   UNL     1      35.517  26.696  18.652  0.00  0.00    -0.161 S 
ATOM     10  C   UNL     1      34.254  26.457  17.375  0.00  0.00    +0.069 C 
ATOM     11  C   UNL     1      34.170  25.001  16.943  0.00  0.00    +0.017 C 
ATOM     12  C   UNL     1      32.327  24.320  18.625  0.00  0.00    +0.026 C 
ATOM     13  C   UNL     1      31.224  24.093  17.593  0.00  0.00    +0.108 C 
ENDROOT
BRANCH   1  17
ATOM     14  C   UNL     1      30.591  18.174  15.090  0.00  0.00    +0.037 A 
ATOM     15  C   UNL     1      30.638  19.323  14.300  0.00  0.00    +0.014 A 
ATOM     16  C   UNL     1      30.369  20.559  14.874  0.00  0.00    +0.014 A 
ATOM     17  C   UNL     1      30.164  20.674  16.255  0.00  0.00    +0.037 A 
ATOM     18  C   UNL     1      30.051  19.519  17.034  0.00  0.00    +0.014 A 
ATOM     19  C   UNL     1      30.253  18.266  16.446  0.00  0.00    +0.014 A 
BRANCH  14  21
ATOM     20  N   UNL     1      30.059  15.815  14.855  0.00  0.00    -0.325 N 
ATOM     21  C   UNL     1      30.880  16.850  14.491  0.00  0.00    +0.242 C 
ATOM     22  O   UNL     1      31.791  16.696  13.688  0.00  0.00    -0.270 OA
ATOM     23  H   UNL     1      30.214  14.940  14.362  0.00  0.00    +0.145 HD
ATOM     24  H   UNL     1      29.160  15.959  15.283  0.00  0.00    +0.145 HD
ENDBRANCH  14  21
ENDBRANCH   1  17
TORSDOF 2
ENDMDL
MODEL 9
REMARK VINA RESULT:      -6.3      4.094      6.602
REMARK  Name = ZINC000870248439
REMARK  2 active torsions:
REMARK  status: ('A' for Active; 'I' for Inactive)
REMARK    1  A    between atoms: C_2  and  C_4
REMARK    2  A    between atoms: C_7  and  C_8
REMARK                            x       y       z     vdW  Elec       q    Type
REMARK                         _______ _______ _______ _____ _____    ______ ____
ROOT
ATOM      1  C   UNL     1      30.942  16.976  15.679  0.00  0.00    +0.247 C 
ATOM      2  O   UNL     1      30.264  16.156  15.060  0.00  0.00    -0.270 OA
ATOM      3  N   UNL     1      32.159  16.655  16.295  0.00  0.00    -0.297 N 
ATOM      4  C   UNL     1      33.016  17.583  17.028  0.00  0.00    +0.108 C 
ATOM      5  C   UNL     1      34.487  17.437  16.698  0.00  0.00    +0.026 C 
ATOM      6  C   UNL     1      34.981  15.985  16.820  0.00  0.00    -0.025 C 
ATOM      7  C   UNL     1      36.414  15.934  16.244  0.00  0.00    +0.017 C 
ATOM      8  C   UNL     1      37.086  14.570  16.338  0.00  0.00    +0.069 C 
ATOM      9  S   UNL     1      37.234  13.985  18.050  0.00  0.00    -0.161 S 
ATOM     10  C   UNL     1      35.514  14.179  18.584  0.00  0.00    +0.069 C 
ATOM     11  C   UNL     1      35.006  15.588  18.319  0.00  0.00    +0.017 C 
ATOM     12  C   UNL     1      34.026  15.093  15.978  0.00  0.00    +0.026 C 
ATOM     13  C   UNL     1      32.557  15.254  16.367  0.00  0.00    +0.108 C 
ENDROOT
BRANCH   1  17
ATOM     14  C   UNL     1      29.886  21.108  15.902  0.00  0.00    +0.037 A 
ATOM     15  C   UNL     1      29.503  20.247  16.931  0.00  0.00    +0.014 A 
ATOM     16  C   UNL     1      29.742  18.884  16.807  0.00  0.00    +0.014 A 
ATOM     17  C   UNL     1      30.462  18.382  15.716  0.00  0.00    +0.037 A 
ATOM     18  C   UNL     1      30.787  19.233  14.654  0.00  0.00    +0.014 A 
ATOM     19  C   UNL     1      30.487  20.596  14.744  0.00  0.00    +0.014 A 
BRANCH  14  21
ATOM     20  N   UNL     1      30.534  23.393  15.397  0.00  0.00    -0.325 N 
ATOM     21  C   UNL     1      29.642  22.564  16.024  0.00  0.00    +0.242 C 
ATOM     22  O   UNL     1      28.673  23.001  16.631  0.00  0.00    -0.270 OA
ATOM     23  H   UNL     1      30.296  24.382  15.411  0.00  0.00    +0.145 HD
ATOM     24  H   UNL     1      31.163  23.073  14.680  0.00  0.00    +0.145 HD
ENDBRANCH  14  21
ENDBRANCH   1  17
TORSDOF 2
ENDMDL
