MODEL 1
REMARK VINA RESULT:      -6.3      0.000      0.000
REMARK  Name = ZINC001228612316
REMARK  5 active torsions:
REMARK  status: ('A' for Active; 'I' for Inactive)
REMARK    1  A    between atoms: C_2  and  C_4
REMARK    2  A    between atoms: C_8  and  O_9
REMARK    3  A    between atoms: O_9  and  C_10
REMARK    4  A    between atoms: C_10  and  C_11
REMARK    5  A    between atoms: C_10  and  C_17
REMARK                            x       y       z     vdW  Elec       q    Type
REMARK                         _______ _______ _______ _____ _____    ______ ____
ROOT
ATOM      1  C   UNL     1      27.820  21.661  18.507  0.00  0.00    +0.040 A 
ATOM      2  C   UNL     1      26.659  21.352  17.788  0.00  0.00    +0.013 A 
ATOM      3  C   UNL     1      26.754  20.813  16.505  0.00  0.00    +0.004 A 
ATOM      4  C   UNL     1      28.006  20.578  15.931  0.00  0.00    +0.046 A 
ATOM      5  C   UNL     1      29.170  20.886  16.636  0.00  0.00    +0.122 A 
ATOM      6  C   UNL     1      29.071  21.425  17.925  0.00  0.00    +0.058 A 
ENDROOT
BRANCH   1   8
ATOM      7  N   UNL     1      28.801  22.374  20.628  0.00  0.00    -0.325 N 
ATOM      8  C   UNL     1      27.666  22.217  19.878  0.00  0.00    +0.242 C 
ATOM      9  O   UNL     1      26.574  22.561  20.315  0.00  0.00    -0.270 OA
ATOM     10  H   UNL     1      28.687  22.851  21.513  0.00  0.00    +0.145 HD
ATOM     11  H   UNL     1      29.727  22.333  20.232  0.00  0.00    +0.145 HD
ENDBRANCH   1   8
BRANCH   5  12
ATOM     12  O   UNL     1      30.446  20.771  16.156  0.00  0.00    -0.484 OA
BRANCH  12  13
ATOM     13  C   UNL     1      31.227  19.625  16.533  0.00  0.00    +0.208 C 
BRANCH  13  14
ATOM     14  C   UNL     1      31.459  18.654  15.392  0.00  0.00    +0.011 A 
ATOM     15  C   UNL     1      30.595  17.597  15.096  0.00  0.00    +0.010 A 
ATOM     16  C   UNL     1      30.833  16.804  13.976  0.00  0.00    +0.020 A 
ATOM     17  C   UNL     1      31.930  17.096  13.182  0.00  0.00    +0.111 A 
ATOM     18  N   UNL     1      32.793  18.100  13.437  0.00  0.00    -0.263 NA
ATOM     19  C   UNL     1      32.537  18.854  14.529  0.00  0.00    +0.118 A 
ENDBRANCH  13  14
BRANCH  13  20
ATOM     20  C   UNL     1      32.597  20.087  17.020  0.00  0.00    +0.034 C 
ATOM     21  C   UNL     1      33.351  19.291  18.058  0.00  0.00    +0.008 C 
ATOM     22  C   UNL     1      32.833  20.661  18.399  0.00  0.00    +0.008 C 
ENDBRANCH  13  20
ENDBRANCH  12  13
ENDBRANCH   5  12
TORSDOF 5
ENDMDL
MODEL 2
REMARK VINA RESULT:      -6.3      1.678      2.219
REMARK  Name = ZINC001228612316
REMARK  5 active torsions:
REMARK  status: ('A' for Active; 'I' for Inactive)
REMARK    1  A    between atoms: C_2  and  C_4
REMARK    2  A    between atoms: C_8  and  O_9
REMARK    3  A    between atoms: O_9  and  C_10
REMARK    4  A    between atoms: C_10  and  C_11
REMARK    5  A    between atoms: C_10  and  C_17
REMARK                            x       y       z     vdW  Elec       q    Type
REMARK                         _______ _______ _______ _____ _____    ______ ____
ROOT
ATOM      1  C   UNL     1      27.769  21.214  17.654  0.00  0.00    +0.040 A 
ATOM      2  C   UNL     1      27.802  21.865  18.892  0.00  0.00    +0.013 A 
ATOM      3  C   UNL     1      29.024  22.233  19.455  0.00  0.00    +0.004 A 
ATOM      4  C   UNL     1      30.220  21.955  18.787  0.00  0.00    +0.046 A 
ATOM      5  C   UNL     1      30.199  21.302  17.555  0.00  0.00    +0.122 A 
ATOM      6  C   UNL     1      28.970  20.936  16.990  0.00  0.00    +0.058 A 
ENDROOT
BRANCH   1   8
ATOM      7  N   UNL     1      25.742  19.851  17.697  0.00  0.00    -0.325 N 
ATOM      8  C   UNL     1      26.440  20.858  17.087  0.00  0.00    +0.242 C 
ATOM      9  O   UNL     1      25.963  21.462  16.134  0.00  0.00    -0.270 OA
ATOM     10  H   UNL     1      24.799  19.698  17.362  0.00  0.00    +0.145 HD
ATOM     11  H   UNL     1      25.979  19.497  18.610  0.00  0.00    +0.145 HD
ENDBRANCH   1   8
BRANCH   5  12
ATOM     12  O   UNL     1      31.300  20.912  16.841  0.00  0.00    -0.484 OA
BRANCH  12  13
ATOM     13  C   UNL     1      31.806  19.579  17.022  0.00  0.00    +0.208 C 
BRANCH  13  14
ATOM     14  C   UNL     1      31.802  18.758  15.747  0.00  0.00    +0.011 A 
ATOM     15  C   UNL     1      30.825  17.803  15.452  0.00  0.00    +0.010 A 
ATOM     16  C   UNL     1      30.844  17.155  14.218  0.00  0.00    +0.020 A 
ATOM     17  C   UNL     1      31.842  17.486  13.315  0.00  0.00    +0.111 A 
ATOM     18  N   UNL     1      32.807  18.393  13.565  0.00  0.00    -0.263 NA
ATOM     19  C   UNL     1      32.763  19.007  14.767  0.00  0.00    +0.118 A 
ENDBRANCH  13  14
BRANCH  13  20
ATOM     20  C   UNL     1      33.249  19.649  17.511  0.00  0.00    +0.034 C 
ATOM     21  C   UNL     1      33.837  18.524  18.327  0.00  0.00    +0.008 C 
ATOM     22  C   UNL     1      33.620  19.871  18.960  0.00  0.00    +0.008 C 
ENDBRANCH  13  20
ENDBRANCH  12  13
ENDBRANCH   5  12
TORSDOF 5
ENDMDL
MODEL 3
REMARK VINA RESULT:      -6.2      1.906      2.600
REMARK  Name = ZINC001228612316
REMARK  5 active torsions:
REMARK  status: ('A' for Active; 'I' for Inactive)
REMARK    1  A    between atoms: C_2  and  C_4
REMARK    2  A    between atoms: C_8  and  O_9
REMARK    3  A    between atoms: O_9  and  C_10
REMARK    4  A    between atoms: C_10  and  C_11
REMARK    5  A    between atoms: C_10  and  C_17
REMARK                            x       y       z     vdW  Elec       q    Type
REMARK                         _______ _______ _______ _____ _____    ______ ____
ROOT
ATOM      1  C   UNL     1      28.916  21.804  18.510  0.00  0.00    +0.040 A 
ATOM      2  C   UNL     1      27.561  21.686  18.840  0.00  0.00    +0.013 A 
ATOM      3  C   UNL     1      26.659  21.161  17.914  0.00  0.00    +0.004 A 
ATOM      4  C   UNL     1      27.103  20.749  16.655  0.00  0.00    +0.046 A 
ATOM      5  C   UNL     1      28.450  20.865  16.313  0.00  0.00    +0.122 A 
ATOM      6  C   UNL     1      29.354  21.391  17.245  0.00  0.00    +0.058 A 
ENDROOT
BRANCH   1   8
ATOM      7  N   UNL     1      29.346  23.304  20.389  0.00  0.00    -0.325 N 
ATOM      8  C   UNL     1      29.841  22.353  19.538  0.00  0.00    +0.242 C 
ATOM      9  O   UNL     1      30.992  21.949  19.650  0.00  0.00    -0.270 OA
ATOM     10  H   UNL     1      29.958  23.585  21.145  0.00  0.00    +0.145 HD
ATOM     11  H   UNL     1      28.360  23.488  20.490  0.00  0.00    +0.145 HD
ENDBRANCH   1   8
BRANCH   5  12
ATOM     12  O   UNL     1      28.991  20.566  15.092  0.00  0.00    -0.484 OA
BRANCH  12  13
ATOM     13  C   UNL     1      30.418  20.442  14.978  0.00  0.00    +0.208 C 
BRANCH  13  14
ATOM     14  C   UNL     1      30.913  19.021  15.166  0.00  0.00    +0.011 A 
ATOM     15  C   UNL     1      30.581  17.972  14.303  0.00  0.00    +0.010 A 
ATOM     16  C   UNL     1      31.150  16.715  14.496  0.00  0.00    +0.020 A 
ATOM     17  C   UNL     1      32.037  16.546  15.546  0.00  0.00    +0.111 A 
ATOM     18  N   UNL     1      32.375  17.528  16.406  0.00  0.00    -0.263 NA
ATOM     19  C   UNL     1      31.811  18.737  16.195  0.00  0.00    +0.118 A 
ENDBRANCH  13  14
BRANCH  13  20
ATOM     20  C   UNL     1      30.854  20.894  13.588  0.00  0.00    +0.034 C 
ATOM     21  C   UNL     1      32.313  21.140  13.285  0.00  0.00    +0.008 C 
ATOM     22  C   UNL     1      31.346  22.293  13.291  0.00  0.00    +0.008 C 
ENDBRANCH  13  20
ENDBRANCH  12  13
ENDBRANCH   5  12
TORSDOF 5
ENDMDL
MODEL 4
REMARK VINA RESULT:      -6.1      2.092      3.032
REMARK  Name = ZINC001228612316
REMARK  5 active torsions:
REMARK  status: ('A' for Active; 'I' for Inactive)
REMARK    1  A    between atoms: C_2  and  C_4
REMARK    2  A    between atoms: C_8  and  O_9
REMARK    3  A    between atoms: O_9  and  C_10
REMARK    4  A    between atoms: C_10  and  C_11
REMARK    5  A    between atoms: C_10  and  C_17
REMARK                            x       y       z     vdW  Elec       q    Type
REMARK                         _______ _______ _______ _____ _____    ______ ____
ROOT
ATOM      1  C   UNL     1      27.984  21.608  18.472  0.00  0.00    +0.040 A 
ATOM      2  C   UNL     1      26.774  21.256  17.864  0.00  0.00    +0.013 A 
ATOM      3  C   UNL     1      26.769  20.702  16.584  0.00  0.00    +0.004 A 
ATOM      4  C   UNL     1      27.972  20.494  15.903  0.00  0.00    +0.046 A 
ATOM      5  C   UNL     1      29.184  20.845  16.496  0.00  0.00    +0.122 A 
ATOM      6  C   UNL     1      29.185  21.400  17.783  0.00  0.00    +0.058 A 
ENDROOT
BRANCH   1   8
ATOM      7  N   UNL     1      29.131  22.445  20.460  0.00  0.00    -0.325 N 
ATOM      8  C   UNL     1      27.937  22.180  19.845  0.00  0.00    +0.242 C 
ATOM      9  O   UNL     1      26.876  22.442  20.398  0.00  0.00    -0.270 OA
ATOM     10  H   UNL     1      29.076  22.931  21.347  0.00  0.00    +0.145 HD
ATOM     11  H   UNL     1      30.008  22.473  19.963  0.00  0.00    +0.145 HD
ENDBRANCH   1   8
BRANCH   5  12
ATOM     12  O   UNL     1      30.415  20.759  15.905  0.00  0.00    -0.484 OA
BRANCH  12  13
ATOM     13  C   UNL     1      30.522  20.137  14.614  0.00  0.00    +0.208 C 
BRANCH  13  14
ATOM     14  C   UNL     1      31.268  20.984  13.601  0.00  0.00    +0.011 A 
ATOM     15  C   UNL     1      30.907  22.296  13.283  0.00  0.00    +0.010 A 
ATOM     16  C   UNL     1      31.698  23.036  12.407  0.00  0.00    +0.020 A 
ATOM     17  C   UNL     1      32.830  22.439  11.876  0.00  0.00    +0.111 A 
ATOM     18  N   UNL     1      33.207  21.174  12.149  0.00  0.00    -0.263 NA
ATOM     19  C   UNL     1      32.423  20.481  13.003  0.00  0.00    +0.118 A 
ENDBRANCH  13  14
BRANCH  13  20
ATOM     20  C   UNL     1      31.279  18.821  14.749  0.00  0.00    +0.034 C 
ATOM     21  C   UNL     1      30.774  17.572  14.067  0.00  0.00    +0.008 C 
ATOM     22  C   UNL     1      30.771  17.655  15.569  0.00  0.00    +0.008 C 
ENDBRANCH  13  20
ENDBRANCH  12  13
ENDBRANCH   5  12
TORSDOF 5
ENDMDL
MODEL 5
REMARK VINA RESULT:      -6.1      2.856      4.888
REMARK  Name = ZINC001228612316
REMARK  5 active torsions:
REMARK  status: ('A' for Active; 'I' for Inactive)
REMARK    1  A    between atoms: C_2  and  C_4
REMARK    2  A    between atoms: C_8  and  O_9
REMARK    3  A    between atoms: O_9  and  C_10
REMARK    4  A    between atoms: C_10  and  C_11
REMARK    5  A    between atoms: C_10  and  C_17
REMARK                            x       y       z     vdW  Elec       q    Type
REMARK                         _______ _______ _______ _____ _____    ______ ____
ROOT
ATOM      1  C   UNL     1      30.116  20.057  16.126  0.00  0.00    +0.040 A 
ATOM      2  C   UNL     1      31.218  20.218  16.974  0.00  0.00    +0.013 A 
ATOM      3  C   UNL     1      32.292  19.332  16.900  0.00  0.00    +0.004 A 
ATOM      4  C   UNL     1      32.276  18.280  15.980  0.00  0.00    +0.046 A 
ATOM      5  C   UNL     1      31.181  18.107  15.132  0.00  0.00    +0.122 A 
ATOM      6  C   UNL     1      30.105  19.000  15.207  0.00  0.00    +0.058 A 
ENDROOT
BRANCH   1   8
ATOM      7  N   UNL     1      28.769  21.848  15.152  0.00  0.00    -0.325 N 
ATOM      8  C   UNL     1      29.003  21.039  16.231  0.00  0.00    +0.242 C 
ATOM      9  O   UNL     1      28.292  21.103  17.227  0.00  0.00    -0.270 OA
ATOM     10  H   UNL     1      27.944  22.431  15.204  0.00  0.00    +0.145 HD
ATOM     11  H   UNL     1      29.162  21.670  14.241  0.00  0.00    +0.145 HD
ENDBRANCH   1   8
BRANCH   5  12
ATOM     12  O   UNL     1      31.016  17.079  14.244  0.00  0.00    -0.484 OA
BRANCH  12  13
ATOM     13  C   UNL     1      32.156  16.615  13.502  0.00  0.00    +0.208 C 
BRANCH  13  14
ATOM     14  C   UNL     1      32.207  15.106  13.364  0.00  0.00    +0.011 A 
ATOM     15  C   UNL     1      32.814  14.270  14.306  0.00  0.00    +0.010 A 
ATOM     16  C   UNL     1      32.740  12.887  14.149  0.00  0.00    +0.020 A 
ATOM     17  C   UNL     1      32.058  12.383  13.053  0.00  0.00    +0.111 A 
ATOM     18  N   UNL     1      31.469  13.154  12.118  0.00  0.00    -0.263 NA
ATOM     19  C   UNL     1      31.554  14.491  12.296  0.00  0.00    +0.118 A 
ENDBRANCH  13  14
BRANCH  13  20
ATOM     20  C   UNL     1      32.110  17.197  12.093  0.00  0.00    +0.034 C 
ATOM     21  C   UNL     1      33.383  17.397  11.304  0.00  0.00    +0.008 C 
ATOM     22  C   UNL     1      32.590  18.592  11.759  0.00  0.00    +0.008 C 
ENDBRANCH  13  20
ENDBRANCH  12  13
ENDBRANCH   5  12
TORSDOF 5
ENDMDL
MODEL 6
REMARK VINA RESULT:      -6.1      2.518      6.366
REMARK  Name = ZINC001228612316
REMARK  5 active torsions:
REMARK  status: ('A' for Active; 'I' for Inactive)
REMARK    1  A    between atoms: C_2  and  C_4
REMARK    2  A    between atoms: C_8  and  O_9
REMARK    3  A    between atoms: O_9  and  C_10
REMARK    4  A    between atoms: C_10  and  C_11
REMARK    5  A    between atoms: C_10  and  C_17
REMARK                            x       y       z     vdW  Elec       q    Type
REMARK                         _______ _______ _______ _____ _____    ______ ____
ROOT
ATOM      1  C   UNL     1      32.103  17.733  16.431  0.00  0.00    +0.040 A 
ATOM      2  C   UNL     1      31.178  17.276  15.486  0.00  0.00    +0.013 A 
ATOM      3  C   UNL     1      30.219  18.146  14.967  0.00  0.00    +0.004 A 
ATOM      4  C   UNL     1      30.177  19.478  15.387  0.00  0.00    +0.046 A 
ATOM      5  C   UNL     1      31.091  19.945  16.332  0.00  0.00    +0.122 A 
ATOM      6  C   UNL     1      32.054  19.069  16.849  0.00  0.00    +0.058 A 
ENDROOT
BRANCH   1   8
ATOM      7  N   UNL     1      33.564  15.808  16.077  0.00  0.00    -0.325 N 
ATOM      8  C   UNL     1      33.116  16.771  16.941  0.00  0.00    +0.242 C 
ATOM      9  O   UNL     1      33.568  16.852  18.076  0.00  0.00    -0.270 OA
ATOM     10  H   UNL     1      34.328  15.233  16.409  0.00  0.00    +0.145 HD
ATOM     11  H   UNL     1      33.406  15.850  15.082  0.00  0.00    +0.145 HD
ENDBRANCH   1   8
BRANCH   5  12
ATOM     12  O   UNL     1      31.106  21.202  16.874  0.00  0.00    -0.484 OA
BRANCH  12  13
ATOM     13  C   UNL     1      30.709  21.370  18.244  0.00  0.00    +0.208 C 
BRANCH  13  14
ATOM     14  C   UNL     1      31.706  22.165  19.064  0.00  0.00    +0.011 A 
ATOM     15  C   UNL     1      32.158  21.763  20.324  0.00  0.00    +0.010 A 
ATOM     16  C   UNL     1      33.142  22.506  20.973  0.00  0.00    +0.020 A 
ATOM     17  C   UNL     1      33.648  23.629  20.339  0.00  0.00    +0.111 A 
ATOM     18  N   UNL     1      33.232  24.055  19.129  0.00  0.00    -0.263 NA
ATOM     19  C   UNL     1      32.279  23.316  18.522  0.00  0.00    +0.118 A 
ENDBRANCH  13  14
BRANCH  13  20
ATOM     20  C   UNL     1      29.381  22.119  18.296  0.00  0.00    +0.034 C 
ATOM     21  C   UNL     1      28.629  22.257  19.599  0.00  0.00    +0.008 C 
ATOM     22  C   UNL     1      28.049  21.427  18.487  0.00  0.00    +0.008 C 
ENDBRANCH  13  20
ENDBRANCH  12  13
ENDBRANCH   5  12
TORSDOF 5
ENDMDL
MODEL 7
REMARK VINA RESULT:      -6.1      3.870      6.473
REMARK  Name = ZINC001228612316
REMARK  5 active torsions:
REMARK  status: ('A' for Active; 'I' for Inactive)
REMARK    1  A    between atoms: C_2  and  C_4
REMARK    2  A    between atoms: C_8  and  O_9
REMARK    3  A    between atoms: O_9  and  C_10
REMARK    4  A    between atoms: C_10  and  C_11
REMARK    5  A    between atoms: C_10  and  C_17
REMARK                            x       y       z     vdW  Elec       q    Type
REMARK                         _______ _______ _______ _____ _____    ______ ____
ROOT
ATOM      1  C   UNL     1      31.865  23.772  12.292  0.00  0.00    +0.040 A 
ATOM      2  C   UNL     1      33.217  23.626  12.623  0.00  0.00    +0.013 A 
ATOM      3  C   UNL     1      33.651  22.494  13.312  0.00  0.00    +0.004 A 
ATOM      4  C   UNL     1      32.739  21.499  13.675  0.00  0.00    +0.046 A 
ATOM      5  C   UNL     1      31.388  21.634  13.355  0.00  0.00    +0.122 A 
ATOM      6  C   UNL     1      30.957  22.772  12.660  0.00  0.00    +0.058 A 
ENDROOT
BRANCH   1   8
ATOM      7  N   UNL     1      30.176  25.440  11.719  0.00  0.00    -0.325 N 
ATOM      8  C   UNL     1      31.456  24.989  11.542  0.00  0.00    +0.242 C 
ATOM      9  O   UNL     1      32.238  25.594  10.818  0.00  0.00    -0.270 OA
ATOM     10  H   UNL     1      29.952  26.326  11.284  0.00  0.00    +0.145 HD
ATOM     11  H   UNL     1      29.584  25.125  12.473  0.00  0.00    +0.145 HD
ENDBRANCH   1   8
BRANCH   5  12
ATOM     12  O   UNL     1      30.393  20.768  13.717  0.00  0.00    -0.484 OA
BRANCH  12  13
ATOM     13  C   UNL     1      30.519  20.043  14.951  0.00  0.00    +0.208 C 
BRANCH  13  14
ATOM     14  C   UNL     1      29.617  20.569  16.050  0.00  0.00    +0.011 A 
ATOM     15  C   UNL     1      28.221  20.519  15.987  0.00  0.00    +0.010 A 
ATOM     16  C   UNL     1      27.466  20.943  17.079  0.00  0.00    +0.020 A 
ATOM     17  C   UNL     1      28.132  21.402  18.203  0.00  0.00    +0.111 A 
ATOM     18  N   UNL     1      29.475  21.475  18.301  0.00  0.00    -0.263 NA
ATOM     19  C   UNL     1      30.182  21.057  17.229  0.00  0.00    +0.118 A 
ENDBRANCH  13  14
BRANCH  13  20
ATOM     20  C   UNL     1      30.147  18.583  14.719  0.00  0.00    +0.034 C 
ATOM     21  C   UNL     1      30.696  17.500  15.617  0.00  0.00    +0.008 C 
ATOM     22  C   UNL     1      31.119  17.559  14.174  0.00  0.00    +0.008 C 
ENDBRANCH  13  20
ENDBRANCH  12  13
ENDBRANCH   5  12
TORSDOF 5
ENDMDL
MODEL 8
REMARK VINA RESULT:      -6.1      2.593      6.762
REMARK  Name = ZINC001228612316
REMARK  5 active torsions:
REMARK  status: ('A' for Active; 'I' for Inactive)
REMARK    1  A    between atoms: C_2  and  C_4
REMARK    2  A    between atoms: C_8  and  O_9
REMARK    3  A    between atoms: O_9  and  C_10
REMARK    4  A    between atoms: C_10  and  C_11
REMARK    5  A    between atoms: C_10  and  C_17
REMARK                            x       y       z     vdW  Elec       q    Type
REMARK                         _______ _______ _______ _____ _____    ______ ____
ROOT
ATOM      1  C   UNL     1      31.714  18.551  13.078  0.00  0.00    +0.040 A 
ATOM      2  C   UNL     1      31.766  17.343  13.782  0.00  0.00    +0.013 A 
ATOM      3  C   UNL     1      30.944  17.144  14.891  0.00  0.00    +0.004 A 
ATOM      4  C   UNL     1      30.064  18.149  15.305  0.00  0.00    +0.046 A 
ATOM      5  C   UNL     1      30.007  19.359  14.614  0.00  0.00    +0.122 A 
ATOM      6  C   UNL     1      30.833  19.555  13.499  0.00  0.00    +0.058 A 
ENDROOT
BRANCH   1   8
ATOM      7  N   UNL     1      32.745  19.967  11.375  0.00  0.00    -0.325 N 
ATOM      8  C   UNL     1      32.598  18.708  11.892  0.00  0.00    +0.242 C 
ATOM      9  O   UNL     1      33.207  17.759  11.411  0.00  0.00    -0.270 OA
ATOM     10  H   UNL     1      33.432  20.068  10.638  0.00  0.00    +0.145 HD
ATOM     11  H   UNL     1      32.464  20.798  11.872  0.00  0.00    +0.145 HD
ENDBRANCH   1   8
BRANCH   5  12
ATOM     12  O   UNL     1      29.244  20.440  14.962  0.00  0.00    -0.484 OA
BRANCH  12  13
ATOM     13  C   UNL     1      28.820  20.578  16.328  0.00  0.00    +0.208 C 
BRANCH  13  14
ATOM     14  C   UNL     1      29.616  21.611  17.102  0.00  0.00    +0.011 A 
ATOM     15  C   UNL     1      29.624  21.687  18.498  0.00  0.00    +0.010 A 
ATOM     16  C   UNL     1      30.451  22.610  19.134  0.00  0.00    +0.020 A 
ATOM     17  C   UNL     1      31.250  23.429  18.352  0.00  0.00    +0.111 A 
ATOM     18  N   UNL     1      31.264  23.394  17.004  0.00  0.00    -0.263 NA
ATOM     19  C   UNL     1      30.454  22.489  16.414  0.00  0.00    +0.118 A 
ENDBRANCH  13  14
BRANCH  13  20
ATOM     20  C   UNL     1      27.359  21.013  16.362  0.00  0.00    +0.034 C 
ATOM     21  C   UNL     1      26.598  21.046  17.666  0.00  0.00    +0.008 C 
ATOM     22  C   UNL     1      26.216  20.053  16.603  0.00  0.00    +0.008 C 
ENDBRANCH  13  20
ENDBRANCH  12  13
ENDBRANCH   5  12
TORSDOF 5
ENDMDL
MODEL 9
REMARK VINA RESULT:      -6.0      2.558      3.674
REMARK  Name = ZINC001228612316
REMARK  5 active torsions:
REMARK  status: ('A' for Active; 'I' for Inactive)
REMARK    1  A    between atoms: C_2  and  C_4
REMARK    2  A    between atoms: C_8  and  O_9
REMARK    3  A    between atoms: O_9  and  C_10
REMARK    4  A    between atoms: C_10  and  C_11
REMARK    5  A    between atoms: C_10  and  C_17
REMARK                            x       y       z     vdW  Elec       q    Type
REMARK                         _______ _______ _______ _____ _____    ______ ____
ROOT
ATOM      1  C   UNL     1      27.868  21.485  18.317  0.00  0.00    +0.040 A 
ATOM      2  C   UNL     1      28.145  22.190  19.494  0.00  0.00    +0.013 A 
ATOM      3  C   UNL     1      29.465  22.478  19.842  0.00  0.00    +0.004 A 
ATOM      4  C   UNL     1      30.516  22.067  19.018  0.00  0.00    +0.046 A 
ATOM      5  C   UNL     1      30.252  21.360  17.845  0.00  0.00    +0.122 A 
ATOM      6  C   UNL     1      28.926  21.074  17.497  0.00  0.00    +0.058 A 
ENDROOT
BRANCH   1   8
ATOM      7  N   UNL     1      25.488  21.819  18.755  0.00  0.00    -0.325 N 
ATOM      8  C   UNL     1      26.444  21.218  17.982  0.00  0.00    +0.242 C 
ATOM      9  O   UNL     1      26.127  20.518  17.027  0.00  0.00    -0.270 OA
ATOM     10  H   UNL     1      24.531  21.709  18.445  0.00  0.00    +0.145 HD
ATOM     11  H   UNL     1      25.693  22.579  19.385  0.00  0.00    +0.145 HD
ENDBRANCH   1   8
BRANCH   5  12
ATOM     12  O   UNL     1      31.194  20.843  16.997  0.00  0.00    -0.484 OA
BRANCH  12  13
ATOM     13  C   UNL     1      30.803  20.484  15.662  0.00  0.00    +0.208 C 
BRANCH  13  14
ATOM     14  C   UNL     1      31.448  21.347  14.595  0.00  0.00    +0.011 A 
ATOM     15  C   UNL     1      30.719  22.040  13.624  0.00  0.00    +0.010 A 
ATOM     16  C   UNL     1      31.383  22.882  12.735  0.00  0.00    +0.020 A 
ATOM     17  C   UNL     1      32.758  23.007  12.846  0.00  0.00    +0.111 A 
ATOM     18  N   UNL     1      33.498  22.349  13.761  0.00  0.00    -0.263 NA
ATOM     19  C   UNL     1      32.829  21.541  14.612  0.00  0.00    +0.118 A 
ENDBRANCH  13  14
BRANCH  13  20
ATOM     20  C   UNL     1      31.213  19.041  15.387  0.00  0.00    +0.034 C 
ATOM     21  C   UNL     1      30.865  18.382  14.074  0.00  0.00    +0.008 C 
ATOM     22  C   UNL     1      30.227  17.895  15.347  0.00  0.00    +0.008 C 
ENDBRANCH  13  20
ENDBRANCH  12  13
ENDBRANCH   5  12
TORSDOF 5
ENDMDL
