MODEL 1
REMARK VINA RESULT:      -6.9      0.000      0.000
REMARK  Name = ZINC000826139982
REMARK  4 active torsions:
REMARK  status: ('A' for Active; 'I' for Inactive)
REMARK    1  A    between atoms: C_2  and  C_4
REMARK    2  A    between atoms: C_8  and  C_10
REMARK    3  A    between atoms: C_14  and  S_15
REMARK    4  A    between atoms: S_15  and  C_16
REMARK                            x       y       z     vdW  Elec       q    Type
REMARK                         _______ _______ _______ _____ _____    ______ ____
ROOT
ATOM      1  C   UNL     1      32.245  17.337  13.912  0.00  0.00    +0.093 C 
ATOM      2  C   UNL     1      31.951  15.881  13.534  0.00  0.00    +0.033 C 
ATOM      3  C   UNL     1      30.459  15.835  13.231  0.00  0.00    +0.109 C 
ATOM      4  N   UNL     1      29.902  16.909  14.027  0.00  0.00    -0.297 N 
ATOM      5  C   UNL     1      28.579  16.889  14.451  0.00  0.00    +0.247 C 
ATOM      6  O   UNL     1      27.851  15.919  14.238  0.00  0.00    -0.270 OA
ATOM      7  C   UNL     1      30.882  17.976  14.146  0.00  0.00    +0.120 C 
ENDROOT
BRANCH   5   8
ATOM      8  C   UNL     1      28.009  18.022  15.251  0.00  0.00    +0.038 A 
ATOM      9  C   UNL     1      26.888  17.896  16.077  0.00  0.00    +0.013 A 
ATOM     10  C   UNL     1      26.327  19.010  16.701  0.00  0.00    +0.002 A 
ATOM     11  C   UNL     1      26.945  20.250  16.592  0.00  0.00    +0.015 A 
ATOM     12  C   UNL     1      28.145  20.376  15.886  0.00  0.00    +0.017 A 
ATOM     13  C   UNL     1      28.652  19.270  15.188  0.00  0.00    +0.028 A 
BRANCH  12  14
ATOM     14  S   UNL     1      29.010  21.932  15.831  0.00  0.00    -0.016 S 
BRANCH  14  15
ATOM     15  C   UNL     1      29.843  21.926  17.432  0.00  0.00    +0.448 C 
ATOM     16  F   UNL     1      30.444  20.752  17.738  0.00  0.00    -0.160 F 
ATOM     17  F   UNL     1      30.798  22.886  17.483  0.00  0.00    -0.160 F 
ATOM     18  F   UNL     1      28.962  22.189  18.429  0.00  0.00    -0.160 F 
ENDBRANCH  14  15
ENDBRANCH  12  14
ENDBRANCH   5   8
BRANCH   1  20
ATOM     19  N   UNL     1      32.332  18.808  11.981  0.00  0.00    -0.329 N 
ATOM     20  C   UNL     1      33.064  18.097  12.886  0.00  0.00    +0.215 C 
ATOM     21  O   UNL     1      34.282  18.057  12.796  0.00  0.00    -0.276 OA
ATOM     22  H   UNL     1      32.836  19.275  11.237  0.00  0.00    +0.145 HD
ATOM     23  H   UNL     1      31.323  18.819  11.965  0.00  0.00    +0.145 HD
ENDBRANCH   1  20
TORSDOF 4
ENDMDL
MODEL 2
REMARK VINA RESULT:      -6.7      4.741      6.974
REMARK  Name = ZINC000826139982
REMARK  4 active torsions:
REMARK  status: ('A' for Active; 'I' for Inactive)
REMARK    1  A    between atoms: C_2  and  C_4
REMARK    2  A    between atoms: C_8  and  C_10
REMARK    3  A    between atoms: C_14  and  S_15
REMARK    4  A    between atoms: S_15  and  C_16
REMARK                            x       y       z     vdW  Elec       q    Type
REMARK                         _______ _______ _______ _____ _____    ______ ____
ROOT
ATOM      1  C   UNL     1      27.513  20.723  16.386  0.00  0.00    +0.093 C 
ATOM      2  C   UNL     1      26.238  19.886  16.536  0.00  0.00    +0.033 C 
ATOM      3  C   UNL     1      26.705  18.436  16.550  0.00  0.00    +0.109 C 
ATOM      4  N   UNL     1      27.938  18.453  15.790  0.00  0.00    -0.297 N 
ATOM      5  C   UNL     1      28.400  17.322  15.129  0.00  0.00    +0.247 C 
ATOM      6  O   UNL     1      27.738  16.285  15.092  0.00  0.00    -0.270 OA
ATOM      7  C   UNL     1      28.599  19.735  15.976  0.00  0.00    +0.120 C 
ENDROOT
BRANCH   5   8
ATOM      8  C   UNL     1      29.693  17.348  14.369  0.00  0.00    +0.038 A 
ATOM      9  C   UNL     1      30.120  18.442  13.610  0.00  0.00    +0.013 A 
ATOM     10  C   UNL     1      31.269  18.367  12.824  0.00  0.00    +0.002 A 
ATOM     11  C   UNL     1      32.067  17.229  12.871  0.00  0.00    +0.015 A 
ATOM     12  C   UNL     1      31.737  16.176  13.729  0.00  0.00    +0.017 A 
ATOM     13  C   UNL     1      30.532  16.224  14.446  0.00  0.00    +0.028 A 
BRANCH  12  14
ATOM     14  S   UNL     1      32.807  14.761  13.886  0.00  0.00    -0.016 S 
BRANCH  14  15
ATOM     15  C   UNL     1      32.082  13.637  12.674  0.00  0.00    +0.448 C 
ATOM     16  F   UNL     1      31.009  14.145  12.022  0.00  0.00    -0.160 F 
ATOM     17  F   UNL     1      32.991  13.292  11.731  0.00  0.00    -0.160 F 
ATOM     18  F   UNL     1      31.673  12.490  13.271  0.00  0.00    -0.160 F 
ENDBRANCH  14  15
ENDBRANCH  12  14
ENDBRANCH   5   8
BRANCH   1  20
ATOM     19  N   UNL     1      26.861  21.791  18.468  0.00  0.00    -0.329 N 
ATOM     20  C   UNL     1      27.896  21.510  17.625  0.00  0.00    +0.215 C 
ATOM     21  O   UNL     1      29.016  21.937  17.863  0.00  0.00    -0.276 OA
ATOM     22  H   UNL     1      27.060  22.374  19.272  0.00  0.00    +0.145 HD
ATOM     23  H   UNL     1      25.905  21.526  18.284  0.00  0.00    +0.145 HD
ENDBRANCH   1  20
TORSDOF 4
ENDMDL
MODEL 3
REMARK VINA RESULT:      -6.7      6.081      7.716
REMARK  Name = ZINC000826139982
REMARK  4 active torsions:
REMARK  status: ('A' for Active; 'I' for Inactive)
REMARK    1  A    between atoms: C_2  and  C_4
REMARK    2  A    between atoms: C_8  and  C_10
REMARK    3  A    between atoms: C_14  and  S_15
REMARK    4  A    between atoms: S_15  and  C_16
REMARK                            x       y       z     vdW  Elec       q    Type
REMARK                         _______ _______ _______ _____ _____    ______ ____
ROOT
ATOM      1  C   UNL     1      28.870  20.225  14.546  0.00  0.00    +0.093 C 
ATOM      2  C   UNL     1      29.853  19.060  14.704  0.00  0.00    +0.033 C 
ATOM      3  C   UNL     1      31.238  19.681  14.593  0.00  0.00    +0.109 C 
ATOM      4  N   UNL     1      31.035  20.859  13.775  0.00  0.00    -0.297 N 
ATOM      5  C   UNL     1      32.064  21.401  13.014  0.00  0.00    +0.247 C 
ATOM      6  O   UNL     1      33.164  20.855  12.940  0.00  0.00    -0.270 OA
ATOM      7  C   UNL     1      29.702  21.386  14.015  0.00  0.00    +0.120 C 
ENDROOT
BRANCH   5   8
ATOM      8  C   UNL     1      31.845  22.637  12.193  0.00  0.00    +0.038 A 
ATOM      9  C   UNL     1      30.813  23.550  12.433  0.00  0.00    +0.013 A 
ATOM     10  C   UNL     1      30.580  24.616  11.564  0.00  0.00    +0.002 A 
ATOM     11  C   UNL     1      31.445  24.844  10.500  0.00  0.00    +0.015 A 
ATOM     12  C   UNL     1      32.565  24.027  10.319  0.00  0.00    +0.017 A 
ATOM     13  C   UNL     1      32.740  22.906  11.143  0.00  0.00    +0.028 A 
BRANCH  12  14
ATOM     14  S   UNL     1      33.745  24.373   9.030  0.00  0.00    -0.016 S 
BRANCH  14  15
ATOM     15  C   UNL     1      32.984  23.532   7.625  0.00  0.00    +0.448 C 
ATOM     16  F   UNL     1      32.653  22.242   7.867  0.00  0.00    -0.160 F 
ATOM     17  F   UNL     1      31.852  24.167   7.238  0.00  0.00    -0.160 F 
ATOM     18  F   UNL     1      33.824  23.530   6.560  0.00  0.00    -0.160 F 
ENDBRANCH  14  15
ENDBRANCH  12  14
ENDBRANCH   5   8
BRANCH   1  20
ATOM     19  N   UNL     1      28.162  21.915  16.141  0.00  0.00    -0.329 N 
ATOM     20  C   UNL     1      28.124  20.592  15.816  0.00  0.00    +0.215 C 
ATOM     21  O   UNL     1      27.572  19.792  16.556  0.00  0.00    -0.276 OA
ATOM     22  H   UNL     1      27.737  22.193  17.017  0.00  0.00    +0.145 HD
ATOM     23  H   UNL     1      28.664  22.608  15.604  0.00  0.00    +0.145 HD
ENDBRANCH   1  20
TORSDOF 4
ENDMDL
MODEL 4
REMARK VINA RESULT:      -6.6     10.017     12.119
REMARK  Name = ZINC000826139982
REMARK  4 active torsions:
REMARK  status: ('A' for Active; 'I' for Inactive)
REMARK    1  A    between atoms: C_2  and  C_4
REMARK    2  A    between atoms: C_8  and  C_10
REMARK    3  A    between atoms: C_14  and  S_15
REMARK    4  A    between atoms: S_15  and  C_16
REMARK                            x       y       z     vdW  Elec       q    Type
REMARK                         _______ _______ _______ _____ _____    ______ ____
ROOT
ATOM      1  C   UNL     1      24.138  30.423  18.551  0.00  0.00    +0.093 C 
ATOM      2  C   UNL     1      25.099  31.120  19.520  0.00  0.00    +0.033 C 
ATOM      3  C   UNL     1      25.964  30.010  20.101  0.00  0.00    +0.109 C 
ATOM      4  N   UNL     1      25.126  28.831  20.025  0.00  0.00    -0.297 N 
ATOM      5  C   UNL     1      25.302  27.758  20.891  0.00  0.00    +0.247 C 
ATOM      6  O   UNL     1      26.120  27.801  21.809  0.00  0.00    -0.270 OA
ATOM      7  C   UNL     1      24.252  28.937  18.869  0.00  0.00    +0.120 C 
ENDROOT
BRANCH   5   8
ATOM      8  C   UNL     1      24.444  26.532  20.781  0.00  0.00    +0.038 A 
ATOM      9  C   UNL     1      23.357  26.273  21.621  0.00  0.00    +0.013 A 
ATOM     10  C   UNL     1      22.671  25.061  21.556  0.00  0.00    +0.002 A 
ATOM     11  C   UNL     1      22.998  24.132  20.575  0.00  0.00    +0.015 A 
ATOM     12  C   UNL     1      23.989  24.426  19.633  0.00  0.00    +0.017 A 
ATOM     13  C   UNL     1      24.733  25.607  19.763  0.00  0.00    +0.028 A 
BRANCH  12  14
ATOM     14  S   UNL     1      24.341  23.297  18.302  0.00  0.00    -0.016 S 
BRANCH  14  15
ATOM     15  C   UNL     1      23.104  23.794  17.085  0.00  0.00    +0.448 C 
ATOM     16  F   UNL     1      21.826  23.674  17.517  0.00  0.00    -0.160 F 
ATOM     17  F   UNL     1      23.279  25.086  16.718  0.00  0.00    -0.160 F 
ATOM     18  F   UNL     1      23.212  23.042  15.961  0.00  0.00    -0.160 F 
ENDBRANCH  14  15
ENDBRANCH  12  14
ENDBRANCH   5   8
BRANCH   1  20
ATOM     19  N   UNL     1      24.140  29.681  16.238  0.00  0.00    -0.329 N 
ATOM     20  C   UNL     1      24.404  30.715  17.086  0.00  0.00    +0.215 C 
ATOM     21  O   UNL     1      24.878  31.756  16.657  0.00  0.00    -0.276 OA
ATOM     22  H   UNL     1      24.369  29.809  15.260  0.00  0.00    +0.145 HD
ATOM     23  H   UNL     1      23.815  28.775  16.546  0.00  0.00    +0.145 HD
ENDBRANCH   1  20
TORSDOF 4
ENDMDL
MODEL 5
REMARK VINA RESULT:      -6.6      4.112      5.295
REMARK  Name = ZINC000826139982
REMARK  4 active torsions:
REMARK  status: ('A' for Active; 'I' for Inactive)
REMARK    1  A    between atoms: C_2  and  C_4
REMARK    2  A    between atoms: C_8  and  C_10
REMARK    3  A    between atoms: C_14  and  S_15
REMARK    4  A    between atoms: S_15  and  C_16
REMARK                            x       y       z     vdW  Elec       q    Type
REMARK                         _______ _______ _______ _____ _____    ______ ____
ROOT
ATOM      1  C   UNL     1      31.493  23.397  12.816  0.00  0.00    +0.093 C 
ATOM      2  C   UNL     1      32.792  23.569  13.612  0.00  0.00    +0.033 C 
ATOM      3  C   UNL     1      32.851  22.374  14.554  0.00  0.00    +0.109 C 
ATOM      4  N   UNL     1      31.463  22.015  14.760  0.00  0.00    -0.297 N 
ATOM      5  C   UNL     1      31.045  21.356  15.909  0.00  0.00    +0.247 C 
ATOM      6  O   UNL     1      31.822  21.125  16.835  0.00  0.00    -0.270 OA
ATOM      7  C   UNL     1      30.704  22.326  13.559  0.00  0.00    +0.120 C 
ENDROOT
BRANCH   5   8
ATOM      8  C   UNL     1      29.608  20.967  16.095  0.00  0.00    +0.038 A 
ATOM      9  C   UNL     1      28.581  21.890  16.317  0.00  0.00    +0.013 A 
ATOM     10  C   UNL     1      27.285  21.466  16.606  0.00  0.00    +0.002 A 
ATOM     11  C   UNL     1      26.975  20.111  16.572  0.00  0.00    +0.015 A 
ATOM     12  C   UNL     1      27.952  19.177  16.215  0.00  0.00    +0.017 A 
ATOM     13  C   UNL     1      29.272  19.605  16.014  0.00  0.00    +0.028 A 
BRANCH  12  14
ATOM     14  S   UNL     1      27.545  17.451  16.055  0.00  0.00    -0.016 S 
BRANCH  14  15
ATOM     15  C   UNL     1      28.375  17.037  14.506  0.00  0.00    +0.448 C 
ATOM     16  F   UNL     1      27.817  15.998  13.841  0.00  0.00    -0.160 F 
ATOM     17  F   UNL     1      28.374  18.095  13.661  0.00  0.00    -0.160 F 
ATOM     18  F   UNL     1      29.671  16.710  14.733  0.00  0.00    -0.160 F 
ENDBRANCH  14  15
ENDBRANCH  12  14
ENDBRANCH   5   8
BRANCH   1  20
ATOM     19  N   UNL     1      32.071  21.756  11.121  0.00  0.00    -0.329 N 
ATOM     20  C   UNL     1      31.696  23.046  11.354  0.00  0.00    +0.215 C 
ATOM     21  O   UNL     1      31.605  23.837  10.427  0.00  0.00    -0.276 OA
ATOM     22  H   UNL     1      32.285  21.497  10.166  0.00  0.00    +0.145 HD
ATOM     23  H   UNL     1      32.231  21.080  11.855  0.00  0.00    +0.145 HD
ENDBRANCH   1  20
TORSDOF 4
ENDMDL
MODEL 6
REMARK VINA RESULT:      -6.5      2.680      3.798
REMARK  Name = ZINC000826139982
REMARK  4 active torsions:
REMARK  status: ('A' for Active; 'I' for Inactive)
REMARK    1  A    between atoms: C_2  and  C_4
REMARK    2  A    between atoms: C_8  and  C_10
REMARK    3  A    between atoms: C_14  and  S_15
REMARK    4  A    between atoms: S_15  and  C_16
REMARK                            x       y       z     vdW  Elec       q    Type
REMARK                         _______ _______ _______ _____ _____    ______ ____
ROOT
ATOM      1  C   UNL     1      32.315  14.134  11.659  0.00  0.00    +0.093 C 
ATOM      2  C   UNL     1      33.712  14.179  12.288  0.00  0.00    +0.033 C 
ATOM      3  C   UNL     1      33.493  14.616  13.730  0.00  0.00    +0.109 C 
ATOM      4  N   UNL     1      32.272  15.393  13.684  0.00  0.00    -0.297 N 
ATOM      5  C   UNL     1      32.002  16.380  14.624  0.00  0.00    +0.247 C 
ATOM      6  O   UNL     1      32.827  16.691  15.483  0.00  0.00    -0.270 OA
ATOM      7  C   UNL     1      31.408  14.867  12.639  0.00  0.00    +0.120 C 
ENDROOT
BRANCH   5   8
ATOM      8  C   UNL     1      30.720  17.157  14.579  0.00  0.00    +0.038 A 
ATOM      9  C   UNL     1      29.456  16.564  14.650  0.00  0.00    +0.013 A 
ATOM     10  C   UNL     1      28.297  17.320  14.478  0.00  0.00    +0.002 A 
ATOM     11  C   UNL     1      28.385  18.701  14.340  0.00  0.00    +0.015 A 
ATOM     12  C   UNL     1      29.629  19.335  14.405  0.00  0.00    +0.017 A 
ATOM     13  C   UNL     1      30.794  18.558  14.488  0.00  0.00    +0.028 A 
BRANCH  12  14
ATOM     14  S   UNL     1      29.750  21.111  14.344  0.00  0.00    -0.016 S 
BRANCH  14  15
ATOM     15  C   UNL     1      29.061  21.564  15.950  0.00  0.00    +0.448 C 
ATOM     16  F   UNL     1      27.708  21.613  15.976  0.00  0.00    -0.160 F 
ATOM     17  F   UNL     1      29.445  20.685  16.906  0.00  0.00    -0.160 F 
ATOM     18  F   UNL     1      29.507  22.787  16.331  0.00  0.00    -0.160 F 
ENDBRANCH  14  15
ENDBRANCH  12  14
ENDBRANCH   5   8
BRANCH   1  20
ATOM     19  N   UNL     1      32.718  11.922  10.740  0.00  0.00    -0.329 N 
ATOM     20  C   UNL     1      31.811  12.737  11.350  0.00  0.00    +0.215 C 
ATOM     21  O   UNL     1      30.672  12.345  11.555  0.00  0.00    -0.276 OA
ATOM     22  H   UNL     1      32.402  11.004  10.454  0.00  0.00    +0.145 HD
ATOM     23  H   UNL     1      33.649  12.218  10.483  0.00  0.00    +0.145 HD
ENDBRANCH   1  20
TORSDOF 4
ENDMDL
MODEL 7
REMARK VINA RESULT:      -6.5      2.059      2.869
REMARK  Name = ZINC000826139982
REMARK  4 active torsions:
REMARK  status: ('A' for Active; 'I' for Inactive)
REMARK    1  A    between atoms: C_2  and  C_4
REMARK    2  A    between atoms: C_8  and  C_10
REMARK    3  A    between atoms: C_14  and  S_15
REMARK    4  A    between atoms: S_15  and  C_16
REMARK                            x       y       z     vdW  Elec       q    Type
REMARK                         _______ _______ _______ _____ _____    ______ ____
ROOT
ATOM      1  C   UNL     1      31.597  14.892  12.879  0.00  0.00    +0.093 C 
ATOM      2  C   UNL     1      32.443  15.822  12.003  0.00  0.00    +0.033 C 
ATOM      3  C   UNL     1      32.462  17.159  12.732  0.00  0.00    +0.109 C 
ATOM      4  N   UNL     1      31.227  17.168  13.489  0.00  0.00    -0.297 N 
ATOM      5  C   UNL     1      30.609  18.356  13.857  0.00  0.00    +0.247 C 
ATOM      6  O   UNL     1      31.040  19.447  13.484  0.00  0.00    -0.270 OA
ATOM      7  C   UNL     1      30.890  15.806  13.872  0.00  0.00    +0.120 C 
ENDROOT
BRANCH   5   8
ATOM      8  C   UNL     1      29.345  18.349  14.665  0.00  0.00    +0.038 A 
ATOM      9  C   UNL     1      28.586  17.198  14.899  0.00  0.00    +0.013 A 
ATOM     10  C   UNL     1      27.356  17.269  15.551  0.00  0.00    +0.002 A 
ATOM     11  C   UNL     1      26.918  18.481  16.074  0.00  0.00    +0.015 A 
ATOM     12  C   UNL     1      27.723  19.619  15.976  0.00  0.00    +0.017 A 
ATOM     13  C   UNL     1      28.916  19.557  15.240  0.00  0.00    +0.028 A 
BRANCH  12  14
ATOM     14  S   UNL     1      27.231  21.152  16.738  0.00  0.00    -0.016 S 
BRANCH  14  15
ATOM     15  C   UNL     1      28.817  21.773  17.334  0.00  0.00    +0.448 C 
ATOM     16  F   UNL     1      28.736  22.479  18.486  0.00  0.00    -0.160 F 
ATOM     17  F   UNL     1      29.683  20.754  17.553  0.00  0.00    -0.160 F 
ATOM     18  F   UNL     1      29.387  22.588  16.412  0.00  0.00    -0.160 F 
ENDBRANCH  14  15
ENDBRANCH  12  14
ENDBRANCH   5   8
BRANCH   1  20
ATOM     19  N   UNL     1      32.964  14.164  14.751  0.00  0.00    -0.329 N 
ATOM     20  C   UNL     1      32.384  13.796  13.573  0.00  0.00    +0.215 C 
ATOM     21  O   UNL     1      32.566  12.675  13.122  0.00  0.00    -0.276 OA
ATOM     22  H   UNL     1      33.556  13.484  15.212  0.00  0.00    +0.145 HD
ATOM     23  H   UNL     1      32.906  15.097  15.133  0.00  0.00    +0.145 HD
ENDBRANCH   1  20
TORSDOF 4
ENDMDL
MODEL 8
REMARK VINA RESULT:      -6.5      4.639      6.349
REMARK  Name = ZINC000826139982
REMARK  4 active torsions:
REMARK  status: ('A' for Active; 'I' for Inactive)
REMARK    1  A    between atoms: C_2  and  C_4
REMARK    2  A    between atoms: C_8  and  C_10
REMARK    3  A    between atoms: C_14  and  S_15
REMARK    4  A    between atoms: S_15  and  C_16
REMARK                            x       y       z     vdW  Elec       q    Type
REMARK                         _______ _______ _______ _____ _____    ______ ____
ROOT
ATOM      1  C   UNL     1      31.981  21.899  19.289  0.00  0.00    +0.093 C 
ATOM      2  C   UNL     1      32.931  22.405  18.198  0.00  0.00    +0.033 C 
ATOM      3  C   UNL     1      32.031  22.912  17.080  0.00  0.00    +0.109 C 
ATOM      4  N   UNL     1      30.817  22.134  17.221  0.00  0.00    -0.297 N 
ATOM      5  C   UNL     1      29.976  21.898  16.140  0.00  0.00    +0.247 C 
ATOM      6  O   UNL     1      30.270  22.270  15.005  0.00  0.00    -0.270 OA
ATOM      7  C   UNL     1      30.612  21.815  18.624  0.00  0.00    +0.120 C 
ENDROOT
BRANCH   5   8
ATOM      8  C   UNL     1      28.708  21.114  16.309  0.00  0.00    +0.038 A 
ATOM      9  C   UNL     1      27.470  21.700  16.588  0.00  0.00    +0.013 A 
ATOM     10  C   UNL     1      26.349  20.916  16.857  0.00  0.00    +0.002 A 
ATOM     11  C   UNL     1      26.427  19.533  16.745  0.00  0.00    +0.015 A 
ATOM     12  C   UNL     1      27.618  18.929  16.331  0.00  0.00    +0.017 A 
ATOM     13  C   UNL     1      28.763  19.719  16.150  0.00  0.00    +0.028 A 
BRANCH  12  14
ATOM     14  S   UNL     1      27.705  17.169  16.072  0.00  0.00    -0.016 S 
BRANCH  14  15
ATOM     15  C   UNL     1      28.507  17.092  14.456  0.00  0.00    +0.448 C 
ATOM     16  F   UNL     1      28.252  18.159  13.662  0.00  0.00    -0.160 F 
ATOM     17  F   UNL     1      29.852  17.008  14.589  0.00  0.00    -0.160 F 
ATOM     18  F   UNL     1      28.104  15.990  13.777  0.00  0.00    -0.160 F 
ENDBRANCH  14  15
ENDBRANCH  12  14
ENDBRANCH   5   8
BRANCH   1  20
ATOM     19  N   UNL     1      33.182  23.095  21.029  0.00  0.00    -0.329 N 
ATOM     20  C   UNL     1      31.955  22.753  20.543  0.00  0.00    +0.215 C 
ATOM     21  O   UNL     1      30.942  23.081  21.143  0.00  0.00    -0.276 OA
ATOM     22  H   UNL     1      33.211  23.606  21.903  0.00  0.00    +0.145 HD
ATOM     23  H   UNL     1      34.051  22.791  20.614  0.00  0.00    +0.145 HD
ENDBRANCH   1  20
TORSDOF 4
ENDMDL
MODEL 9
REMARK VINA RESULT:      -6.4      4.187      6.017
REMARK  Name = ZINC000826139982
REMARK  4 active torsions:
REMARK  status: ('A' for Active; 'I' for Inactive)
REMARK    1  A    between atoms: C_2  and  C_4
REMARK    2  A    between atoms: C_8  and  C_10
REMARK    3  A    between atoms: C_14  and  S_15
REMARK    4  A    between atoms: S_15  and  C_16
REMARK                            x       y       z     vdW  Elec       q    Type
REMARK                         _______ _______ _______ _____ _____    ______ ____
ROOT
ATOM      1  C   UNL     1      31.505  22.169  17.742  0.00  0.00    +0.093 C 
ATOM      2  C   UNL     1      30.570  23.360  17.979  0.00  0.00    +0.033 C 
ATOM      3  C   UNL     1      29.184  22.757  18.161  0.00  0.00    +0.109 C 
ATOM      4  N   UNL     1      29.235  21.518  17.412  0.00  0.00    -0.297 N 
ATOM      5  C   UNL     1      28.086  20.939  16.887  0.00  0.00    +0.247 C 
ATOM      6  O   UNL     1      26.992  21.497  16.964  0.00  0.00    -0.270 OA
ATOM      7  C   UNL     1      30.587  20.986  17.455  0.00  0.00    +0.120 C 
ENDROOT
BRANCH   5   8
ATOM      8  C   UNL     1      28.152  19.641  16.137  0.00  0.00    +0.038 A 
ATOM      9  C   UNL     1      27.191  18.632  16.255  0.00  0.00    +0.013 A 
ATOM     10  C   UNL     1      27.365  17.397  15.632  0.00  0.00    +0.002 A 
ATOM     11  C   UNL     1      28.455  17.192  14.794  0.00  0.00    +0.015 A 
ATOM     12  C   UNL     1      29.357  18.231  14.549  0.00  0.00    +0.017 A 
ATOM     13  C   UNL     1      29.222  19.439  15.249  0.00  0.00    +0.028 A 
BRANCH  12  14
ATOM     14  S   UNL     1      30.693  18.023  13.390  0.00  0.00    -0.016 S 
BRANCH  14  15
ATOM     15  C   UNL     1      31.263  16.361  13.809  0.00  0.00    +0.448 C 
ATOM     16  F   UNL     1      31.261  16.095  15.136  0.00  0.00    -0.160 F 
ATOM     17  F   UNL     1      30.488  15.422  13.215  0.00  0.00    -0.160 F 
ATOM     18  F   UNL     1      32.531  16.168  13.369  0.00  0.00    -0.160 F 
ENDBRANCH  14  15
ENDBRANCH  12  14
ENDBRANCH   5   8
BRANCH   1  20
ATOM     19  N   UNL     1      33.642  22.562  18.828  0.00  0.00    -0.329 N 
ATOM     20  C   UNL     1      32.460  21.885  18.886  0.00  0.00    +0.215 C 
ATOM     21  O   UNL     1      32.260  21.075  19.778  0.00  0.00    -0.276 OA
ATOM     22  H   UNL     1      34.337  22.351  19.533  0.00  0.00    +0.145 HD
ATOM     23  H   UNL     1      33.889  23.189  18.075  0.00  0.00    +0.145 HD
ENDBRANCH   1  20
TORSDOF 4
ENDMDL
