MODEL 1
REMARK VINA RESULT:      -7.5      0.000      0.000
REMARK  Name = ZINC000583127796
REMARK  2 active torsions:
REMARK  status: ('A' for Active; 'I' for Inactive)
REMARK    1  A    between atoms: C_2  and  C_4
REMARK    2  A    between atoms: C_7  and  C_8
REMARK                            x       y       z     vdW  Elec       q    Type
REMARK                         _______ _______ _______ _____ _____    ______ ____
ROOT
ATOM      1  C   UNL     1      31.669  22.523  14.135  0.00  0.00    +0.247 C 
ATOM      2  O   UNL     1      32.626  21.751  14.052  0.00  0.00    -0.270 OA
ATOM      3  N   UNL     1      31.654  23.788  13.527  0.00  0.00    -0.297 N 
ATOM      4  C   UNL     1      30.568  24.768  13.573  0.00  0.00    +0.108 C 
ATOM      5  C   UNL     1      30.125  25.215  12.192  0.00  0.00    +0.020 C 
ATOM      6  C   UNL     1      31.303  25.639  11.334  0.00  0.00    +0.011 C 
ATOM      7  C   UNL     1      32.432  24.580  11.286  0.00  0.00    -0.004 C 
ATOM      8  C   UNL     1      33.602  25.210  10.501  0.00  0.00    +0.020 C 
ATOM      9  C   UNL     1      34.462  24.124   9.895  0.00  0.00    +0.070 C 
ATOM     10  S   UNL     1      33.280  22.896   9.319  0.00  0.00    -0.160 S 
ATOM     11  C   UNL     1      31.986  23.314  10.521  0.00  0.00    +0.077 C 
ATOM     12  C   UNL     1      32.829  24.208  12.739  0.00  0.00    +0.115 C 
ENDROOT
BRANCH   1  16
ATOM     13  C   UNL     1      28.383  20.803  16.274  0.00  0.00    +0.037 A 
ATOM     14  C   UNL     1      28.339  20.850  14.878  0.00  0.00    +0.014 A 
ATOM     15  C   UNL     1      29.345  21.514  14.174  0.00  0.00    +0.014 A 
ATOM     16  C   UNL     1      30.452  22.030  14.850  0.00  0.00    +0.037 A 
ATOM     17  C   UNL     1      30.446  22.068  16.252  0.00  0.00    +0.014 A 
ATOM     18  C   UNL     1      29.404  21.464  16.963  0.00  0.00    +0.014 A 
BRANCH  13  20
ATOM     19  N   UNL     1      27.638  18.749  17.342  0.00  0.00    -0.325 N 
ATOM     20  C   UNL     1      27.357  20.056  17.051  0.00  0.00    +0.242 C 
ATOM     21  O   UNL     1      26.340  20.595  17.454  0.00  0.00    -0.270 OA
ATOM     22  H   UNL     1      26.994  18.288  17.973  0.00  0.00    +0.145 HD
ATOM     23  H   UNL     1      28.572  18.368  17.274  0.00  0.00    +0.145 HD
ENDBRANCH  13  20
ENDBRANCH   1  16
TORSDOF 2
ENDMDL
MODEL 2
REMARK VINA RESULT:      -7.4      0.473      1.154
REMARK  Name = ZINC000583127796
REMARK  2 active torsions:
REMARK  status: ('A' for Active; 'I' for Inactive)
REMARK    1  A    between atoms: C_2  and  C_4
REMARK    2  A    between atoms: C_7  and  C_8
REMARK                            x       y       z     vdW  Elec       q    Type
REMARK                         _______ _______ _______ _____ _____    ______ ____
ROOT
ATOM      1  C   UNL     1      31.719  22.528  14.301  0.00  0.00    +0.247 C 
ATOM      2  O   UNL     1      32.762  21.877  14.213  0.00  0.00    -0.270 OA
ATOM      3  N   UNL     1      31.546  23.779  13.688  0.00  0.00    -0.297 N 
ATOM      4  C   UNL     1      30.350  24.621  13.740  0.00  0.00    +0.108 C 
ATOM      5  C   UNL     1      29.845  25.003  12.361  0.00  0.00    +0.020 C 
ATOM      6  C   UNL     1      30.955  25.562  11.491  0.00  0.00    +0.011 C 
ATOM      7  C   UNL     1      32.203  24.648  11.437  0.00  0.00    -0.004 C 
ATOM      8  C   UNL     1      33.282  25.412  10.639  0.00  0.00    +0.020 C 
ATOM      9  C   UNL     1      34.263  24.434  10.030  0.00  0.00    +0.070 C 
ATOM     10  S   UNL     1      33.234  23.069   9.469  0.00  0.00    -0.160 S 
ATOM     11  C   UNL     1      31.909  23.334  10.681  0.00  0.00    +0.077 C 
ATOM     12  C   UNL     1      32.655  24.334  12.889  0.00  0.00    +0.115 C 
ENDROOT
BRANCH   1  16
ATOM     13  C   UNL     1      28.254  21.035  16.324  0.00  0.00    +0.037 A 
ATOM     14  C   UNL     1      29.382  21.385  17.071  0.00  0.00    +0.014 A 
ATOM     15  C   UNL     1      30.558  21.759  16.418  0.00  0.00    +0.014 A 
ATOM     16  C   UNL     1      30.576  21.895  15.028  0.00  0.00    +0.037 A 
ATOM     17  C   UNL     1      29.478  21.451  14.279  0.00  0.00    +0.014 A 
ATOM     18  C   UNL     1      28.321  21.009  14.929  0.00  0.00    +0.014 A 
BRANCH  13  20
ATOM     19  N   UNL     1      26.539  19.396  16.856  0.00  0.00    -0.325 N 
ATOM     20  C   UNL     1      26.969  20.687  16.990  0.00  0.00    +0.242 C 
ATOM     21  O   UNL     1      26.357  21.497  17.666  0.00  0.00    -0.270 OA
ATOM     22  H   UNL     1      25.732  19.138  17.412  0.00  0.00    +0.145 HD
ATOM     23  H   UNL     1      27.150  18.649  16.555  0.00  0.00    +0.145 HD
ENDBRANCH  13  20
ENDBRANCH   1  16
TORSDOF 2
ENDMDL
MODEL 3
REMARK VINA RESULT:      -7.0      1.344      1.682
REMARK  Name = ZINC000583127796
REMARK  2 active torsions:
REMARK  status: ('A' for Active; 'I' for Inactive)
REMARK    1  A    between atoms: C_2  and  C_4
REMARK    2  A    between atoms: C_7  and  C_8
REMARK                            x       y       z     vdW  Elec       q    Type
REMARK                         _______ _______ _______ _____ _____    ______ ____
ROOT
ATOM      1  C   UNL     1      31.478  22.827  15.128  0.00  0.00    +0.247 C 
ATOM      2  O   UNL     1      32.500  22.267  15.530  0.00  0.00    -0.270 OA
ATOM      3  N   UNL     1      31.491  23.806  14.122  0.00  0.00    -0.297 N 
ATOM      4  C   UNL     1      30.333  24.524  13.586  0.00  0.00    +0.108 C 
ATOM      5  C   UNL     1      30.227  24.416  12.076  0.00  0.00    +0.020 C 
ATOM      6  C   UNL     1      31.538  24.762  11.395  0.00  0.00    +0.011 C 
ATOM      7  C   UNL     1      32.746  23.980  11.967  0.00  0.00    -0.004 C 
ATOM      8  C   UNL     1      34.008  24.540  11.277  0.00  0.00    +0.020 C 
ATOM      9  C   UNL     1      35.109  23.502  11.294  0.00  0.00    +0.070 C 
ATOM     10  S   UNL     1      34.260  21.953  10.953  0.00  0.00    -0.160 S 
ATOM     11  C   UNL     1      32.657  22.475  11.624  0.00  0.00    +0.077 C 
ATOM     12  C   UNL     1      32.781  24.172  13.506  0.00  0.00    +0.115 C 
ENDROOT
BRANCH   1  16
ATOM     13  C   UNL     1      27.576  21.726  16.502  0.00  0.00    +0.037 A 
ATOM     14  C   UNL     1      28.374  22.548  17.302  0.00  0.00    +0.014 A 
ATOM     15  C   UNL     1      29.691  22.817  16.924  0.00  0.00    +0.014 A 
ATOM     16  C   UNL     1      30.175  22.363  15.695  0.00  0.00    +0.037 A 
ATOM     17  C   UNL     1      29.408  21.462  14.943  0.00  0.00    +0.014 A 
ATOM     18  C   UNL     1      28.112  21.135  15.355  0.00  0.00    +0.014 A 
BRANCH  13  20
ATOM     19  N   UNL     1      25.784  20.157  16.988  0.00  0.00    -0.325 N 
ATOM     20  C   UNL     1      26.152  21.466  16.847  0.00  0.00    +0.242 C 
ATOM     21  O   UNL     1      25.364  22.375  17.048  0.00  0.00    -0.270 OA
ATOM     22  H   UNL     1      24.848  19.995  17.342  0.00  0.00    +0.145 HD
ATOM     23  H   UNL     1      26.459  19.415  17.110  0.00  0.00    +0.145 HD
ENDBRANCH  13  20
ENDBRANCH   1  16
TORSDOF 2
ENDMDL
MODEL 4
REMARK VINA RESULT:      -6.7      1.085      1.167
REMARK  Name = ZINC000583127796
REMARK  2 active torsions:
REMARK  status: ('A' for Active; 'I' for Inactive)
REMARK    1  A    between atoms: C_2  and  C_4
REMARK    2  A    between atoms: C_7  and  C_8
REMARK                            x       y       z     vdW  Elec       q    Type
REMARK                         _______ _______ _______ _____ _____    ______ ____
ROOT
ATOM      1  C   UNL     1      32.088  22.203  13.938  0.00  0.00    +0.247 C 
ATOM      2  O   UNL     1      32.961  21.338  14.035  0.00  0.00    -0.270 OA
ATOM      3  N   UNL     1      32.233  23.346  13.138  0.00  0.00    -0.297 N 
ATOM      4  C   UNL     1      31.257  24.423  12.965  0.00  0.00    +0.108 C 
ATOM      5  C   UNL     1      30.922  24.680  11.507  0.00  0.00    +0.020 C 
ATOM      6  C   UNL     1      32.173  24.840  10.663  0.00  0.00    +0.011 C 
ATOM      7  C   UNL     1      33.184  23.682  10.850  0.00  0.00    -0.004 C 
ATOM      8  C   UNL     1      34.446  24.058  10.044  0.00  0.00    +0.020 C 
ATOM      9  C   UNL     1      35.211  22.808   9.669  0.00  0.00    +0.070 C 
ATOM     10  S   UNL     1      33.930  21.625   9.226  0.00  0.00    -0.160 S 
ATOM     11  C   UNL     1      32.639  22.358  10.269  0.00  0.00    +0.077 C 
ATOM     12  C   UNL     1      33.478  23.515  12.364  0.00  0.00    +0.115 C 
ENDROOT
BRANCH   1  16
ATOM     13  C   UNL     1      28.545  21.175  16.110  0.00  0.00    +0.037 A 
ATOM     14  C   UNL     1      28.549  21.059  14.718  0.00  0.00    +0.014 A 
ATOM     15  C   UNL     1      29.653  21.503  13.988  0.00  0.00    +0.014 A 
ATOM     16  C   UNL     1      30.796  21.955  14.649  0.00  0.00    +0.037 A 
ATOM     17  C   UNL     1      30.753  22.161  16.035  0.00  0.00    +0.014 A 
ATOM     18  C   UNL     1      29.621  21.782  16.763  0.00  0.00    +0.014 A 
BRANCH  13  20
ATOM     19  N   UNL     1      26.207  21.297  16.769  0.00  0.00    -0.325 N 
ATOM     20  C   UNL     1      27.408  20.660  16.921  0.00  0.00    +0.242 C 
ATOM     21  O   UNL     1      27.526  19.686  17.645  0.00  0.00    -0.270 OA
ATOM     22  H   UNL     1      25.415  20.864  17.229  0.00  0.00    +0.145 HD
ATOM     23  H   UNL     1      26.012  21.904  15.984  0.00  0.00    +0.145 HD
ENDBRANCH  13  20
ENDBRANCH   1  16
TORSDOF 2
ENDMDL
MODEL 5
REMARK VINA RESULT:      -6.6      3.190      5.309
REMARK  Name = ZINC000583127796
REMARK  2 active torsions:
REMARK  status: ('A' for Active; 'I' for Inactive)
REMARK    1  A    between atoms: C_2  and  C_4
REMARK    2  A    between atoms: C_7  and  C_8
REMARK                            x       y       z     vdW  Elec       q    Type
REMARK                         _______ _______ _______ _____ _____    ______ ____
ROOT
ATOM      1  C   UNL     1      33.665  24.015   9.994  0.00  0.00    +0.247 C 
ATOM      2  O   UNL     1      34.506  24.915  10.032  0.00  0.00    -0.270 OA
ATOM      3  N   UNL     1      33.663  23.014   9.010  0.00  0.00    -0.297 N 
ATOM      4  C   UNL     1      32.708  21.912   8.885  0.00  0.00    +0.108 C 
ATOM      5  C   UNL     1      33.385  20.555   8.830  0.00  0.00    +0.020 C 
ATOM      6  C   UNL     1      34.500  20.525   7.801  0.00  0.00    +0.011 C 
ATOM      7  C   UNL     1      35.507  21.690   7.962  0.00  0.00    -0.004 C 
ATOM      8  C   UNL     1      36.486  21.602   6.772  0.00  0.00    +0.020 C 
ATOM      9  C   UNL     1      37.798  22.264   7.131  0.00  0.00    +0.070 C 
ATOM     10  S   UNL     1      38.087  21.770   8.837  0.00  0.00    -0.160 S 
ATOM     11  C   UNL     1      36.336  21.543   9.258  0.00  0.00    +0.077 C 
ATOM     12  C   UNL     1      34.723  23.029   7.984  0.00  0.00    +0.115 C 
ENDROOT
BRANCH   1  16
ATOM     13  C   UNL     1      30.717  23.519  13.059  0.00  0.00    +0.037 A 
ATOM     14  C   UNL     1      30.450  24.377  11.989  0.00  0.00    +0.014 A 
ATOM     15  C   UNL     1      31.446  24.641  11.047  0.00  0.00    +0.014 A 
ATOM     16  C   UNL     1      32.666  23.963  11.106  0.00  0.00    +0.037 A 
ATOM     17  C   UNL     1      32.965  23.181  12.230  0.00  0.00    +0.014 A 
ATOM     18  C   UNL     1      31.992  22.969  13.213  0.00  0.00    +0.014 A 
BRANCH  13  20
ATOM     19  N   UNL     1      29.448  24.069  15.059  0.00  0.00    -0.325 N 
ATOM     20  C   UNL     1      29.660  23.173  14.048  0.00  0.00    +0.242 C 
ATOM     21  O   UNL     1      28.979  22.167  13.934  0.00  0.00    -0.270 OA
ATOM     22  H   UNL     1      28.648  23.886  15.653  0.00  0.00    +0.145 HD
ATOM     23  H   UNL     1      29.785  25.021  15.018  0.00  0.00    +0.145 HD
ENDBRANCH  13  20
ENDBRANCH   1  16
TORSDOF 2
ENDMDL
MODEL 6
REMARK VINA RESULT:      -6.5      2.080      3.063
REMARK  Name = ZINC000583127796
REMARK  2 active torsions:
REMARK  status: ('A' for Active; 'I' for Inactive)
REMARK    1  A    between atoms: C_2  and  C_4
REMARK    2  A    between atoms: C_7  and  C_8
REMARK                            x       y       z     vdW  Elec       q    Type
REMARK                         _______ _______ _______ _____ _____    ______ ____
ROOT
ATOM      1  C   UNL     1      31.104  23.099  13.722  0.00  0.00    +0.247 C 
ATOM      2  O   UNL     1      30.769  24.282  13.640  0.00  0.00    -0.270 OA
ATOM      3  N   UNL     1      32.233  22.580  13.069  0.00  0.00    -0.297 N 
ATOM      4  C   UNL     1      32.704  21.194  13.105  0.00  0.00    +0.108 C 
ATOM      5  C   UNL     1      34.154  21.081  13.539  0.00  0.00    +0.020 C 
ATOM      6  C   UNL     1      35.051  22.018  12.750  0.00  0.00    +0.011 C 
ATOM      7  C   UNL     1      34.542  23.480  12.739  0.00  0.00    -0.004 C 
ATOM      8  C   UNL     1      35.472  24.269  11.792  0.00  0.00    +0.020 C 
ATOM      9  C   UNL     1      35.456  25.737  12.157  0.00  0.00    +0.070 C 
ATOM     10  S   UNL     1      35.450  25.744  13.956  0.00  0.00    -0.160 S 
ATOM     11  C   UNL     1      34.648  24.126  14.139  0.00  0.00    +0.077 C 
ATOM     12  C   UNL     1      33.066  23.492  12.261  0.00  0.00    +0.115 C 
ENDROOT
BRANCH   1  16
ATOM     13  C   UNL     1      28.548  20.858  16.325  0.00  0.00    +0.037 A 
ATOM     14  C   UNL     1      29.717  21.425  16.839  0.00  0.00    +0.014 A 
ATOM     15  C   UNL     1      30.619  22.055  15.979  0.00  0.00    +0.014 A 
ATOM     16  C   UNL     1      30.303  22.221  14.629  0.00  0.00    +0.037 A 
ATOM     17  C   UNL     1      29.181  21.569  14.100  0.00  0.00    +0.014 A 
ATOM     18  C   UNL     1      28.310  20.877  14.948  0.00  0.00    +0.014 A 
BRANCH  13  20
ATOM     19  N   UNL     1      27.710  18.902  17.500  0.00  0.00    -0.325 N 
ATOM     20  C   UNL     1      27.541  20.229  17.221  0.00  0.00    +0.242 C 
ATOM     21  O   UNL     1      26.638  20.877  17.725  0.00  0.00    -0.270 OA
ATOM     22  H   UNL     1      27.094  18.515  18.205  0.00  0.00    +0.145 HD
ATOM     23  H   UNL     1      28.585  18.422  17.336  0.00  0.00    +0.145 HD
ENDBRANCH  13  20
ENDBRANCH   1  16
TORSDOF 2
ENDMDL
MODEL 7
REMARK VINA RESULT:      -6.4      5.163      7.439
REMARK  Name = ZINC000583127796
REMARK  2 active torsions:
REMARK  status: ('A' for Active; 'I' for Inactive)
REMARK    1  A    between atoms: C_2  and  C_4
REMARK    2  A    between atoms: C_7  and  C_8
REMARK                            x       y       z     vdW  Elec       q    Type
REMARK                         _______ _______ _______ _____ _____    ______ ____
ROOT
ATOM      1  C   UNL     1      31.854  23.288  17.862  0.00  0.00    +0.247 C 
ATOM      2  O   UNL     1      31.634  22.488  18.774  0.00  0.00    -0.270 OA
ATOM      3  N   UNL     1      31.402  23.088  16.548  0.00  0.00    -0.297 N 
ATOM      4  C   UNL     1      31.617  23.977  15.405  0.00  0.00    +0.108 C 
ATOM      5  C   UNL     1      30.322  24.366  14.717  0.00  0.00    +0.020 C 
ATOM      6  C   UNL     1      29.465  23.153  14.404  0.00  0.00    +0.011 C 
ATOM      7  C   UNL     1      29.238  22.237  15.630  0.00  0.00    -0.004 C 
ATOM      8  C   UNL     1      28.479  20.992  15.123  0.00  0.00    +0.020 C 
ATOM      9  C   UNL     1      27.707  20.358  16.260  0.00  0.00    +0.070 C 
ATOM     10  S   UNL     1      27.045  21.757  17.177  0.00  0.00    -0.160 S 
ATOM     11  C   UNL     1      28.349  22.923  16.691  0.00  0.00    +0.077 C 
ATOM     12  C   UNL     1      30.616  21.876  16.247  0.00  0.00    +0.115 C 
ENDROOT
BRANCH   1  16
ATOM     13  C   UNL     1      33.992  26.746  19.201  0.00  0.00    +0.037 A 
ATOM     14  C   UNL     1      32.595  26.758  19.221  0.00  0.00    +0.014 A 
ATOM     15  C   UNL     1      31.884  25.687  18.677  0.00  0.00    +0.014 A 
ATOM     16  C   UNL     1      32.562  24.555  18.218  0.00  0.00    +0.037 A 
ATOM     17  C   UNL     1      33.959  24.587  18.110  0.00  0.00    +0.014 A 
ATOM     18  C   UNL     1      34.673  25.689  18.591  0.00  0.00    +0.014 A 
BRANCH  13  20
ATOM     19  N   UNL     1      34.871  27.840  21.187  0.00  0.00    -0.325 N 
ATOM     20  C   UNL     1      34.779  27.846  19.823  0.00  0.00    +0.242 C 
ATOM     21  O   UNL     1      35.356  28.682  19.148  0.00  0.00    -0.270 OA
ATOM     22  H   UNL     1      35.507  28.517  21.591  0.00  0.00    +0.145 HD
ATOM     23  H   UNL     1      34.653  27.023  21.741  0.00  0.00    +0.145 HD
ENDBRANCH  13  20
ENDBRANCH   1  16
TORSDOF 2
ENDMDL
MODEL 8
REMARK VINA RESULT:      -6.2      3.278      7.297
REMARK  Name = ZINC000583127796
REMARK  2 active torsions:
REMARK  status: ('A' for Active; 'I' for Inactive)
REMARK    1  A    between atoms: C_2  and  C_4
REMARK    2  A    between atoms: C_7  and  C_8
REMARK                            x       y       z     vdW  Elec       q    Type
REMARK                         _______ _______ _______ _____ _____    ______ ____
ROOT
ATOM      1  C   UNL     1      30.450  23.802  13.077  0.00  0.00    +0.247 C 
ATOM      2  O   UNL     1      29.292  23.967  12.689  0.00  0.00    -0.270 OA
ATOM      3  N   UNL     1      30.800  23.755  14.435  0.00  0.00    -0.297 N 
ATOM      4  C   UNL     1      32.143  23.568  14.987  0.00  0.00    +0.108 C 
ATOM      5  C   UNL     1      32.216  22.412  15.967  0.00  0.00    +0.020 C 
ATOM      6  C   UNL     1      31.124  22.497  17.018  0.00  0.00    +0.011 C 
ATOM      7  C   UNL     1      29.711  22.679  16.412  0.00  0.00    -0.004 C 
ATOM      8  C   UNL     1      28.741  22.888  17.595  0.00  0.00    +0.020 C 
ATOM      9  C   UNL     1      27.340  22.485  17.192  0.00  0.00    +0.070 C 
ATOM     10  S   UNL     1      27.576  20.997  16.208  0.00  0.00    -0.160 S 
ATOM     11  C   UNL     1      29.254  21.412  15.655  0.00  0.00    +0.077 C 
ATOM     12  C   UNL     1      29.734  23.893  15.446  0.00  0.00    +0.115 C 
ENDROOT
BRANCH   1  16
ATOM     13  C   UNL     1      33.170  22.938   9.886  0.00  0.00    +0.037 A 
ATOM     14  C   UNL     1      33.276  22.227  11.084  0.00  0.00    +0.014 A 
ATOM     15  C   UNL     1      32.477  22.579  12.173  0.00  0.00    +0.014 A 
ATOM     16  C   UNL     1      31.494  23.560  12.034  0.00  0.00    +0.037 A 
ATOM     17  C   UNL     1      31.456  24.336  10.867  0.00  0.00    +0.014 A 
ATOM     18  C   UNL     1      32.304  24.031   9.797  0.00  0.00    +0.014 A 
BRANCH  13  20
ATOM     19  N   UNL     1      34.668  23.550   8.071  0.00  0.00    -0.325 N 
ATOM     20  C   UNL     1      33.967  22.552   8.690  0.00  0.00    +0.242 C 
ATOM     21  O   UNL     1      34.035  21.395   8.311  0.00  0.00    -0.270 OA
ATOM     22  H   UNL     1      35.301  23.257   7.337  0.00  0.00    +0.145 HD
ATOM     23  H   UNL     1      34.858  24.436   8.518  0.00  0.00    +0.145 HD
ENDBRANCH  13  20
ENDBRANCH   1  16
TORSDOF 2
ENDMDL
MODEL 9
REMARK VINA RESULT:      -6.1      1.751      2.180
REMARK  Name = ZINC000583127796
REMARK  2 active torsions:
REMARK  status: ('A' for Active; 'I' for Inactive)
REMARK    1  A    between atoms: C_2  and  C_4
REMARK    2  A    between atoms: C_7  and  C_8
REMARK                            x       y       z     vdW  Elec       q    Type
REMARK                         _______ _______ _______ _____ _____    ______ ____
ROOT
ATOM      1  C   UNL     1      32.718  23.132  14.347  0.00  0.00    +0.247 C 
ATOM      2  O   UNL     1      33.769  22.575  14.668  0.00  0.00    -0.270 OA
ATOM      3  N   UNL     1      32.590  23.909  13.185  0.00  0.00    -0.297 N 
ATOM      4  C   UNL     1      31.388  24.607  12.727  0.00  0.00    +0.108 C 
ATOM      5  C   UNL     1      31.003  24.237  11.307  0.00  0.00    +0.020 C 
ATOM      6  C   UNL     1      32.182  24.350  10.358  0.00  0.00    +0.011 C 
ATOM      7  C   UNL     1      33.437  23.591  10.854  0.00  0.00    -0.004 C 
ATOM      8  C   UNL     1      34.576  23.917   9.864  0.00  0.00    +0.020 C 
ATOM      9  C   UNL     1      35.614  22.816   9.891  0.00  0.00    +0.070 C 
ATOM     10  S   UNL     1      34.648  21.303  10.004  0.00  0.00    -0.160 S 
ATOM     11  C   UNL     1      33.220  22.062  10.827  0.00  0.00    +0.077 C 
ATOM     12  C   UNL     1      33.761  24.055  12.299  0.00  0.00    +0.115 C 
ENDROOT
BRANCH   1  16
ATOM     13  C   UNL     1      29.085  22.601  16.549  0.00  0.00    +0.037 A 
ATOM     14  C   UNL     1      30.041  23.506  17.018  0.00  0.00    +0.014 A 
ATOM     15  C   UNL     1      31.278  23.601  16.379  0.00  0.00    +0.014 A 
ATOM     16  C   UNL     1      31.520  22.882  15.207  0.00  0.00    +0.037 A 
ATOM     17  C   UNL     1      30.601  21.907  14.795  0.00  0.00    +0.014 A 
ATOM     18  C   UNL     1      29.387  21.759  15.475  0.00  0.00    +0.014 A 
BRANCH  13  20
ATOM     19  N   UNL     1      27.028  23.681  17.268  0.00  0.00    -0.325 N 
ATOM     20  C   UNL     1      27.736  22.515  17.173  0.00  0.00    +0.242 C 
ATOM     21  O   UNL     1      27.264  21.450  17.534  0.00  0.00    -0.270 OA
ATOM     22  H   UNL     1      26.068  23.592  17.580  0.00  0.00    +0.145 HD
ATOM     23  H   UNL     1      27.265  24.504  16.731  0.00  0.00    +0.145 HD
ENDBRANCH  13  20
ENDBRANCH   1  16
TORSDOF 2
ENDMDL
