MODEL 1
REMARK VINA RESULT:      -6.3      0.000      0.000
REMARK  Name = ZINC000870248439
REMARK  2 active torsions:
REMARK  status: ('A' for Active; 'I' for Inactive)
REMARK    1  A    between atoms: C_2  and  C_4
REMARK    2  A    between atoms: C_7  and  C_8
REMARK                            x       y       z     vdW  Elec       q    Type
REMARK                         _______ _______ _______ _____ _____    ______ ____
ROOT
ATOM      1  C   UNL     1      18.978   5.170  28.155  0.00  0.00    +0.247 C 
ATOM      2  O   UNL     1      18.949   5.716  27.053  0.00  0.00    -0.270 OA
ATOM      3  N   UNL     1      20.156   4.689  28.743  0.00  0.00    -0.297 N 
ATOM      4  C   UNL     1      20.245   4.001  30.033  0.00  0.00    +0.108 C 
ATOM      5  C   UNL     1      21.492   4.369  30.827  0.00  0.00    +0.026 C 
ATOM      6  C   UNL     1      22.799   4.263  30.012  0.00  0.00    -0.025 C 
ATOM      7  C   UNL     1      23.933   4.872  30.875  0.00  0.00    +0.017 C 
ATOM      8  C   UNL     1      25.319   4.824  30.245  0.00  0.00    +0.069 C 
ATOM      9  S   UNL     1      25.860   3.127  29.900  0.00  0.00    -0.161 S 
ATOM     10  C   UNL     1      24.421   2.538  28.968  0.00  0.00    +0.069 C 
ATOM     11  C   UNL     1      23.118   2.773  29.723  0.00  0.00    +0.017 C 
ATOM     12  C   UNL     1      22.596   5.091  28.717  0.00  0.00    +0.026 C 
ATOM     13  C   UNL     1      21.363   4.663  27.921  0.00  0.00    +0.108 C 
ENDROOT
BRANCH   1  17
ATOM     14  C   UNL     1      15.160   5.017  30.059  0.00  0.00    +0.037 A 
ATOM     15  C   UNL     1      16.048   6.046  30.389  0.00  0.00    +0.014 A 
ATOM     16  C   UNL     1      17.333   6.050  29.847  0.00  0.00    +0.014 A 
ATOM     17  C   UNL     1      17.699   5.085  28.902  0.00  0.00    +0.037 A 
ATOM     18  C   UNL     1      16.843   4.007  28.642  0.00  0.00    +0.014 A 
ATOM     19  C   UNL     1      15.576   3.968  29.230  0.00  0.00    +0.014 A 
BRANCH  14  21
ATOM     20  N   UNL     1      12.963   6.047  30.193  0.00  0.00    -0.325 N 
ATOM     21  C   UNL     1      13.769   5.013  30.578  0.00  0.00    +0.242 C 
ATOM     22  O   UNL     1      13.346   4.101  31.273  0.00  0.00    -0.270 OA
ATOM     23  H   UNL     1      11.987   5.970  30.451  0.00  0.00    +0.145 HD
ATOM     24  H   UNL     1      13.196   6.658  29.423  0.00  0.00    +0.145 HD
ENDBRANCH  14  21
ENDBRANCH   1  17
TORSDOF 2
ENDMDL
MODEL 2
REMARK VINA RESULT:      -6.3     28.255     30.768
REMARK  Name = ZINC000870248439
REMARK  2 active torsions:
REMARK  status: ('A' for Active; 'I' for Inactive)
REMARK    1  A    between atoms: C_2  and  C_4
REMARK    2  A    between atoms: C_7  and  C_8
REMARK                            x       y       z     vdW  Elec       q    Type
REMARK                         _______ _______ _______ _____ _____    ______ ____
ROOT
ATOM      1  C   UNL     1      33.345  23.374   9.156  0.00  0.00    +0.247 C 
ATOM      2  O   UNL     1      32.622  24.274   8.730  0.00  0.00    -0.270 OA
ATOM      3  N   UNL     1      33.376  22.987  10.502  0.00  0.00    -0.297 N 
ATOM      4  C   UNL     1      34.241  21.949  11.069  0.00  0.00    +0.108 C 
ATOM      5  C   UNL     1      33.559  21.123  12.153  0.00  0.00    +0.026 C 
ATOM      6  C   UNL     1      32.871  21.976  13.241  0.00  0.00    -0.025 C 
ATOM      7  C   UNL     1      32.048  21.014  14.134  0.00  0.00    +0.017 C 
ATOM      8  C   UNL     1      31.321  21.676  15.296  0.00  0.00    +0.069 C 
ATOM      9  S   UNL     1      32.458  22.507  16.438  0.00  0.00    -0.161 S 
ATOM     10  C   UNL     1      33.384  23.521  15.254  0.00  0.00    +0.069 C 
ATOM     11  C   UNL     1      33.944  22.688  14.106  0.00  0.00    +0.017 C 
ATOM     12  C   UNL     1      31.935  22.976  12.512  0.00  0.00    +0.026 C 
ATOM     13  C   UNL     1      32.662  23.820  11.465  0.00  0.00    +0.108 C 
ENDROOT
BRANCH   1  17
ATOM     14  C   UNL     1      35.597  21.438   6.088  0.00  0.00    +0.037 A 
ATOM     15  C   UNL     1      34.514  20.768   6.668  0.00  0.00    +0.014 A 
ATOM     16  C   UNL     1      33.833  21.352   7.737  0.00  0.00    +0.014 A 
ATOM     17  C   UNL     1      34.169  22.642   8.162  0.00  0.00    +0.037 A 
ATOM     18  C   UNL     1      35.307  23.271   7.642  0.00  0.00    +0.014 A 
ATOM     19  C   UNL     1      36.028  22.663   6.611  0.00  0.00    +0.014 A 
BRANCH  14  21
ATOM     20  N   UNL     1      36.621  21.730   3.903  0.00  0.00    -0.325 N 
ATOM     21  C   UNL     1      36.308  20.868   4.917  0.00  0.00    +0.242 C 
ATOM     22  O   UNL     1      36.647  19.694   4.881  0.00  0.00    -0.270 OA
ATOM     23  H   UNL     1      37.211  21.358   3.169  0.00  0.00    +0.145 HD
ATOM     24  H   UNL     1      36.593  22.733   4.018  0.00  0.00    +0.145 HD
ENDBRANCH  14  21
ENDBRANCH   1  17
TORSDOF 2
ENDMDL
MODEL 3
REMARK VINA RESULT:      -6.2      1.798      2.536
REMARK  Name = ZINC000870248439
REMARK  2 active torsions:
REMARK  status: ('A' for Active; 'I' for Inactive)
REMARK    1  A    between atoms: C_2  and  C_4
REMARK    2  A    between atoms: C_7  and  C_8
REMARK                            x       y       z     vdW  Elec       q    Type
REMARK                         _______ _______ _______ _____ _____    ______ ____
ROOT
ATOM      1  C   UNL     1      21.552   5.921  28.765  0.00  0.00    +0.247 C 
ATOM      2  O   UNL     1      21.747   6.816  27.944  0.00  0.00    -0.270 OA
ATOM      3  N   UNL     1      22.586   5.196  29.371  0.00  0.00    -0.297 N 
ATOM      4  C   UNL     1      22.411   4.099  30.326  0.00  0.00    +0.108 C 
ATOM      5  C   UNL     1      23.456   4.093  31.435  0.00  0.00    +0.026 C 
ATOM      6  C   UNL     1      24.907   4.198  30.919  0.00  0.00    -0.025 C 
ATOM      7  C   UNL     1      25.824   4.401  32.152  0.00  0.00    +0.017 C 
ATOM      8  C   UNL     1      27.312   4.491  31.840  0.00  0.00    +0.069 C 
ATOM      9  S   UNL     1      27.941   2.990  31.038  0.00  0.00    -0.161 S 
ATOM     10  C   UNL     1      26.740   2.848  29.687  0.00  0.00    +0.069 C 
ATOM     11  C   UNL     1      25.303   2.885  30.195  0.00  0.00    +0.017 C 
ATOM     12  C   UNL     1      24.970   5.435  29.985  0.00  0.00    +0.026 C 
ATOM     13  C   UNL     1      23.940   5.385  28.857  0.00  0.00    +0.108 C 
ENDROOT
BRANCH   1  17
ATOM     14  C   UNL     1      17.441   5.444  29.815  0.00  0.00    +0.037 A 
ATOM     15  C   UNL     1      18.397   5.560  30.829  0.00  0.00    +0.014 A 
ATOM     16  C   UNL     1      19.751   5.618  30.499  0.00  0.00    +0.014 A 
ATOM     17  C   UNL     1      20.145   5.659  29.157  0.00  0.00    +0.037 A 
ATOM     18  C   UNL     1      19.196   5.452  28.148  0.00  0.00    +0.014 A 
ATOM     19  C   UNL     1      17.843   5.333  28.478  0.00  0.00    +0.014 A 
BRANCH  14  21
ATOM     20  N   UNL     1      15.541   6.381  31.006  0.00  0.00    -0.325 N 
ATOM     21  C   UNL     1      15.990   5.433  30.131  0.00  0.00    +0.242 C 
ATOM     22  O   UNL     1      15.223   4.648  29.594  0.00  0.00    -0.270 OA
ATOM     23  H   UNL     1      14.537   6.443  31.118  0.00  0.00    +0.145 HD
ATOM     24  H   UNL     1      16.089   7.193  31.254  0.00  0.00    +0.145 HD
ENDBRANCH  14  21
ENDBRANCH   1  17
TORSDOF 2
ENDMDL
MODEL 4
REMARK VINA RESULT:      -6.2     30.277     32.297
REMARK  Name = ZINC000870248439
REMARK  2 active torsions:
REMARK  status: ('A' for Active; 'I' for Inactive)
REMARK    1  A    between atoms: C_2  and  C_4
REMARK    2  A    between atoms: C_7  and  C_8
REMARK                            x       y       z     vdW  Elec       q    Type
REMARK                         _______ _______ _______ _____ _____    ______ ____
ROOT
ATOM      1  C   UNL     1      35.384  24.712   8.942  0.00  0.00    +0.247 C 
ATOM      2  O   UNL     1      35.782  25.872   9.041  0.00  0.00    -0.270 OA
ATOM      3  N   UNL     1      35.936  23.785   8.047  0.00  0.00    -0.297 N 
ATOM      4  C   UNL     1      35.480  22.405   7.863  0.00  0.00    +0.108 C 
ATOM      5  C   UNL     1      36.618  21.422   7.618  0.00  0.00    +0.026 C 
ATOM      6  C   UNL     1      37.598  21.872   6.513  0.00  0.00    -0.025 C 
ATOM      7  C   UNL     1      38.801  20.895   6.535  0.00  0.00    +0.017 C 
ATOM      8  C   UNL     1      39.866  21.161   5.479  0.00  0.00    +0.069 C 
ATOM      9  S   UNL     1      39.209  21.046   3.793  0.00  0.00    -0.161 S 
ATOM     10  C   UNL     1      37.790  22.164   3.948  0.00  0.00    +0.069 C 
ATOM     11  C   UNL     1      36.900  21.795   5.130  0.00  0.00    +0.017 C 
ATOM     12  C   UNL     1      38.058  23.310   6.869  0.00  0.00    +0.026 C 
ATOM     13  C   UNL     1      36.891  24.279   7.060  0.00  0.00    +0.108 C 
ENDROOT
BRANCH   1  17
ATOM     14  C   UNL     1      32.216  23.769  11.645  0.00  0.00    +0.037 A 
ATOM     15  C   UNL     1      33.542  23.650  12.076  0.00  0.00    +0.014 A 
ATOM     16  C   UNL     1      34.584  23.862  11.173  0.00  0.00    +0.014 A 
ATOM     17  C   UNL     1      34.306  24.285   9.869  0.00  0.00    +0.037 A 
ATOM     18  C   UNL     1      32.982  24.316   9.414  0.00  0.00    +0.014 A 
ATOM     19  C   UNL     1      31.936  24.047  10.301  0.00  0.00    +0.014 A 
BRANCH  14  21
ATOM     20  N   UNL     1      30.589  24.739  13.167  0.00  0.00    -0.325 N 
ATOM     21  C   UNL     1      31.087  23.603  12.594  0.00  0.00    +0.242 C 
ATOM     22  O   UNL     1      30.589  22.509  12.812  0.00  0.00    -0.270 OA
ATOM     23  H   UNL     1      29.744  24.627  13.714  0.00  0.00    +0.145 HD
ATOM     24  H   UNL     1      30.797  25.661  12.812  0.00  0.00    +0.145 HD
ENDBRANCH  14  21
ENDBRANCH   1  17
TORSDOF 2
ENDMDL
MODEL 5
REMARK VINA RESULT:      -6.0     27.290     29.433
REMARK  Name = ZINC000870248439
REMARK  2 active torsions:
REMARK  status: ('A' for Active; 'I' for Inactive)
REMARK    1  A    between atoms: C_2  and  C_4
REMARK    2  A    between atoms: C_7  and  C_8
REMARK                            x       y       z     vdW  Elec       q    Type
REMARK                         _______ _______ _______ _____ _____    ______ ____
ROOT
ATOM      1  C   UNL     1      35.063  21.124  12.382  0.00  0.00    +0.247 C 
ATOM      2  O   UNL     1      35.948  20.388  12.818  0.00  0.00    -0.270 OA
ATOM      3  N   UNL     1      35.121  21.728  11.119  0.00  0.00    -0.297 N 
ATOM      4  C   UNL     1      34.117  22.639  10.565  0.00  0.00    +0.108 C 
ATOM      5  C   UNL     1      33.889  22.447   9.070  0.00  0.00    +0.026 C 
ATOM      6  C   UNL     1      35.192  22.433   8.242  0.00  0.00    -0.025 C 
ATOM      7  C   UNL     1      34.818  22.013   6.798  0.00  0.00    +0.017 C 
ATOM      8  C   UNL     1      35.982  21.978   5.816  0.00  0.00    +0.069 C 
ATOM      9  S   UNL     1      36.782  23.595   5.636  0.00  0.00    -0.161 S 
ATOM     10  C   UNL     1      37.083  23.976   7.383  0.00  0.00    +0.069 C 
ATOM     11  C   UNL     1      35.815  23.852   8.220  0.00  0.00    +0.017 C 
ATOM     12  C   UNL     1      36.131  21.381   8.888  0.00  0.00    +0.026 C 
ATOM     13  C   UNL     1      36.375  21.631  10.377  0.00  0.00    +0.108 C 
ENDROOT
BRANCH   1  17
ATOM     14  C   UNL     1      31.765  21.570  15.056  0.00  0.00    +0.037 A 
ATOM     15  C   UNL     1      31.751  20.530  14.120  0.00  0.00    +0.014 A 
ATOM     16  C   UNL     1      32.776  20.434  13.178  0.00  0.00    +0.014 A 
ATOM     17  C   UNL     1      33.862  21.315  13.232  0.00  0.00    +0.037 A 
ATOM     18  C   UNL     1      33.830  22.406  14.110  0.00  0.00    +0.014 A 
ATOM     19  C   UNL     1      32.774  22.540  15.015  0.00  0.00    +0.014 A 
BRANCH  14  21
ATOM     20  N   UNL     1      30.399  22.922  16.544  0.00  0.00    -0.325 N 
ATOM     21  C   UNL     1      30.717  21.668  16.103  0.00  0.00    +0.242 C 
ATOM     22  O   UNL     1      30.126  20.680  16.514  0.00  0.00    -0.270 OA
ATOM     23  H   UNL     1      29.602  22.986  17.165  0.00  0.00    +0.145 HD
ATOM     24  H   UNL     1      30.672  23.757  16.046  0.00  0.00    +0.145 HD
ENDBRANCH  14  21
ENDBRANCH   1  17
TORSDOF 2
ENDMDL
MODEL 6
REMARK VINA RESULT:      -5.9     31.501     32.687
REMARK  Name = ZINC000870248439
REMARK  2 active torsions:
REMARK  status: ('A' for Active; 'I' for Inactive)
REMARK    1  A    between atoms: C_2  and  C_4
REMARK    2  A    between atoms: C_7  and  C_8
REMARK                            x       y       z     vdW  Elec       q    Type
REMARK                         _______ _______ _______ _____ _____    ______ ____
ROOT
ATOM      1  C   UNL     1      26.244  32.174  16.757  0.00  0.00    +0.247 C 
ATOM      2  O   UNL     1      27.069  31.387  17.220  0.00  0.00    -0.270 OA
ATOM      3  N   UNL     1      26.540  33.511  16.461  0.00  0.00    -0.297 N 
ATOM      4  C   UNL     1      25.590  34.499  15.943  0.00  0.00    +0.108 C 
ATOM      5  C   UNL     1      26.206  35.451  14.926  0.00  0.00    +0.026 C 
ATOM      6  C   UNL     1      27.526  36.096  15.401  0.00  0.00    -0.025 C 
ATOM      7  C   UNL     1      28.135  36.851  14.193  0.00  0.00    +0.017 C 
ATOM      8  C   UNL     1      29.435  37.588  14.482  0.00  0.00    +0.069 C 
ATOM      9  S   UNL     1      29.240  38.853  15.768  0.00  0.00    -0.161 S 
ATOM     10  C   UNL     1      28.463  37.848  17.061  0.00  0.00    +0.069 C 
ATOM     11  C   UNL     1      27.237  37.104  16.544  0.00  0.00    +0.017 C 
ATOM     12  C   UNL     1      28.462  34.942  15.848  0.00  0.00    +0.026 C 
ATOM     13  C   UNL     1      27.829  34.035  16.904  0.00  0.00    +0.108 C 
ENDROOT
BRANCH   1  17
ATOM     14  C   UNL     1      22.442  30.378  16.014  0.00  0.00    +0.037 A 
ATOM     15  C   UNL     1      23.339  30.544  14.954  0.00  0.00    +0.014 A 
ATOM     16  C   UNL     1      24.543  31.217  15.166  0.00  0.00    +0.014 A 
ATOM     17  C   UNL     1      24.894  31.637  16.453  0.00  0.00    +0.037 A 
ATOM     18  C   UNL     1      23.958  31.551  17.492  0.00  0.00    +0.014 A 
ATOM     19  C   UNL     1      22.726  30.930  17.270  0.00  0.00    +0.014 A 
BRANCH  14  21
ATOM     20  N   UNL     1      21.282  28.353  15.334  0.00  0.00    -0.325 N 
ATOM     21  C   UNL     1      21.178  29.621  15.833  0.00  0.00    +0.242 C 
ATOM     22  O   UNL     1      20.098  30.087  16.165  0.00  0.00    -0.270 OA
ATOM     23  H   UNL     1      20.431  27.805  15.330  0.00  0.00    +0.145 HD
ATOM     24  H   UNL     1      22.160  27.854  15.302  0.00  0.00    +0.145 HD
ENDBRANCH  14  21
ENDBRANCH   1  17
TORSDOF 2
ENDMDL
MODEL 7
REMARK VINA RESULT:      -5.9     23.874     24.897
REMARK  Name = ZINC000870248439
REMARK  2 active torsions:
REMARK  status: ('A' for Active; 'I' for Inactive)
REMARK    1  A    between atoms: C_2  and  C_4
REMARK    2  A    between atoms: C_7  and  C_8
REMARK                            x       y       z     vdW  Elec       q    Type
REMARK                         _______ _______ _______ _____ _____    ______ ____
ROOT
ATOM      1  C   UNL     1      35.695  18.872  15.000  0.00  0.00    +0.247 C 
ATOM      2  O   UNL     1      36.270  18.989  13.919  0.00  0.00    -0.270 OA
ATOM      3  N   UNL     1      36.212  18.128  16.070  0.00  0.00    -0.297 N 
ATOM      4  C   UNL     1      35.556  17.926  17.363  0.00  0.00    +0.108 C 
ATOM      5  C   UNL     1      36.526  17.927  18.538  0.00  0.00    +0.026 C 
ATOM      6  C   UNL     1      37.738  16.992  18.341  0.00  0.00    -0.025 C 
ATOM      7  C   UNL     1      38.729  17.266  19.500  0.00  0.00    +0.017 C 
ATOM      8  C   UNL     1      39.982  16.401  19.494  0.00  0.00    +0.069 C 
ATOM      9  S   UNL     1      39.602  14.633  19.620  0.00  0.00    -0.161 S 
ATOM     10  C   UNL     1      38.398  14.490  18.271  0.00  0.00    +0.069 C 
ATOM     11  C   UNL     1      37.275  15.513  18.400  0.00  0.00    +0.017 C 
ATOM     12  C   UNL     1      38.380  17.360  16.978  0.00  0.00    +0.026 C 
ATOM     13  C   UNL     1      37.390  17.303  15.815  0.00  0.00    +0.108 C 
ENDROOT
BRANCH   1  17
ATOM     14  C   UNL     1      32.031  20.922  15.777  0.00  0.00    +0.037 A 
ATOM     15  C   UNL     1      32.006  19.732  15.041  0.00  0.00    +0.014 A 
ATOM     16  C   UNL     1      33.206  19.107  14.699  0.00  0.00    +0.014 A 
ATOM     17  C   UNL     1      34.421  19.614  15.172  0.00  0.00    +0.037 A 
ATOM     18  C   UNL     1      34.450  20.850  15.829  0.00  0.00    +0.014 A 
ATOM     19  C   UNL     1      33.254  21.511  16.122  0.00  0.00    +0.014 A 
BRANCH  14  21
ATOM     20  N   UNL     1      30.778  22.948  16.259  0.00  0.00    -0.325 N 
ATOM     21  C   UNL     1      30.771  21.583  16.201  0.00  0.00    +0.242 C 
ATOM     22  O   UNL     1      29.758  20.941  16.436  0.00  0.00    -0.270 OA
ATOM     23  H   UNL     1      29.884  23.391  16.430  0.00  0.00    +0.145 HD
ATOM     24  H   UNL     1      31.500  23.505  15.824  0.00  0.00    +0.145 HD
ENDBRANCH  14  21
ENDBRANCH   1  17
TORSDOF 2
ENDMDL
MODEL 8
REMARK VINA RESULT:      -5.9     23.839     25.004
REMARK  Name = ZINC000870248439
REMARK  2 active torsions:
REMARK  status: ('A' for Active; 'I' for Inactive)
REMARK    1  A    between atoms: C_2  and  C_4
REMARK    2  A    between atoms: C_7  and  C_8
REMARK                            x       y       z     vdW  Elec       q    Type
REMARK                         _______ _______ _______ _____ _____    ______ ____
ROOT
ATOM      1  C   UNL     1      34.469  18.825  17.371  0.00  0.00    +0.247 C 
ATOM      2  O   UNL     1      34.177  18.939  18.561  0.00  0.00    -0.270 OA
ATOM      3  N   UNL     1      35.355  17.853  16.887  0.00  0.00    -0.297 N 
ATOM      4  C   UNL     1      35.764  17.695  15.490  0.00  0.00    +0.108 C 
ATOM      5  C   UNL     1      35.921  16.239  15.069  0.00  0.00    +0.026 C 
ATOM      6  C   UNL     1      36.790  15.405  16.035  0.00  0.00    -0.025 C 
ATOM      7  C   UNL     1      36.673  13.922  15.600  0.00  0.00    +0.017 C 
ATOM      8  C   UNL     1      37.499  12.943  16.423  0.00  0.00    +0.069 C 
ATOM      9  S   UNL     1      39.275  13.308  16.351  0.00  0.00    -0.161 S 
ATOM     10  C   UNL     1      39.237  15.063  16.804  0.00  0.00    +0.069 C 
ATOM     11  C   UNL     1      38.270  15.856  15.932  0.00  0.00    +0.017 C 
ATOM     12  C   UNL     1      36.205  15.602  17.458  0.00  0.00    +0.026 C 
ATOM     13  C   UNL     1      36.107  17.072  17.866  0.00  0.00    +0.108 C 
ENDROOT
BRANCH   1  17
ATOM     14  C   UNL     1      32.333  21.530  14.850  0.00  0.00    +0.037 A 
ATOM     15  C   UNL     1      32.137  20.153  14.698  0.00  0.00    +0.014 A 
ATOM     16  C   UNL     1      32.901  19.259  15.449  0.00  0.00    +0.014 A 
ATOM     17  C   UNL     1      33.789  19.738  16.418  0.00  0.00    +0.037 A 
ATOM     18  C   UNL     1      34.049  21.111  16.506  0.00  0.00    +0.014 A 
ATOM     19  C   UNL     1      33.328  22.008  15.712  0.00  0.00    +0.014 A 
BRANCH  14  21
ATOM     20  N   UNL     1      31.436  23.776  14.608  0.00  0.00    -0.325 N 
ATOM     21  C   UNL     1      31.500  22.506  14.105  0.00  0.00    +0.242 C 
ATOM     22  O   UNL     1      30.940  22.207  13.061  0.00  0.00    -0.270 OA
ATOM     23  H   UNL     1      30.968  24.461  14.028  0.00  0.00    +0.145 HD
ATOM     24  H   UNL     1      32.086  24.116  15.302  0.00  0.00    +0.145 HD
ENDBRANCH  14  21
ENDBRANCH   1  17
TORSDOF 2
ENDMDL
MODEL 9
REMARK VINA RESULT:      -5.9     23.600     25.141
REMARK  Name = ZINC000870248439
REMARK  2 active torsions:
REMARK  status: ('A' for Active; 'I' for Inactive)
REMARK    1  A    between atoms: C_2  and  C_4
REMARK    2  A    between atoms: C_7  and  C_8
REMARK                            x       y       z     vdW  Elec       q    Type
REMARK                         _______ _______ _______ _____ _____    ______ ____
ROOT
ATOM      1  C   UNL     1      35.131  17.315  13.939  0.00  0.00    +0.247 C 
ATOM      2  O   UNL     1      36.212  17.461  14.508  0.00  0.00    -0.270 OA
ATOM      3  N   UNL     1      34.738  16.115  13.332  0.00  0.00    -0.297 N 
ATOM      4  C   UNL     1      33.482  15.896  12.612  0.00  0.00    +0.108 C 
ATOM      5  C   UNL     1      32.891  14.510  12.838  0.00  0.00    +0.026 C 
ATOM      6  C   UNL     1      33.901  13.363  12.621  0.00  0.00    -0.025 C 
ATOM      7  C   UNL     1      33.224  12.053  13.097  0.00  0.00    +0.017 C 
ATOM      8  C   UNL     1      34.064  10.795  12.926  0.00  0.00    +0.069 C 
ATOM      9  S   UNL     1      34.499  10.487  11.192  0.00  0.00    -0.161 S 
ATOM     10  C   UNL     1      35.196  12.105  10.767  0.00  0.00    +0.069 C 
ATOM     11  C   UNL     1      34.245  13.245  11.114  0.00  0.00    +0.017 C 
ATOM     12  C   UNL     1      35.145  13.681  13.492  0.00  0.00    +0.026 C 
ATOM     13  C   UNL     1      35.740  15.059  13.205  0.00  0.00    +0.108 C 
ENDROOT
BRANCH   1  17
ATOM     14  C   UNL     1      32.211  20.430  14.001  0.00  0.00    +0.037 A 
ATOM     15  C   UNL     1      32.949  20.207  12.834  0.00  0.00    +0.014 A 
ATOM     16  C   UNL     1      33.972  19.258  12.833  0.00  0.00    +0.014 A 
ATOM     17  C   UNL     1      34.193  18.465  13.965  0.00  0.00    +0.037 A 
ATOM     18  C   UNL     1      33.517  18.751  15.157  0.00  0.00    +0.014 A 
ATOM     19  C   UNL     1      32.532  19.742  15.178  0.00  0.00    +0.014 A 
BRANCH  14  21
ATOM     20  N   UNL     1      30.440  21.572  15.212  0.00  0.00    -0.325 N 
ATOM     21  C   UNL     1      31.083  21.394  14.019  0.00  0.00    +0.242 C 
ATOM     22  O   UNL     1      30.775  22.040  13.028  0.00  0.00    -0.270 OA
ATOM     23  H   UNL     1      29.756  22.318  15.242  0.00  0.00    +0.145 HD
ATOM     24  H   UNL     1      30.831  21.262  16.090  0.00  0.00    +0.145 HD
ENDBRANCH  14  21
ENDBRANCH   1  17
TORSDOF 2
ENDMDL
