MODEL 1
REMARK VINA RESULT:      -8.1      0.000      0.000
REMARK  Name = ZINC000583127796
REMARK  2 active torsions:
REMARK  status: ('A' for Active; 'I' for Inactive)
REMARK    1  A    between atoms: C_2  and  C_4
REMARK    2  A    between atoms: C_7  and  C_8
REMARK                            x       y       z     vdW  Elec       q    Type
REMARK                         _______ _______ _______ _____ _____    ______ ____
ROOT
ATOM      1  C   UNL     1      12.737   5.725  10.241  0.00  0.00    +0.247 C 
ATOM      2  O   UNL     1      12.956   6.932  10.123  0.00  0.00    -0.270 OA
ATOM      3  N   UNL     1      12.370   4.907   9.161  0.00  0.00    -0.297 N 
ATOM      4  C   UNL     1      12.088   3.471   9.206  0.00  0.00    +0.108 C 
ATOM      5  C   UNL     1      12.921   2.681   8.215  0.00  0.00    +0.020 C 
ATOM      6  C   UNL     1      12.854   3.279   6.822  0.00  0.00    +0.011 C 
ATOM      7  C   UNL     1      13.171   4.794   6.795  0.00  0.00    -0.004 C 
ATOM      8  C   UNL     1      12.925   5.277   5.349  0.00  0.00    +0.020 C 
ATOM      9  C   UNL     1      13.740   6.521   5.074  0.00  0.00    +0.070 C 
ATOM     10  S   UNL     1      15.318   6.200   5.877  0.00  0.00    -0.160 S 
ATOM     11  C   UNL     1      14.654   5.067   7.130  0.00  0.00    +0.077 C 
ATOM     12  C   UNL     1      12.255   5.514   7.821  0.00  0.00    +0.115 C 
ENDROOT
BRANCH   1  16
ATOM     13  C   UNL     1      13.525   4.316  14.206  0.00  0.00    +0.037 A 
ATOM     14  C   UNL     1      14.318   3.859  13.150  0.00  0.00    +0.014 A 
ATOM     15  C   UNL     1      13.998   4.215  11.838  0.00  0.00    +0.014 A 
ATOM     16  C   UNL     1      12.962   5.116  11.588  0.00  0.00    +0.037 A 
ATOM     17  C   UNL     1      12.110   5.494  12.636  0.00  0.00    +0.014 A 
ATOM     18  C   UNL     1      12.387   5.083  13.944  0.00  0.00    +0.014 A 
BRANCH  13  20
ATOM     19  N   UNL     1      12.963   3.261  16.323  0.00  0.00    -0.325 N 
ATOM     20  C   UNL     1      13.872   4.001  15.619  0.00  0.00    +0.242 C 
ATOM     21  O   UNL     1      14.936   4.339  16.109  0.00  0.00    -0.270 OA
ATOM     22  H   UNL     1      13.262   2.948  17.239  0.00  0.00    +0.145 HD
ATOM     23  H   UNL     1      12.227   2.734  15.872  0.00  0.00    +0.145 HD
ENDBRANCH  13  20
ENDBRANCH   1  16
TORSDOF 2
ENDMDL
MODEL 2
REMARK VINA RESULT:      -7.5      1.238      1.780
REMARK  Name = ZINC000583127796
REMARK  2 active torsions:
REMARK  status: ('A' for Active; 'I' for Inactive)
REMARK    1  A    between atoms: C_2  and  C_4
REMARK    2  A    between atoms: C_7  and  C_8
REMARK                            x       y       z     vdW  Elec       q    Type
REMARK                         _______ _______ _______ _____ _____    ______ ____
ROOT
ATOM      1  C   UNL     1      12.569   5.988   8.902  0.00  0.00    +0.247 C 
ATOM      2  O   UNL     1      12.726   7.132   8.470  0.00  0.00    -0.270 OA
ATOM      3  N   UNL     1      12.375   4.878   8.066  0.00  0.00    -0.297 N 
ATOM      4  C   UNL     1      12.178   3.490   8.488  0.00  0.00    +0.108 C 
ATOM      5  C   UNL     1      13.164   2.536   7.839  0.00  0.00    +0.020 C 
ATOM      6  C   UNL     1      13.217   2.722   6.333  0.00  0.00    +0.011 C 
ATOM      7  C   UNL     1      13.443   4.194   5.911  0.00  0.00    -0.004 C 
ATOM      8  C   UNL     1      13.332   4.239   4.372  0.00  0.00    +0.020 C 
ATOM      9  C   UNL     1      14.097   5.428   3.833  0.00  0.00    +0.070 C 
ATOM     10  S   UNL     1      15.591   5.481   4.835  0.00  0.00    -0.160 S 
ATOM     11  C   UNL     1      14.860   4.679   6.290  0.00  0.00    +0.077 C 
ATOM     12  C   UNL     1      12.376   5.082   6.605  0.00  0.00    +0.115 C 
ENDROOT
BRANCH   1  16
ATOM     13  C   UNL     1      12.754   5.078  13.081  0.00  0.00    +0.037 A 
ATOM     14  C   UNL     1      11.748   5.927  12.612  0.00  0.00    +0.014 A 
ATOM     15  C   UNL     1      11.746   6.328  11.274  0.00  0.00    +0.014 A 
ATOM     16  C   UNL     1      12.677   5.794  10.381  0.00  0.00    +0.037 A 
ATOM     17  C   UNL     1      13.739   5.023  10.872  0.00  0.00    +0.014 A 
ATOM     18  C   UNL     1      13.783   4.676  12.226  0.00  0.00    +0.014 A 
BRANCH  13  20
ATOM     19  N   UNL     1      11.734   5.023  15.287  0.00  0.00    -0.325 N 
ATOM     20  C   UNL     1      12.752   4.588  14.486  0.00  0.00    +0.242 C 
ATOM     21  O   UNL     1      13.587   3.796  14.890  0.00  0.00    -0.270 OA
ATOM     22  H   UNL     1      11.672   4.589  16.201  0.00  0.00    +0.145 HD
ATOM     23  H   UNL     1      10.890   5.437  14.914  0.00  0.00    +0.145 HD
ENDBRANCH  13  20
ENDBRANCH   1  16
TORSDOF 2
ENDMDL
MODEL 3
REMARK VINA RESULT:      -7.4      2.621      3.521
REMARK  Name = ZINC000583127796
REMARK  2 active torsions:
REMARK  status: ('A' for Active; 'I' for Inactive)
REMARK    1  A    between atoms: C_2  and  C_4
REMARK    2  A    between atoms: C_7  and  C_8
REMARK                            x       y       z     vdW  Elec       q    Type
REMARK                         _______ _______ _______ _____ _____    ______ ____
ROOT
ATOM      1  C   UNL     1      15.192   5.062   8.456  0.00  0.00    +0.247 C 
ATOM      2  O   UNL     1      16.377   4.761   8.614  0.00  0.00    -0.270 OA
ATOM      3  N   UNL     1      14.583   5.124   7.193  0.00  0.00    -0.297 N 
ATOM      4  C   UNL     1      13.190   5.473   6.909  0.00  0.00    +0.108 C 
ATOM      5  C   UNL     1      12.480   4.417   6.082  0.00  0.00    +0.020 C 
ATOM      6  C   UNL     1      13.283   4.034   4.852  0.00  0.00    +0.011 C 
ATOM      7  C   UNL     1      14.748   3.653   5.178  0.00  0.00    -0.004 C 
ATOM      8  C   UNL     1      15.461   3.429   3.827  0.00  0.00    +0.020 C 
ATOM      9  C   UNL     1      16.649   2.511   4.016  0.00  0.00    +0.070 C 
ATOM     10  S   UNL     1      16.063   1.266   5.175  0.00  0.00    -0.160 S 
ATOM     11  C   UNL     1      14.824   2.328   5.970  0.00  0.00    +0.077 C 
ATOM     12  C   UNL     1      15.391   4.800   6.001  0.00  0.00    +0.115 C 
ENDROOT
BRANCH   1  16
ATOM     13  C   UNL     1      12.643   5.386  11.881  0.00  0.00    +0.037 A 
ATOM     14  C   UNL     1      12.499   6.301  10.834  0.00  0.00    +0.014 A 
ATOM     15  C   UNL     1      13.400   6.282   9.767  0.00  0.00    +0.014 A 
ATOM     16  C   UNL     1      14.371   5.282   9.686  0.00  0.00    +0.037 A 
ATOM     17  C   UNL     1      14.575   4.430  10.780  0.00  0.00    +0.014 A 
ATOM     18  C   UNL     1      13.717   4.491  11.883  0.00  0.00    +0.014 A 
BRANCH  13  20
ATOM     19  N   UNL     1      12.187   5.337  14.268  0.00  0.00    -0.325 N 
ATOM     20  C   UNL     1      11.667   5.343  13.004  0.00  0.00    +0.242 C 
ATOM     21  O   UNL     1      10.464   5.367  12.808  0.00  0.00    -0.270 OA
ATOM     22  H   UNL     1      11.517   5.432  15.022  0.00  0.00    +0.145 HD
ATOM     23  H   UNL     1      13.143   5.601  14.462  0.00  0.00    +0.145 HD
ENDBRANCH  13  20
ENDBRANCH   1  16
TORSDOF 2
ENDMDL
MODEL 4
REMARK VINA RESULT:      -7.0      3.683      7.080
REMARK  Name = ZINC000583127796
REMARK  2 active torsions:
REMARK  status: ('A' for Active; 'I' for Inactive)
REMARK    1  A    between atoms: C_2  and  C_4
REMARK    2  A    between atoms: C_7  and  C_8
REMARK                            x       y       z     vdW  Elec       q    Type
REMARK                         _______ _______ _______ _____ _____    ______ ____
ROOT
ATOM      1  C   UNL     1      11.598   4.971   7.405  0.00  0.00    +0.247 C 
ATOM      2  O   UNL     1      11.821   4.264   6.420  0.00  0.00    -0.270 OA
ATOM      3  N   UNL     1      11.892   4.565   8.717  0.00  0.00    -0.297 N 
ATOM      4  C   UNL     1      11.660   5.332   9.942  0.00  0.00    +0.108 C 
ATOM      5  C   UNL     1      12.914   5.481  10.783  0.00  0.00    +0.020 C 
ATOM      6  C   UNL     1      13.600   4.147  11.011  0.00  0.00    +0.011 C 
ATOM      7  C   UNL     1      13.850   3.361   9.701  0.00  0.00    -0.004 C 
ATOM      8  C   UNL     1      14.416   1.984  10.107  0.00  0.00    +0.020 C 
ATOM      9  C   UNL     1      15.225   1.402   8.969  0.00  0.00    +0.070 C 
ATOM     10  S   UNL     1      16.122   2.811   8.300  0.00  0.00    -0.160 S 
ATOM     11  C   UNL     1      14.909   4.058   8.817  0.00  0.00    +0.077 C 
ATOM     12  C   UNL     1      12.510   3.242   8.927  0.00  0.00    +0.115 C 
ENDROOT
BRANCH   1  16
ATOM     13  C   UNL     1       9.948   8.781   6.362  0.00  0.00    +0.037 A 
ATOM     14  C   UNL     1      11.333   8.602   6.318  0.00  0.00    +0.014 A 
ATOM     15  C   UNL     1      11.893   7.406   6.769  0.00  0.00    +0.014 A 
ATOM     16  C   UNL     1      11.069   6.347   7.156  0.00  0.00    +0.037 A 
ATOM     17  C   UNL     1       9.690   6.562   7.291  0.00  0.00    +0.014 A 
ATOM     18  C   UNL     1       9.132   7.784   6.905  0.00  0.00    +0.014 A 
BRANCH  13  20
ATOM     19  N   UNL     1       9.742  11.204   6.375  0.00  0.00    -0.325 N 
ATOM     20  C   UNL     1       9.316  10.022   5.836  0.00  0.00    +0.242 C 
ATOM     21  O   UNL     1       8.497   9.991   4.933  0.00  0.00    -0.270 OA
ATOM     22  H   UNL     1       9.398  12.044   5.927  0.00  0.00    +0.145 HD
ATOM     23  H   UNL     1      10.601  11.279   6.903  0.00  0.00    +0.145 HD
ENDBRANCH  13  20
ENDBRANCH   1  16
TORSDOF 2
ENDMDL
MODEL 5
REMARK VINA RESULT:      -6.9      4.008      7.353
REMARK  Name = ZINC000583127796
REMARK  2 active torsions:
REMARK  status: ('A' for Active; 'I' for Inactive)
REMARK    1  A    between atoms: C_2  and  C_4
REMARK    2  A    between atoms: C_7  and  C_8
REMARK                            x       y       z     vdW  Elec       q    Type
REMARK                         _______ _______ _______ _____ _____    ______ ____
ROOT
ATOM      1  C   UNL     1      13.145   3.378   7.854  0.00  0.00    +0.247 C 
ATOM      2  O   UNL     1      12.603   2.462   8.474  0.00  0.00    -0.270 OA
ATOM      3  N   UNL     1      12.849   4.732   8.079  0.00  0.00    -0.297 N 
ATOM      4  C   UNL     1      13.438   5.882   7.392  0.00  0.00    +0.108 C 
ATOM      5  C   UNL     1      14.033   6.895   8.352  0.00  0.00    +0.020 C 
ATOM      6  C   UNL     1      13.056   7.267   9.452  0.00  0.00    +0.011 C 
ATOM      7  C   UNL     1      12.459   6.036  10.176  0.00  0.00    -0.004 C 
ATOM      8  C   UNL     1      11.392   6.569  11.157  0.00  0.00    +0.020 C 
ATOM      9  C   UNL     1      11.192   5.584  12.288  0.00  0.00    +0.070 C 
ATOM     10  S   UNL     1      12.854   5.008  12.669  0.00  0.00    -0.160 S 
ATOM     11  C   UNL     1      13.529   5.297  11.010  0.00  0.00    +0.077 C 
ATOM     12  C   UNL     1      11.857   5.076   9.116  0.00  0.00    +0.115 C 
ENDROOT
BRANCH   1  16
ATOM     13  C   UNL     1      16.112   1.953   5.115  0.00  0.00    +0.037 A 
ATOM     14  C   UNL     1      16.506   2.381   6.386  0.00  0.00    +0.014 A 
ATOM     15  C   UNL     1      15.569   2.959   7.245  0.00  0.00    +0.014 A 
ATOM     16  C   UNL     1      14.221   3.006   6.884  0.00  0.00    +0.037 A 
ATOM     17  C   UNL     1      13.847   2.668   5.576  0.00  0.00    +0.014 A 
ATOM     18  C   UNL     1      14.796   2.153   4.688  0.00  0.00    +0.014 A 
BRANCH  13  20
ATOM     19  N   UNL     1      16.758   1.289   2.868  0.00  0.00    -0.325 N 
ATOM     20  C   UNL     1      17.073   1.283   4.198  0.00  0.00    +0.242 C 
ATOM     21  O   UNL     1      18.116   0.799   4.605  0.00  0.00    -0.270 OA
ATOM     22  H   UNL     1      17.474   0.941   2.241  0.00  0.00    +0.145 HD
ATOM     23  H   UNL     1      16.067   1.915   2.478  0.00  0.00    +0.145 HD
ENDBRANCH  13  20
ENDBRANCH   1  16
TORSDOF 2
ENDMDL
MODEL 6
REMARK VINA RESULT:      -6.8      4.070      5.736
REMARK  Name = ZINC000583127796
REMARK  2 active torsions:
REMARK  status: ('A' for Active; 'I' for Inactive)
REMARK    1  A    between atoms: C_2  and  C_4
REMARK    2  A    between atoms: C_7  and  C_8
REMARK                            x       y       z     vdW  Elec       q    Type
REMARK                         _______ _______ _______ _____ _____    ______ ____
ROOT
ATOM      1  C   UNL     1      13.374   6.171   7.703  0.00  0.00    +0.247 C 
ATOM      2  O   UNL     1      14.108   7.134   7.473  0.00  0.00    -0.270 OA
ATOM      3  N   UNL     1      13.851   4.854   7.790  0.00  0.00    -0.297 N 
ATOM      4  C   UNL     1      13.058   3.652   8.056  0.00  0.00    +0.108 C 
ATOM      5  C   UNL     1      13.588   2.851   9.230  0.00  0.00    +0.020 C 
ATOM      6  C   UNL     1      15.078   2.591   9.107  0.00  0.00    +0.011 C 
ATOM      7  C   UNL     1      15.898   3.878   8.843  0.00  0.00    -0.004 C 
ATOM      8  C   UNL     1      17.358   3.435   8.603  0.00  0.00    +0.020 C 
ATOM      9  C   UNL     1      18.302   4.571   8.928  0.00  0.00    +0.070 C 
ATOM     10  S   UNL     1      17.603   5.316  10.409  0.00  0.00    -0.160 S 
ATOM     11  C   UNL     1      15.892   4.814  10.072  0.00  0.00    +0.077 C 
ATOM     12  C   UNL     1      15.296   4.611   7.615  0.00  0.00    +0.115 C 
ENDROOT
BRANCH   1  16
ATOM     13  C   UNL     1       9.194   6.618   8.511  0.00  0.00    +0.037 A 
ATOM     14  C   UNL     1       9.675   6.902   7.230  0.00  0.00    +0.014 A 
ATOM     15  C   UNL     1      11.050   6.877   6.984  0.00  0.00    +0.014 A 
ATOM     16  C   UNL     1      11.933   6.458   7.980  0.00  0.00    +0.037 A 
ATOM     17  C   UNL     1      11.459   6.268   9.286  0.00  0.00    +0.014 A 
ATOM     18  C   UNL     1      10.089   6.361   9.552  0.00  0.00    +0.014 A 
BRANCH  13  20
ATOM     19  N   UNL     1       7.362   6.370  10.091  0.00  0.00    -0.325 N 
ATOM     20  C   UNL     1       7.733   6.582   8.792  0.00  0.00    +0.242 C 
ATOM     21  O   UNL     1       6.907   6.784   7.917  0.00  0.00    -0.270 OA
ATOM     22  H   UNL     1       6.375   6.469  10.291  0.00  0.00    +0.145 HD
ATOM     23  H   UNL     1       8.005   6.485  10.862  0.00  0.00    +0.145 HD
ENDBRANCH  13  20
ENDBRANCH   1  16
TORSDOF 2
ENDMDL
MODEL 7
REMARK VINA RESULT:      -6.8      4.775      6.787
REMARK  Name = ZINC000583127796
REMARK  2 active torsions:
REMARK  status: ('A' for Active; 'I' for Inactive)
REMARK    1  A    between atoms: C_2  and  C_4
REMARK    2  A    between atoms: C_7  and  C_8
REMARK                            x       y       z     vdW  Elec       q    Type
REMARK                         _______ _______ _______ _____ _____    ______ ____
ROOT
ATOM      1  C   UNL     1      13.052   6.251   7.566  0.00  0.00    +0.247 C 
ATOM      2  O   UNL     1      13.379   6.337   8.751  0.00  0.00    -0.270 OA
ATOM      3  N   UNL     1      13.860   5.637   6.596  0.00  0.00    -0.297 N 
ATOM      4  C   UNL     1      13.558   5.491   5.171  0.00  0.00    +0.108 C 
ATOM      5  C   UNL     1      13.644   4.052   4.699  0.00  0.00    +0.020 C 
ATOM      6  C   UNL     1      14.947   3.399   5.124  0.00  0.00    +0.011 C 
ATOM      7  C   UNL     1      15.238   3.551   6.637  0.00  0.00    -0.004 C 
ATOM      8  C   UNL     1      16.646   2.967   6.881  0.00  0.00    +0.020 C 
ATOM      9  C   UNL     1      16.778   2.524   8.322  0.00  0.00    +0.070 C 
ATOM     10  S   UNL     1      15.189   1.769   8.699  0.00  0.00    -0.160 S 
ATOM     11  C   UNL     1      14.241   2.734   7.489  0.00  0.00    +0.077 C 
ATOM     12  C   UNL     1      15.149   5.054   7.014  0.00  0.00    +0.115 C 
ENDROOT
BRANCH   1  16
ATOM     13  C   UNL     1       9.197   7.939   6.781  0.00  0.00    +0.037 A 
ATOM     14  C   UNL     1       9.282   6.653   7.320  0.00  0.00    +0.014 A 
ATOM     15  C   UNL     1      10.529   6.043   7.469  0.00  0.00    +0.014 A 
ATOM     16  C   UNL     1      11.696   6.756   7.190  0.00  0.00    +0.037 A 
ATOM     17  C   UNL     1      11.606   8.006   6.560  0.00  0.00    +0.014 A 
ATOM     18  C   UNL     1      10.354   8.591   6.345  0.00  0.00    +0.014 A 
BRANCH  13  20
ATOM     19  N   UNL     1       7.138   8.350   5.555  0.00  0.00    -0.325 N 
ATOM     20  C   UNL     1       7.889   8.638   6.661  0.00  0.00    +0.242 C 
ATOM     21  O   UNL     1       7.481   9.389   7.531  0.00  0.00    -0.270 OA
ATOM     22  H   UNL     1       6.201   8.734   5.544  0.00  0.00    +0.145 HD
ATOM     23  H   UNL     1       7.312   7.538   4.979  0.00  0.00    +0.145 HD
ENDBRANCH  13  20
ENDBRANCH   1  16
TORSDOF 2
ENDMDL
MODEL 8
REMARK VINA RESULT:      -6.8      4.042      6.952
REMARK  Name = ZINC000583127796
REMARK  2 active torsions:
REMARK  status: ('A' for Active; 'I' for Inactive)
REMARK    1  A    between atoms: C_2  and  C_4
REMARK    2  A    between atoms: C_7  and  C_8
REMARK                            x       y       z     vdW  Elec       q    Type
REMARK                         _______ _______ _______ _____ _____    ______ ____
ROOT
ATOM      1  C   UNL     1      11.363   5.284   8.064  0.00  0.00    +0.247 C 
ATOM      2  O   UNL     1      11.252   4.132   7.639  0.00  0.00    -0.270 OA
ATOM      3  N   UNL     1      12.420   5.691   8.894  0.00  0.00    -0.297 N 
ATOM      4  C   UNL     1      12.631   7.030   9.447  0.00  0.00    +0.108 C 
ATOM      5  C   UNL     1      14.006   7.584   9.124  0.00  0.00    +0.020 C 
ATOM      6  C   UNL     1      15.105   6.595   9.466  0.00  0.00    +0.011 C 
ATOM      7  C   UNL     1      14.869   5.191   8.857  0.00  0.00    -0.004 C 
ATOM      8  C   UNL     1      15.984   4.274   9.405  0.00  0.00    +0.020 C 
ATOM      9  C   UNL     1      16.208   3.113   8.461  0.00  0.00    +0.070 C 
ATOM     10  S   UNL     1      16.089   3.848   6.823  0.00  0.00    -0.160 S 
ATOM     11  C   UNL     1      15.000   5.213   7.318  0.00  0.00    +0.077 C 
ATOM     12  C   UNL     1      13.452   4.703   9.261  0.00  0.00    +0.115 C 
ENDROOT
BRANCH   1  16
ATOM     13  C   UNL     1       8.654   8.406   6.951  0.00  0.00    +0.037 A 
ATOM     14  C   UNL     1       8.187   7.342   7.727  0.00  0.00    +0.014 A 
ATOM     15  C   UNL     1       9.026   6.259   7.997  0.00  0.00    +0.014 A 
ATOM     16  C   UNL     1      10.362   6.288   7.592  0.00  0.00    +0.037 A 
ATOM     17  C   UNL     1      10.799   7.307   6.734  0.00  0.00    +0.014 A 
ATOM     18  C   UNL     1       9.939   8.360   6.404  0.00  0.00    +0.014 A 
BRANCH  13  20
ATOM     19  N   UNL     1       6.693   9.408   5.920  0.00  0.00    -0.325 N 
ATOM     20  C   UNL     1       7.804   9.601   6.693  0.00  0.00    +0.242 C 
ATOM     21  O   UNL     1       8.057  10.686   7.189  0.00  0.00    -0.270 OA
ATOM     22  H   UNL     1       6.059  10.195   5.853  0.00  0.00    +0.145 HD
ATOM     23  H   UNL     1       6.311   8.489   5.740  0.00  0.00    +0.145 HD
ENDBRANCH  13  20
ENDBRANCH   1  16
TORSDOF 2
ENDMDL
MODEL 9
REMARK VINA RESULT:      -6.6      4.515      5.664
REMARK  Name = ZINC000583127796
REMARK  2 active torsions:
REMARK  status: ('A' for Active; 'I' for Inactive)
REMARK    1  A    between atoms: C_2  and  C_4
REMARK    2  A    between atoms: C_7  and  C_8
REMARK                            x       y       z     vdW  Elec       q    Type
REMARK                         _______ _______ _______ _____ _____    ______ ____
ROOT
ATOM      1  C   UNL     1      13.345   4.058   7.589  0.00  0.00    +0.247 C 
ATOM      2  O   UNL     1      12.617   3.138   7.969  0.00  0.00    -0.270 OA
ATOM      3  N   UNL     1      12.849   5.215   6.969  0.00  0.00    -0.297 N 
ATOM      4  C   UNL     1      13.633   6.352   6.483  0.00  0.00    +0.108 C 
ATOM      5  C   UNL     1      13.160   7.675   7.055  0.00  0.00    +0.020 C 
ATOM      6  C   UNL     1      11.661   7.849   6.901  0.00  0.00    +0.011 C 
ATOM      7  C   UNL     1      10.850   6.643   7.436  0.00  0.00    -0.004 C 
ATOM      8  C   UNL     1       9.371   6.907   7.082  0.00  0.00    +0.020 C 
ATOM      9  C   UNL     1       8.470   6.151   8.034  0.00  0.00    +0.070 C 
ATOM     10  S   UNL     1       9.271   6.328   9.635  0.00  0.00    -0.160 S 
ATOM     11  C   UNL     1      10.949   6.534   8.974  0.00  0.00    +0.077 C 
ATOM     12  C   UNL     1      11.392   5.347   6.777  0.00  0.00    +0.115 C 
ENDROOT
BRANCH   1  16
ATOM     13  C   UNL     1      17.443   3.426   8.652  0.00  0.00    +0.037 A 
ATOM     14  C   UNL     1      16.742   4.483   9.238  0.00  0.00    +0.014 A 
ATOM     15  C   UNL     1      15.444   4.774   8.813  0.00  0.00    +0.014 A 
ATOM     16  C   UNL     1      14.805   3.945   7.890  0.00  0.00    +0.037 A 
ATOM     17  C   UNL     1      15.542   2.948   7.234  0.00  0.00    +0.014 A 
ATOM     18  C   UNL     1      16.866   2.698   7.608  0.00  0.00    +0.014 A 
BRANCH  13  20
ATOM     19  N   UNL     1      18.978   1.768   9.552  0.00  0.00    -0.325 N 
ATOM     20  C   UNL     1      18.806   3.054   9.121  0.00  0.00    +0.242 C 
ATOM     21  O   UNL     1      19.736   3.841   9.075  0.00  0.00    -0.270 OA
ATOM     22  H   UNL     1      19.931   1.492   9.752  0.00  0.00    +0.145 HD
ATOM     23  H   UNL     1      18.318   1.033   9.337  0.00  0.00    +0.145 HD
ENDBRANCH  13  20
ENDBRANCH   1  16
TORSDOF 2
ENDMDL
