MODEL 1
REMARK VINA RESULT:      -6.8      0.000      0.000
REMARK  Name = ZINC001228612316
REMARK  5 active torsions:
REMARK  status: ('A' for Active; 'I' for Inactive)
REMARK    1  A    between atoms: C_2  and  C_4
REMARK    2  A    between atoms: C_8  and  O_9
REMARK    3  A    between atoms: O_9  and  C_10
REMARK    4  A    between atoms: C_10  and  C_11
REMARK    5  A    between atoms: C_10  and  C_17
REMARK                            x       y       z     vdW  Elec       q    Type
REMARK                         _______ _______ _______ _____ _____    ______ ____
ROOT
ATOM      1  C   UNL     1      26.478  21.697  17.152  0.00  0.00    +0.040 A 
ATOM      2  C   UNL     1      26.205  20.340  16.948  0.00  0.00    +0.013 A 
ATOM      3  C   UNL     1      27.242  19.455  16.649  0.00  0.00    +0.004 A 
ATOM      4  C   UNL     1      28.556  19.918  16.553  0.00  0.00    +0.046 A 
ATOM      5  C   UNL     1      28.840  21.270  16.750  0.00  0.00    +0.122 A 
ATOM      6  C   UNL     1      27.797  22.155  17.052  0.00  0.00    +0.058 A 
ENDROOT
BRANCH   1   8
ATOM      7  N   UNL     1      25.476  23.406  18.582  0.00  0.00    -0.325 N 
ATOM      8  C   UNL     1      25.341  22.596  17.486  0.00  0.00    +0.242 C 
ATOM      9  O   UNL     1      24.333  22.646  16.791  0.00  0.00    -0.270 OA
ATOM     10  H   UNL     1      24.738  24.083  18.728  0.00  0.00    +0.145 HD
ATOM     11  H   UNL     1      26.363  23.572  19.032  0.00  0.00    +0.145 HD
ENDBRANCH   1   8
BRANCH   5  12
ATOM     12  O   UNL     1      30.070  21.854  16.611  0.00  0.00    -0.484 OA
BRANCH  12  13
ATOM     13  C   UNL     1      30.141  23.268  16.362  0.00  0.00    +0.208 C 
BRANCH  13  14
ATOM     14  C   UNL     1      31.103  23.991  17.284  0.00  0.00    +0.011 A 
ATOM     15  C   UNL     1      32.247  24.656  16.832  0.00  0.00    +0.010 A 
ATOM     16  C   UNL     1      33.031  25.372  17.734  0.00  0.00    +0.020 A 
ATOM     17  C   UNL     1      32.644  25.403  19.064  0.00  0.00    +0.111 A 
ATOM     18  N   UNL     1      31.555  24.768  19.542  0.00  0.00    -0.263 NA
ATOM     19  C   UNL     1      30.813  24.083  18.645  0.00  0.00    +0.118 A 
ENDBRANCH  13  14
BRANCH  13  20
ATOM     20  C   UNL     1      30.619  23.504  14.933  0.00  0.00    +0.034 C 
ATOM     21  C   UNL     1      29.937  24.526  14.056  0.00  0.00    +0.008 C 
ATOM     22  C   UNL     1      29.835  23.065  13.716  0.00  0.00    +0.008 C 
ENDBRANCH  13  20
ENDBRANCH  12  13
ENDBRANCH   5  12
TORSDOF 5
ENDMDL
MODEL 2
REMARK VINA RESULT:      -6.7      3.143      6.577
REMARK  Name = ZINC001228612316
REMARK  5 active torsions:
REMARK  status: ('A' for Active; 'I' for Inactive)
REMARK    1  A    between atoms: C_2  and  C_4
REMARK    2  A    between atoms: C_8  and  O_9
REMARK    3  A    between atoms: O_9  and  C_10
REMARK    4  A    between atoms: C_10  and  C_11
REMARK    5  A    between atoms: C_10  and  C_17
REMARK                            x       y       z     vdW  Elec       q    Type
REMARK                         _______ _______ _______ _____ _____    ______ ____
ROOT
ATOM      1  C   UNL     1      31.496  24.000  11.857  0.00  0.00    +0.040 A 
ATOM      2  C   UNL     1      30.535  24.993  11.631  0.00  0.00    +0.013 A 
ATOM      3  C   UNL     1      29.632  25.333  12.639  0.00  0.00    +0.004 A 
ATOM      4  C   UNL     1      29.682  24.687  13.877  0.00  0.00    +0.046 A 
ATOM      5  C   UNL     1      30.632  23.693  14.112  0.00  0.00    +0.122 A 
ATOM      6  C   UNL     1      31.539  23.355  13.099  0.00  0.00    +0.058 A 
ENDROOT
BRANCH   1   8
ATOM      7  N   UNL     1      32.041  23.945   9.476  0.00  0.00    -0.325 N 
ATOM      8  C   UNL     1      32.447  23.686  10.757  0.00  0.00    +0.242 C 
ATOM      9  O   UNL     1      33.569  23.247  10.981  0.00  0.00    -0.270 OA
ATOM     10  H   UNL     1      32.741  23.824   8.754  0.00  0.00    +0.145 HD
ATOM     11  H   UNL     1      31.240  24.519   9.262  0.00  0.00    +0.145 HD
ENDBRANCH   1   8
BRANCH   5  12
ATOM     12  O   UNL     1      30.734  22.941  15.250  0.00  0.00    -0.484 OA
BRANCH  12  13
ATOM     13  C   UNL     1      29.940  23.302  16.392  0.00  0.00    +0.208 C 
BRANCH  13  14
ATOM     14  C   UNL     1      28.719  22.422  16.576  0.00  0.00    +0.011 A 
ATOM     15  C   UNL     1      28.619  21.129  16.054  0.00  0.00    +0.010 A 
ATOM     16  C   UNL     1      27.498  20.354  16.343  0.00  0.00    +0.020 A 
ATOM     17  C   UNL     1      26.510  20.896  17.150  0.00  0.00    +0.111 A 
ATOM     18  N   UNL     1      26.564  22.141  17.665  0.00  0.00    -0.263 NA
ATOM     19  C   UNL     1      27.663  22.870  17.370  0.00  0.00    +0.118 A 
ENDBRANCH  13  14
BRANCH  13  20
ATOM     20  C   UNL     1      30.785  23.173  17.655  0.00  0.00    +0.034 C 
ATOM     21  C   UNL     1      30.590  24.126  18.810  0.00  0.00    +0.008 C 
ATOM     22  C   UNL     1      31.873  24.156  18.026  0.00  0.00    +0.008 C 
ENDBRANCH  13  20
ENDBRANCH  12  13
ENDBRANCH   5  12
TORSDOF 5
ENDMDL
MODEL 3
REMARK VINA RESULT:      -6.6      2.337      3.742
REMARK  Name = ZINC001228612316
REMARK  5 active torsions:
REMARK  status: ('A' for Active; 'I' for Inactive)
REMARK    1  A    between atoms: C_2  and  C_4
REMARK    2  A    between atoms: C_8  and  O_9
REMARK    3  A    between atoms: O_9  and  C_10
REMARK    4  A    between atoms: C_10  and  C_11
REMARK    5  A    between atoms: C_10  and  C_17
REMARK                            x       y       z     vdW  Elec       q    Type
REMARK                         _______ _______ _______ _____ _____    ______ ____
ROOT
ATOM      1  C   UNL     1      26.693  22.218  17.349  0.00  0.00    +0.040 A 
ATOM      2  C   UNL     1      26.538  20.882  16.960  0.00  0.00    +0.013 A 
ATOM      3  C   UNL     1      27.533  20.252  16.211  0.00  0.00    +0.004 A 
ATOM      4  C   UNL     1      28.687  20.950  15.846  0.00  0.00    +0.046 A 
ATOM      5  C   UNL     1      28.851  22.283  16.224  0.00  0.00    +0.122 A 
ATOM      6  C   UNL     1      27.851  22.912  16.978  0.00  0.00    +0.058 A 
ENDROOT
BRANCH   1   8
ATOM      7  N   UNL     1      25.978  23.784  19.082  0.00  0.00    -0.325 N 
ATOM      8  C   UNL     1      25.613  22.839  18.161  0.00  0.00    +0.242 C 
ATOM      9  O   UNL     1      24.434  22.551  17.995  0.00  0.00    -0.270 OA
ATOM     10  H   UNL     1      25.221  24.269  19.546  0.00  0.00    +0.145 HD
ATOM     11  H   UNL     1      26.887  24.220  19.086  0.00  0.00    +0.145 HD
ENDBRANCH   1   8
BRANCH   5  12
ATOM     12  O   UNL     1      29.897  23.089  15.868  0.00  0.00    -0.484 OA
BRANCH  12  13
ATOM     13  C   UNL     1      30.875  22.587  14.942  0.00  0.00    +0.208 C 
BRANCH  13  14
ATOM     14  C   UNL     1      31.007  23.434  13.691  0.00  0.00    +0.011 A 
ATOM     15  C   UNL     1      29.911  23.960  13.002  0.00  0.00    +0.010 A 
ATOM     16  C   UNL     1      30.122  24.802  11.911  0.00  0.00    +0.020 A 
ATOM     17  C   UNL     1      31.426  25.094  11.546  0.00  0.00    +0.111 A 
ATOM     18  N   UNL     1      32.509  24.600  12.178  0.00  0.00    -0.263 NA
ATOM     19  C   UNL     1      32.276  23.789  13.232  0.00  0.00    +0.118 A 
ENDBRANCH  13  14
BRANCH  13  20
ATOM     20  C   UNL     1      32.242  22.562  15.618  0.00  0.00    +0.034 C 
ATOM     21  C   UNL     1      33.030  21.277  15.706  0.00  0.00    +0.008 C 
ATOM     22  C   UNL     1      32.489  21.908  16.960  0.00  0.00    +0.008 C 
ENDBRANCH  13  20
ENDBRANCH  12  13
ENDBRANCH   5  12
TORSDOF 5
ENDMDL
MODEL 4
REMARK VINA RESULT:      -6.5      3.064      5.794
REMARK  Name = ZINC001228612316
REMARK  5 active torsions:
REMARK  status: ('A' for Active; 'I' for Inactive)
REMARK    1  A    between atoms: C_2  and  C_4
REMARK    2  A    between atoms: C_8  and  O_9
REMARK    3  A    between atoms: O_9  and  C_10
REMARK    4  A    between atoms: C_10  and  C_11
REMARK    5  A    between atoms: C_10  and  C_17
REMARK                            x       y       z     vdW  Elec       q    Type
REMARK                         _______ _______ _______ _____ _____    ______ ____
ROOT
ATOM      1  C   UNL     1      31.759  23.548  12.289  0.00  0.00    +0.040 A 
ATOM      2  C   UNL     1      31.157  24.422  11.377  0.00  0.00    +0.013 A 
ATOM      3  C   UNL     1      30.070  25.202  11.770  0.00  0.00    +0.004 A 
ATOM      4  C   UNL     1      29.576  25.116  13.075  0.00  0.00    +0.046 A 
ATOM      5  C   UNL     1      30.165  24.245  13.992  0.00  0.00    +0.122 A 
ATOM      6  C   UNL     1      31.259  23.465  13.594  0.00  0.00    +0.058 A 
ENDROOT
BRANCH   1   8
ATOM      7  N   UNL     1      32.789  22.044  10.663  0.00  0.00    -0.325 N 
ATOM      8  C   UNL     1      32.927  22.751  11.827  0.00  0.00    +0.242 C 
ATOM      9  O   UNL     1      33.990  22.750  12.437  0.00  0.00    -0.270 OA
ATOM     10  H   UNL     1      33.627  21.596  10.312  0.00  0.00    +0.145 HD
ATOM     11  H   UNL     1      32.035  22.203  10.013  0.00  0.00    +0.145 HD
ENDBRANCH   1   8
BRANCH   5  12
ATOM     12  O   UNL     1      29.730  24.019  15.269  0.00  0.00    -0.484 OA
BRANCH  12  13
ATOM     13  C   UNL     1      29.965  22.732  15.863  0.00  0.00    +0.208 C 
BRANCH  13  14
ATOM     14  C   UNL     1      30.820  22.796  17.114  0.00  0.00    +0.011 A 
ATOM     15  C   UNL     1      31.993  22.054  17.281  0.00  0.00    +0.010 A 
ATOM     16  C   UNL     1      32.768  22.238  18.424  0.00  0.00    +0.020 A 
ATOM     17  C   UNL     1      32.346  23.162  19.366  0.00  0.00    +0.111 A 
ATOM     18  N   UNL     1      31.218  23.890  19.247  0.00  0.00    -0.263 NA
ATOM     19  C   UNL     1      30.487  23.693  18.129  0.00  0.00    +0.118 A 
ENDBRANCH  13  14
BRANCH  13  20
ATOM     20  C   UNL     1      28.631  22.107  16.259  0.00  0.00    +0.034 C 
ATOM     21  C   UNL     1      28.580  20.722  16.857  0.00  0.00    +0.008 C 
ATOM     22  C   UNL     1      27.993  20.969  15.494  0.00  0.00    +0.008 C 
ENDBRANCH  13  20
ENDBRANCH  12  13
ENDBRANCH   5  12
TORSDOF 5
ENDMDL
MODEL 5
REMARK VINA RESULT:      -6.4      2.518      5.757
REMARK  Name = ZINC001228612316
REMARK  5 active torsions:
REMARK  status: ('A' for Active; 'I' for Inactive)
REMARK    1  A    between atoms: C_2  and  C_4
REMARK    2  A    between atoms: C_8  and  O_9
REMARK    3  A    between atoms: O_9  and  C_10
REMARK    4  A    between atoms: C_10  and  C_11
REMARK    5  A    between atoms: C_10  and  C_17
REMARK                            x       y       z     vdW  Elec       q    Type
REMARK                         _______ _______ _______ _____ _____    ______ ____
ROOT
ATOM      1  C   UNL     1      30.773  23.793  13.074  0.00  0.00    +0.040 A 
ATOM      2  C   UNL     1      32.031  23.360  12.642  0.00  0.00    +0.013 A 
ATOM      3  C   UNL     1      32.728  22.396  13.371  0.00  0.00    +0.004 A 
ATOM      4  C   UNL     1      32.173  21.856  14.534  0.00  0.00    +0.046 A 
ATOM      5  C   UNL     1      30.921  22.283  14.978  0.00  0.00    +0.122 A 
ATOM      6  C   UNL     1      30.223  23.250  14.242  0.00  0.00    +0.058 A 
ENDROOT
BRANCH   1   8
ATOM      7  N   UNL     1      29.016  25.473  12.834  0.00  0.00    -0.325 N 
ATOM      8  C   UNL     1      30.063  24.810  12.253  0.00  0.00    +0.242 C 
ATOM      9  O   UNL     1      30.418  25.079  11.111  0.00  0.00    -0.270 OA
ATOM     10  H   UNL     1      28.617  26.233  12.297  0.00  0.00    +0.145 HD
ATOM     11  H   UNL     1      28.845  25.461  13.828  0.00  0.00    +0.145 HD
ENDBRANCH   1   8
BRANCH   5  12
ATOM     12  O   UNL     1      30.307  21.886  16.134  0.00  0.00    -0.484 OA
BRANCH  12  13
ATOM     13  C   UNL     1      29.553  22.851  16.886  0.00  0.00    +0.208 C 
BRANCH  13  14
ATOM     14  C   UNL     1      28.101  22.460  17.079  0.00  0.00    +0.011 A 
ATOM     15  C   UNL     1      27.525  21.332  16.488  0.00  0.00    +0.010 A 
ATOM     16  C   UNL     1      26.207  20.993  16.787  0.00  0.00    +0.020 A 
ATOM     17  C   UNL     1      25.505  21.795  17.673  0.00  0.00    +0.111 A 
ATOM     18  N   UNL     1      26.020  22.896  18.256  0.00  0.00    -0.263 NA
ATOM     19  C   UNL     1      27.300  23.200  17.949  0.00  0.00    +0.118 A 
ENDBRANCH  13  14
BRANCH  13  20
ATOM     20  C   UNL     1      30.170  23.004  18.272  0.00  0.00    +0.034 C 
ATOM     21  C   UNL     1      30.647  24.353  18.755  0.00  0.00    +0.008 C 
ATOM     22  C   UNL     1      31.644  23.256  18.498  0.00  0.00    +0.008 C 
ENDBRANCH  13  20
ENDBRANCH  12  13
ENDBRANCH   5  12
TORSDOF 5
ENDMDL
MODEL 6
REMARK VINA RESULT:      -6.3      3.693      6.027
REMARK  Name = ZINC001228612316
REMARK  5 active torsions:
REMARK  status: ('A' for Active; 'I' for Inactive)
REMARK    1  A    between atoms: C_2  and  C_4
REMARK    2  A    between atoms: C_8  and  O_9
REMARK    3  A    between atoms: O_9  and  C_10
REMARK    4  A    between atoms: C_10  and  C_11
REMARK    5  A    between atoms: C_10  and  C_17
REMARK                            x       y       z     vdW  Elec       q    Type
REMARK                         _______ _______ _______ _____ _____    ______ ____
ROOT
ATOM      1  C   UNL     1      31.502  24.500  11.632  0.00  0.00    +0.040 A 
ATOM      2  C   UNL     1      30.399  25.352  11.754  0.00  0.00    +0.013 A 
ATOM      3  C   UNL     1      29.574  25.272  12.876  0.00  0.00    +0.004 A 
ATOM      4  C   UNL     1      29.845  24.343  13.884  0.00  0.00    +0.046 A 
ATOM      5  C   UNL     1      30.940  23.485  13.772  0.00  0.00    +0.122 A 
ATOM      6  C   UNL     1      31.767  23.570  12.645  0.00  0.00    +0.058 A 
ENDROOT
BRANCH   1   8
ATOM      7  N   UNL     1      32.211  23.705   9.434  0.00  0.00    -0.325 N 
ATOM      8  C   UNL     1      32.362  24.636  10.425  0.00  0.00    +0.242 C 
ATOM      9  O   UNL     1      33.150  25.565  10.297  0.00  0.00    -0.270 OA
ATOM     10  H   UNL     1      32.727  23.876   8.580  0.00  0.00    +0.145 HD
ATOM     11  H   UNL     1      31.423  23.077   9.388  0.00  0.00    +0.145 HD
ENDBRANCH   1   8
BRANCH   5  12
ATOM     12  O   UNL     1      31.265  22.489  14.652  0.00  0.00    -0.484 OA
BRANCH  12  13
ATOM     13  C   UNL     1      32.355  22.700  15.564  0.00  0.00    +0.208 C 
BRANCH  13  14
ATOM     14  C   UNL     1      31.970  23.519  16.781  0.00  0.00    +0.011 A 
ATOM     15  C   UNL     1      32.485  24.792  17.043  0.00  0.00    +0.010 A 
ATOM     16  C   UNL     1      32.012  25.515  18.136  0.00  0.00    +0.020 A 
ATOM     17  C   UNL     1      31.035  24.942  18.933  0.00  0.00    +0.111 A 
ATOM     18  N   UNL     1      30.520  23.714  18.720  0.00  0.00    -0.263 NA
ATOM     19  C   UNL     1      30.995  23.036  17.653  0.00  0.00    +0.118 A 
ENDBRANCH  13  14
BRANCH  13  20
ATOM     20  C   UNL     1      32.859  21.351  16.068  0.00  0.00    +0.034 C 
ATOM     21  C   UNL     1      34.209  21.237  16.735  0.00  0.00    +0.008 C 
ATOM     22  C   UNL     1      33.979  20.585  15.398  0.00  0.00    +0.008 C 
ENDBRANCH  13  20
ENDBRANCH  12  13
ENDBRANCH   5  12
TORSDOF 5
ENDMDL
MODEL 7
REMARK VINA RESULT:      -6.1      3.520      4.750
REMARK  Name = ZINC001228612316
REMARK  5 active torsions:
REMARK  status: ('A' for Active; 'I' for Inactive)
REMARK    1  A    between atoms: C_2  and  C_4
REMARK    2  A    between atoms: C_8  and  O_9
REMARK    3  A    between atoms: O_9  and  C_10
REMARK    4  A    between atoms: C_10  and  C_11
REMARK    5  A    between atoms: C_10  and  C_17
REMARK                            x       y       z     vdW  Elec       q    Type
REMARK                         _______ _______ _______ _____ _____    ______ ____
ROOT
ATOM      1  C   UNL     1      29.376  22.637  16.773  0.00  0.00    +0.040 A 
ATOM      2  C   UNL     1      28.220  21.867  16.601  0.00  0.00    +0.013 A 
ATOM      3  C   UNL     1      28.026  21.150  15.420  0.00  0.00    +0.004 A 
ATOM      4  C   UNL     1      28.984  21.196  14.404  0.00  0.00    +0.046 A 
ATOM      5  C   UNL     1      30.138  21.963  14.561  0.00  0.00    +0.122 A 
ATOM      6  C   UNL     1      30.331  22.680  15.750  0.00  0.00    +0.058 A 
ENDROOT
BRANCH   1   8
ATOM      7  N   UNL     1      28.456  24.037  18.551  0.00  0.00    -0.325 N 
ATOM      8  C   UNL     1      29.544  23.368  18.057  0.00  0.00    +0.242 C 
ATOM      9  O   UNL     1      30.601  23.349  18.676  0.00  0.00    -0.270 OA
ATOM     10  H   UNL     1      28.562  24.437  19.475  0.00  0.00    +0.145 HD
ATOM     11  H   UNL     1      27.520  23.885  18.209  0.00  0.00    +0.145 HD
ENDBRANCH   1   8
BRANCH   5  12
ATOM     12  O   UNL     1      31.109  22.146  13.615  0.00  0.00    -0.484 OA
BRANCH  12  13
ATOM     13  C   UNL     1      31.475  23.486  13.247  0.00  0.00    +0.208 C 
BRANCH  13  14
ATOM     14  C   UNL     1      32.814  23.570  12.541  0.00  0.00    +0.011 A 
ATOM     15  C   UNL     1      33.859  24.393  12.972  0.00  0.00    +0.010 A 
ATOM     16  C   UNL     1      35.089  24.345  12.319  0.00  0.00    +0.020 A 
ATOM     17  C   UNL     1      35.237  23.471  11.254  0.00  0.00    +0.111 A 
ATOM     18  N   UNL     1      34.252  22.669  10.801  0.00  0.00    -0.263 NA
ATOM     19  C   UNL     1      33.071  22.734  11.454  0.00  0.00    +0.118 A 
ENDBRANCH  13  14
BRANCH  13  20
ATOM     20  C   UNL     1      30.426  24.052  12.295  0.00  0.00    +0.034 C 
ATOM     21  C   UNL     1      30.592  25.430  11.701  0.00  0.00    +0.008 C 
ATOM     22  C   UNL     1      29.479  25.167  12.678  0.00  0.00    +0.008 C 
ENDBRANCH  13  20
ENDBRANCH  12  13
ENDBRANCH   5  12
TORSDOF 5
ENDMDL
MODEL 8
REMARK VINA RESULT:      -6.1      2.651      4.278
REMARK  Name = ZINC001228612316
REMARK  5 active torsions:
REMARK  status: ('A' for Active; 'I' for Inactive)
REMARK    1  A    between atoms: C_2  and  C_4
REMARK    2  A    between atoms: C_8  and  O_9
REMARK    3  A    between atoms: O_9  and  C_10
REMARK    4  A    between atoms: C_10  and  C_11
REMARK    5  A    between atoms: C_10  and  C_17
REMARK                            x       y       z     vdW  Elec       q    Type
REMARK                         _______ _______ _______ _____ _____    ______ ____
ROOT
ATOM      1  C   UNL     1      27.634  20.505  17.046  0.00  0.00    +0.040 A 
ATOM      2  C   UNL     1      26.382  21.041  17.367  0.00  0.00    +0.013 A 
ATOM      3  C   UNL     1      26.194  22.423  17.375  0.00  0.00    +0.004 A 
ATOM      4  C   UNL     1      27.253  23.280  17.062  0.00  0.00    +0.046 A 
ATOM      5  C   UNL     1      28.506  22.758  16.745  0.00  0.00    +0.122 A 
ATOM      6  C   UNL     1      28.692  21.369  16.735  0.00  0.00    +0.058 A 
ENDROOT
BRANCH   1   8
ATOM      7  N   UNL     1      27.800  18.382  18.242  0.00  0.00    -0.325 N 
ATOM      8  C   UNL     1      27.780  19.025  17.034  0.00  0.00    +0.242 C 
ATOM      9  O   UNL     1      27.841  18.392  15.986  0.00  0.00    -0.270 OA
ATOM     10  H   UNL     1      27.793  17.370  18.207  0.00  0.00    +0.145 HD
ATOM     11  H   UNL     1      27.515  18.825  19.102  0.00  0.00    +0.145 HD
ENDBRANCH   1   8
BRANCH   5  12
ATOM     12  O   UNL     1      29.634  23.491  16.493  0.00  0.00    -0.484 OA
BRANCH  12  13
ATOM     13  C   UNL     1      30.606  22.973  15.570  0.00  0.00    +0.208 C 
BRANCH  13  14
ATOM     14  C   UNL     1      30.538  23.620  14.200  0.00  0.00    +0.011 A 
ATOM     15  C   UNL     1      29.668  24.669  13.890  0.00  0.00    +0.010 A 
ATOM     16  C   UNL     1      29.731  25.268  12.633  0.00  0.00    +0.020 A 
ATOM     17  C   UNL     1      30.665  24.798  11.724  0.00  0.00    +0.111 A 
ATOM     18  N   UNL     1      31.514  23.783  11.981  0.00  0.00    -0.263 NA
ATOM     19  C   UNL     1      31.433  23.222  13.207  0.00  0.00    +0.118 A 
ENDBRANCH  13  14
BRANCH  13  20
ATOM     20  C   UNL     1      32.007  23.222  16.120  0.00  0.00    +0.034 C 
ATOM     21  C   UNL     1      32.253  23.243  17.609  0.00  0.00    +0.008 C 
ATOM     22  C   UNL     1      32.407  24.508  16.809  0.00  0.00    +0.008 C 
ENDBRANCH  13  20
ENDBRANCH  12  13
ENDBRANCH   5  12
TORSDOF 5
ENDMDL
MODEL 9
REMARK VINA RESULT:      -6.1      2.343      6.238
REMARK  Name = ZINC001228612316
REMARK  5 active torsions:
REMARK  status: ('A' for Active; 'I' for Inactive)
REMARK    1  A    between atoms: C_2  and  C_4
REMARK    2  A    between atoms: C_8  and  O_9
REMARK    3  A    between atoms: O_9  and  C_10
REMARK    4  A    between atoms: C_10  and  C_11
REMARK    5  A    between atoms: C_10  and  C_17
REMARK                            x       y       z     vdW  Elec       q    Type
REMARK                         _______ _______ _______ _____ _____    ______ ____
ROOT
ATOM      1  C   UNL     1      33.041  24.122  20.070  0.00  0.00    +0.040 A 
ATOM      2  C   UNL     1      33.781  22.957  19.836  0.00  0.00    +0.013 A 
ATOM      3  C   UNL     1      33.275  21.964  18.996  0.00  0.00    +0.004 A 
ATOM      4  C   UNL     1      32.029  22.127  18.384  0.00  0.00    +0.046 A 
ATOM      5  C   UNL     1      31.281  23.282  18.613  0.00  0.00    +0.122 A 
ATOM      6  C   UNL     1      31.793  24.278  19.455  0.00  0.00    +0.058 A 
ENDROOT
BRANCH   1   8
ATOM      7  N   UNL     1      33.468  26.469  20.597  0.00  0.00    -0.325 N 
ATOM      8  C   UNL     1      33.631  25.158  20.958  0.00  0.00    +0.242 C 
ATOM      9  O   UNL     1      34.211  24.863  21.997  0.00  0.00    -0.270 OA
ATOM     10  H   UNL     1      33.783  27.158  21.268  0.00  0.00    +0.145 HD
ATOM     11  H   UNL     1      32.805  26.764  19.896  0.00  0.00    +0.145 HD
ENDBRANCH   1   8
BRANCH   5  12
ATOM     12  O   UNL     1      30.023  23.524  18.132  0.00  0.00    -0.484 OA
BRANCH  12  13
ATOM     13  C   UNL     1      29.559  22.775  16.997  0.00  0.00    +0.208 C 
BRANCH  13  14
ATOM     14  C   UNL     1      28.106  22.356  17.108  0.00  0.00    +0.011 A 
ATOM     15  C   UNL     1      27.588  21.212  16.496  0.00  0.00    +0.010 A 
ATOM     16  C   UNL     1      26.262  20.849  16.721  0.00  0.00    +0.020 A 
ATOM     17  C   UNL     1      25.493  21.644  17.556  0.00  0.00    +0.111 A 
ATOM     18  N   UNL     1      25.952  22.760  18.158  0.00  0.00    -0.263 NA
ATOM     19  C   UNL     1      27.241  23.087  17.923  0.00  0.00    +0.118 A 
ENDBRANCH  13  14
BRANCH  13  20
ATOM     20  C   UNL     1      29.688  23.631  15.741  0.00  0.00    +0.034 C 
ATOM     21  C   UNL     1      30.008  22.995  14.409  0.00  0.00    +0.008 C 
ATOM     22  C   UNL     1      31.011  23.906  15.061  0.00  0.00    +0.008 C 
ENDBRANCH  13  20
ENDBRANCH  12  13
ENDBRANCH   5  12
TORSDOF 5
ENDMDL
