MODEL 1
REMARK VINA RESULT:      -6.9      0.000      0.000
REMARK  Name = ZINC001228612316
REMARK  5 active torsions:
REMARK  status: ('A' for Active; 'I' for Inactive)
REMARK    1  A    between atoms: C_2  and  C_4
REMARK    2  A    between atoms: C_8  and  O_9
REMARK    3  A    between atoms: O_9  and  C_10
REMARK    4  A    between atoms: C_10  and  C_11
REMARK    5  A    between atoms: C_10  and  C_17
REMARK                            x       y       z     vdW  Elec       q    Type
REMARK                         _______ _______ _______ _____ _____    ______ ____
ROOT
ATOM      1  C   UNL     1      29.258  14.589  13.611  0.00  0.00    +0.040 A 
ATOM      2  C   UNL     1      28.366  14.268  14.637  0.00  0.00    +0.013 A 
ATOM      3  C   UNL     1      28.445  14.947  15.856  0.00  0.00    +0.004 A 
ATOM      4  C   UNL     1      29.405  15.947  16.041  0.00  0.00    +0.046 A 
ATOM      5  C   UNL     1      30.292  16.277  15.013  0.00  0.00    +0.122 A 
ATOM      6  C   UNL     1      30.231  15.572  13.816  0.00  0.00    +0.058 A 
ENDROOT
BRANCH   1   8
ATOM      7  N   UNL     1      28.425  12.842  12.129  0.00  0.00    -0.325 N 
ATOM      8  C   UNL     1      29.232  13.934  12.278  0.00  0.00    +0.242 C 
ATOM      9  O   UNL     1      29.856  14.387  11.327  0.00  0.00    -0.270 OA
ATOM     10  H   UNL     1      28.315  12.507  11.179  0.00  0.00    +0.145 HD
ATOM     11  H   UNL     1      27.700  12.614  12.792  0.00  0.00    +0.145 HD
ENDBRANCH   1   8
BRANCH   5  12
ATOM     12  O   UNL     1      31.186  17.275  15.289  0.00  0.00    -0.484 OA
BRANCH  12  13
ATOM     13  C   UNL     1      31.069  18.501  14.543  0.00  0.00    +0.208 C 
BRANCH  13  14
ATOM     14  C   UNL     1      30.511  19.577  15.451  0.00  0.00    +0.011 A 
ATOM     15  C   UNL     1      30.213  20.846  14.938  0.00  0.00    +0.010 A 
ATOM     16  C   UNL     1      29.708  21.836  15.771  0.00  0.00    +0.020 A 
ATOM     17  C   UNL     1      29.512  21.525  17.105  0.00  0.00    +0.111 A 
ATOM     18  N   UNL     1      29.789  20.318  17.644  0.00  0.00    -0.263 NA
ATOM     19  C   UNL     1      30.285  19.374  16.807  0.00  0.00    +0.118 A 
ENDBRANCH  13  14
BRANCH  13  20
ATOM     20  C   UNL     1      32.429  18.907  14.019  0.00  0.00    +0.034 C 
ATOM     21  C   UNL     1      32.599  19.633  12.701  0.00  0.00    +0.008 C 
ATOM     22  C   UNL     1      33.038  18.207  12.820  0.00  0.00    +0.008 C 
ENDBRANCH  13  20
ENDBRANCH  12  13
ENDBRANCH   5  12
TORSDOF 5
ENDMDL
MODEL 2
REMARK VINA RESULT:      -6.9      1.829      2.428
REMARK  Name = ZINC001228612316
REMARK  5 active torsions:
REMARK  status: ('A' for Active; 'I' for Inactive)
REMARK    1  A    between atoms: C_2  and  C_4
REMARK    2  A    between atoms: C_8  and  O_9
REMARK    3  A    between atoms: O_9  and  C_10
REMARK    4  A    between atoms: C_10  and  C_11
REMARK    5  A    between atoms: C_10  and  C_17
REMARK                            x       y       z     vdW  Elec       q    Type
REMARK                         _______ _______ _______ _____ _____    ______ ____
ROOT
ATOM      1  C   UNL     1      29.465  14.585  13.495  0.00  0.00    +0.040 A 
ATOM      2  C   UNL     1      30.545  14.644  12.611  0.00  0.00    +0.013 A 
ATOM      3  C   UNL     1      31.652  15.437  12.926  0.00  0.00    +0.004 A 
ATOM      4  C   UNL     1      31.680  16.158  14.124  0.00  0.00    +0.046 A 
ATOM      5  C   UNL     1      30.605  16.095  15.015  0.00  0.00    +0.122 A 
ATOM      6  C   UNL     1      29.492  15.332  14.677  0.00  0.00    +0.058 A 
ENDROOT
BRANCH   1   8
ATOM      7  N   UNL     1      28.354  12.770  12.308  0.00  0.00    -0.325 N 
ATOM      8  C   UNL     1      28.260  13.753  13.250  0.00  0.00    +0.242 C 
ATOM      9  O   UNL     1      27.237  13.894  13.909  0.00  0.00    -0.270 OA
ATOM     10  H   UNL     1      27.572  12.128  12.266  0.00  0.00    +0.145 HD
ATOM     11  H   UNL     1      29.243  12.447  11.954  0.00  0.00    +0.145 HD
ENDBRANCH   1   8
BRANCH   5  12
ATOM     12  O   UNL     1      30.732  16.827  16.163  0.00  0.00    -0.484 OA
BRANCH  12  13
ATOM     13  C   UNL     1      31.618  17.962  16.137  0.00  0.00    +0.208 C 
BRANCH  13  14
ATOM     14  C   UNL     1      30.796  19.229  16.247  0.00  0.00    +0.011 A 
ATOM     15  C   UNL     1      30.701  20.102  15.155  0.00  0.00    +0.010 A 
ATOM     16  C   UNL     1      29.953  21.268  15.256  0.00  0.00    +0.020 A 
ATOM     17  C   UNL     1      29.314  21.528  16.455  0.00  0.00    +0.111 A 
ATOM     18  N   UNL     1      29.382  20.719  17.534  0.00  0.00    -0.263 NA
ATOM     19  C   UNL     1      30.123  19.591  17.407  0.00  0.00    +0.118 A 
ENDBRANCH  13  14
BRANCH  13  20
ATOM     20  C   UNL     1      32.596  17.868  17.288  0.00  0.00    +0.034 C 
ATOM     21  C   UNL     1      33.800  18.779  17.397  0.00  0.00    +0.008 C 
ATOM     22  C   UNL     1      33.997  17.331  17.072  0.00  0.00    +0.008 C 
ENDBRANCH  13  20
ENDBRANCH  12  13
ENDBRANCH   5  12
TORSDOF 5
ENDMDL
MODEL 3
REMARK VINA RESULT:      -6.8      2.072      6.354
REMARK  Name = ZINC001228612316
REMARK  5 active torsions:
REMARK  status: ('A' for Active; 'I' for Inactive)
REMARK    1  A    between atoms: C_2  and  C_4
REMARK    2  A    between atoms: C_8  and  O_9
REMARK    3  A    between atoms: O_9  and  C_10
REMARK    4  A    between atoms: C_10  and  C_11
REMARK    5  A    between atoms: C_10  and  C_17
REMARK                            x       y       z     vdW  Elec       q    Type
REMARK                         _______ _______ _______ _____ _____    ______ ____
ROOT
ATOM      1  C   UNL     1      30.405  20.927  15.074  0.00  0.00    +0.040 A 
ATOM      2  C   UNL     1      29.975  20.827  16.400  0.00  0.00    +0.013 A 
ATOM      3  C   UNL     1      29.880  19.568  17.000  0.00  0.00    +0.004 A 
ATOM      4  C   UNL     1      30.225  18.420  16.280  0.00  0.00    +0.046 A 
ATOM      5  C   UNL     1      30.664  18.518  14.957  0.00  0.00    +0.122 A 
ATOM      6  C   UNL     1      30.721  19.771  14.355  0.00  0.00    +0.058 A 
ENDROOT
BRANCH   1   8
ATOM      7  N   UNL     1      30.618  23.354  15.128  0.00  0.00    -0.325 N 
ATOM      8  C   UNL     1      30.555  22.224  14.366  0.00  0.00    +0.242 C 
ATOM      9  O   UNL     1      30.683  22.280  13.149  0.00  0.00    -0.270 OA
ATOM     10  H   UNL     1      30.865  24.203  14.632  0.00  0.00    +0.145 HD
ATOM     11  H   UNL     1      30.795  23.325  16.121  0.00  0.00    +0.145 HD
ENDBRANCH   1   8
BRANCH   5  12
ATOM     12  O   UNL     1      30.986  17.339  14.343  0.00  0.00    -0.484 OA
BRANCH  12  13
ATOM     13  C   UNL     1      30.869  16.129  15.114  0.00  0.00    +0.208 C 
BRANCH  13  14
ATOM     14  C   UNL     1      29.986  15.153  14.364  0.00  0.00    +0.011 A 
ATOM     15  C   UNL     1      28.654  14.964  14.759  0.00  0.00    +0.010 A 
ATOM     16  C   UNL     1      27.845  14.065  14.077  0.00  0.00    +0.020 A 
ATOM     17  C   UNL     1      28.394  13.377  13.010  0.00  0.00    +0.111 A 
ATOM     18  N   UNL     1      29.671  13.523  12.597  0.00  0.00    -0.263 NA
ATOM     19  C   UNL     1      30.438  14.405  13.285  0.00  0.00    +0.118 A 
ENDBRANCH  13  14
BRANCH  13  20
ATOM     20  C   UNL     1      32.242  15.533  15.334  0.00  0.00    +0.034 C 
ATOM     21  C   UNL     1      32.571  14.702  16.557  0.00  0.00    +0.008 C 
ATOM     22  C   UNL     1      33.156  16.073  16.417  0.00  0.00    +0.008 C 
ENDBRANCH  13  20
ENDBRANCH  12  13
ENDBRANCH   5  12
TORSDOF 5
ENDMDL
MODEL 4
REMARK VINA RESULT:      -6.7      1.781      2.258
REMARK  Name = ZINC001228612316
REMARK  5 active torsions:
REMARK  status: ('A' for Active; 'I' for Inactive)
REMARK    1  A    between atoms: C_2  and  C_4
REMARK    2  A    between atoms: C_8  and  O_9
REMARK    3  A    between atoms: O_9  and  C_10
REMARK    4  A    between atoms: C_10  and  C_11
REMARK    5  A    between atoms: C_10  and  C_17
REMARK                            x       y       z     vdW  Elec       q    Type
REMARK                         _______ _______ _______ _____ _____    ______ ____
ROOT
ATOM      1  C   UNL     1      30.001  14.307  12.924  0.00  0.00    +0.040 A 
ATOM      2  C   UNL     1      28.724  13.756  13.061  0.00  0.00    +0.013 A 
ATOM      3  C   UNL     1      27.942  14.097  14.167  0.00  0.00    +0.004 A 
ATOM      4  C   UNL     1      28.432  14.992  15.124  0.00  0.00    +0.046 A 
ATOM      5  C   UNL     1      29.704  15.552  14.985  0.00  0.00    +0.122 A 
ATOM      6  C   UNL     1      30.491  15.180  13.900  0.00  0.00    +0.058 A 
ENDROOT
BRANCH   1   8
ATOM      7  N   UNL     1      31.158  12.707  11.496  0.00  0.00    -0.325 N 
ATOM      8  C   UNL     1      30.891  14.017  11.771  0.00  0.00    +0.242 C 
ATOM      9  O   UNL     1      31.320  14.909  11.050  0.00  0.00    -0.270 OA
ATOM     10  H   UNL     1      31.643  12.533  10.624  0.00  0.00    +0.145 HD
ATOM     11  H   UNL     1      30.610  11.952  11.884  0.00  0.00    +0.145 HD
ENDBRANCH   1   8
BRANCH   5  12
ATOM     12  O   UNL     1      30.087  16.423  15.967  0.00  0.00    -0.484 OA
BRANCH  12  13
ATOM     13  C   UNL     1      31.173  17.323  15.677  0.00  0.00    +0.208 C 
BRANCH  13  14
ATOM     14  C   UNL     1      30.659  18.746  15.727  0.00  0.00    +0.011 A 
ATOM     15  C   UNL     1      30.061  19.237  16.895  0.00  0.00    +0.010 A 
ATOM     16  C   UNL     1      29.583  20.540  16.941  0.00  0.00    +0.020 A 
ATOM     17  C   UNL     1      29.720  21.322  15.808  0.00  0.00    +0.111 A 
ATOM     18  N   UNL     1      30.284  20.891  14.660  0.00  0.00    -0.263 NA
ATOM     19  C   UNL     1      30.738  19.613  14.644  0.00  0.00    +0.118 A 
ENDBRANCH  13  14
BRANCH  13  20
ATOM     20  C   UNL     1      32.279  17.126  16.690  0.00  0.00    +0.034 C 
ATOM     21  C   UNL     1      33.597  17.867  16.597  0.00  0.00    +0.008 C 
ATOM     22  C   UNL     1      33.554  16.396  16.314  0.00  0.00    +0.008 C 
ENDBRANCH  13  20
ENDBRANCH  12  13
ENDBRANCH   5  12
TORSDOF 5
ENDMDL
MODEL 5
REMARK VINA RESULT:      -6.6      2.475      6.864
REMARK  Name = ZINC001228612316
REMARK  5 active torsions:
REMARK  status: ('A' for Active; 'I' for Inactive)
REMARK    1  A    between atoms: C_2  and  C_4
REMARK    2  A    between atoms: C_8  and  O_9
REMARK    3  A    between atoms: O_9  and  C_10
REMARK    4  A    between atoms: C_10  and  C_11
REMARK    5  A    between atoms: C_10  and  C_17
REMARK                            x       y       z     vdW  Elec       q    Type
REMARK                         _______ _______ _______ _____ _____    ______ ____
ROOT
ATOM      1  C   UNL     1      29.121  22.374  16.835  0.00  0.00    +0.040 A 
ATOM      2  C   UNL     1      30.038  23.338  16.409  0.00  0.00    +0.013 A 
ATOM      3  C   UNL     1      31.075  22.969  15.548  0.00  0.00    +0.004 A 
ATOM      4  C   UNL     1      31.186  21.646  15.109  0.00  0.00    +0.046 A 
ATOM      5  C   UNL     1      30.265  20.682  15.527  0.00  0.00    +0.122 A 
ATOM      6  C   UNL     1      29.257  21.048  16.413  0.00  0.00    +0.058 A 
ENDROOT
BRANCH   1   8
ATOM      7  N   UNL     1      28.264  23.028  19.021  0.00  0.00    -0.325 N 
ATOM      8  C   UNL     1      27.978  22.682  17.732  0.00  0.00    +0.242 C 
ATOM      9  O   UNL     1      26.824  22.691  17.322  0.00  0.00    -0.270 OA
ATOM     10  H   UNL     1      27.483  23.372  19.565  0.00  0.00    +0.145 HD
ATOM     11  H   UNL     1      29.192  23.299  19.312  0.00  0.00    +0.145 HD
ENDBRANCH   1   8
BRANCH   5  12
ATOM     12  O   UNL     1      30.453  19.419  15.035  0.00  0.00    -0.484 OA
BRANCH  12  13
ATOM     13  C   UNL     1      30.761  18.374  15.975  0.00  0.00    +0.208 C 
BRANCH  13  14
ATOM     14  C   UNL     1      30.248  17.057  15.431  0.00  0.00    +0.011 A 
ATOM     15  C   UNL     1      29.368  16.276  16.193  0.00  0.00    +0.010 A 
ATOM     16  C   UNL     1      28.902  15.065  15.698  0.00  0.00    +0.020 A 
ATOM     17  C   UNL     1      29.330  14.667  14.444  0.00  0.00    +0.111 A 
ATOM     18  N   UNL     1      30.179  15.384  13.677  0.00  0.00    -0.263 NA
ATOM     19  C   UNL     1      30.621  16.559  14.188  0.00  0.00    +0.118 A 
ENDBRANCH  13  14
BRANCH  13  20
ATOM     20  C   UNL     1      32.258  18.308  16.187  0.00  0.00    +0.034 C 
ATOM     21  C   UNL     1      32.909  17.193  16.979  0.00  0.00    +0.008 C 
ATOM     22  C   UNL     1      32.859  18.576  17.553  0.00  0.00    +0.008 C 
ENDBRANCH  13  20
ENDBRANCH  12  13
ENDBRANCH   5  12
TORSDOF 5
ENDMDL
MODEL 6
REMARK VINA RESULT:      -6.5      2.795      7.067
REMARK  Name = ZINC001228612316
REMARK  5 active torsions:
REMARK  status: ('A' for Active; 'I' for Inactive)
REMARK    1  A    between atoms: C_2  and  C_4
REMARK    2  A    between atoms: C_8  and  O_9
REMARK    3  A    between atoms: O_9  and  C_10
REMARK    4  A    between atoms: C_10  and  C_11
REMARK    5  A    between atoms: C_10  and  C_17
REMARK                            x       y       z     vdW  Elec       q    Type
REMARK                         _______ _______ _______ _____ _____    ______ ____
ROOT
ATOM      1  C   UNL     1      30.006  22.688  17.573  0.00  0.00    +0.040 A 
ATOM      2  C   UNL     1      28.682  22.562  18.000  0.00  0.00    +0.013 A 
ATOM      3  C   UNL     1      27.948  21.428  17.644  0.00  0.00    +0.004 A 
ATOM      4  C   UNL     1      28.540  20.422  16.873  0.00  0.00    +0.046 A 
ATOM      5  C   UNL     1      29.867  20.541  16.452  0.00  0.00    +0.122 A 
ATOM      6  C   UNL     1      30.580  21.690  16.780  0.00  0.00    +0.058 A 
ENDROOT
BRANCH   1   8
ATOM      7  N   UNL     1      31.685  24.341  16.948  0.00  0.00    -0.325 N 
ATOM      8  C   UNL     1      30.864  23.848  17.922  0.00  0.00    +0.242 C 
ATOM      9  O   UNL     1      30.797  24.391  19.018  0.00  0.00    -0.270 OA
ATOM     10  H   UNL     1      32.147  25.215  17.166  0.00  0.00    +0.145 HD
ATOM     11  H   UNL     1      31.565  24.106  15.974  0.00  0.00    +0.145 HD
ENDBRANCH   1   8
BRANCH   5  12
ATOM     12  O   UNL     1      30.358  19.501  15.712  0.00  0.00    -0.484 OA
BRANCH  12  13
ATOM     13  C   UNL     1      30.793  18.324  16.419  0.00  0.00    +0.208 C 
BRANCH  13  14
ATOM     14  C   UNL     1      30.281  17.098  15.692  0.00  0.00    +0.011 A 
ATOM     15  C   UNL     1      29.354  16.249  16.312  0.00  0.00    +0.010 A 
ATOM     16  C   UNL     1      28.889  15.120  15.649  0.00  0.00    +0.020 A 
ATOM     17  C   UNL     1      29.367  14.872  14.375  0.00  0.00    +0.111 A 
ATOM     18  N   UNL     1      30.264  15.658  13.742  0.00  0.00    -0.263 NA
ATOM     19  C   UNL     1      30.702  16.750  14.414  0.00  0.00    +0.118 A 
ENDBRANCH  13  14
BRANCH  13  20
ATOM     20  C   UNL     1      32.304  18.304  16.488  0.00  0.00    +0.034 C 
ATOM     21  C   UNL     1      33.066  17.134  17.074  0.00  0.00    +0.008 C 
ATOM     22  C   UNL     1      33.021  18.433  17.817  0.00  0.00    +0.008 C 
ENDBRANCH  13  20
ENDBRANCH  12  13
ENDBRANCH   5  12
TORSDOF 5
ENDMDL
MODEL 7
REMARK VINA RESULT:      -6.5      2.577      3.627
REMARK  Name = ZINC001228612316
REMARK  5 active torsions:
REMARK  status: ('A' for Active; 'I' for Inactive)
REMARK    1  A    between atoms: C_2  and  C_4
REMARK    2  A    between atoms: C_8  and  O_9
REMARK    3  A    between atoms: O_9  and  C_10
REMARK    4  A    between atoms: C_10  and  C_11
REMARK    5  A    between atoms: C_10  and  C_17
REMARK                            x       y       z     vdW  Elec       q    Type
REMARK                         _______ _______ _______ _____ _____    ______ ____
ROOT
ATOM      1  C   UNL     1      29.328  14.587  13.564  0.00  0.00    +0.040 A 
ATOM      2  C   UNL     1      28.429  14.413  14.620  0.00  0.00    +0.013 A 
ATOM      3  C   UNL     1      28.619  15.120  15.810  0.00  0.00    +0.004 A 
ATOM      4  C   UNL     1      29.696  16.003  15.937  0.00  0.00    +0.046 A 
ATOM      5  C   UNL     1      30.591  16.186  14.881  0.00  0.00    +0.122 A 
ATOM      6  C   UNL     1      30.417  15.451  13.712  0.00  0.00    +0.058 A 
ENDROOT
BRANCH   1   8
ATOM      7  N   UNL     1      28.413  12.772  12.220  0.00  0.00    -0.325 N 
ATOM      8  C   UNL     1      29.191  13.893  12.259  0.00  0.00    +0.242 C 
ATOM      9  O   UNL     1      29.700  14.338  11.237  0.00  0.00    -0.270 OA
ATOM     10  H   UNL     1      28.219  12.405  11.296  0.00  0.00    +0.145 HD
ATOM     11  H   UNL     1      27.766  12.539  12.959  0.00  0.00    +0.145 HD
ENDBRANCH   1   8
BRANCH   5  12
ATOM     12  O   UNL     1      31.604  17.078  15.100  0.00  0.00    -0.484 OA
BRANCH  12  13
ATOM     13  C   UNL     1      31.628  17.766  16.364  0.00  0.00    +0.208 C 
BRANCH  13  14
ATOM     14  C   UNL     1      32.920  17.434  17.081  0.00  0.00    +0.011 A 
ATOM     15  C   UNL     1      33.547  16.200  16.864  0.00  0.00    +0.010 A 
ATOM     16  C   UNL     1      34.729  15.891  17.525  0.00  0.00    +0.020 A 
ATOM     17  C   UNL     1      35.255  16.834  18.390  0.00  0.00    +0.111 A 
ATOM     18  N   UNL     1      34.683  18.033  18.633  0.00  0.00    -0.263 NA
ATOM     19  C   UNL     1      33.529  18.305  17.977  0.00  0.00    +0.118 A 
ENDBRANCH  13  14
BRANCH  13  20
ATOM     20  C   UNL     1      31.523  19.258  16.132  0.00  0.00    +0.034 C 
ATOM     21  C   UNL     1      30.607  20.138  16.956  0.00  0.00    +0.008 C 
ATOM     22  C   UNL     1      30.272  19.861  15.522  0.00  0.00    +0.008 C 
ENDBRANCH  13  20
ENDBRANCH  12  13
ENDBRANCH   5  12
TORSDOF 5
ENDMDL
MODEL 8
REMARK VINA RESULT:      -6.3      2.959      6.418
REMARK  Name = ZINC001228612316
REMARK  5 active torsions:
REMARK  status: ('A' for Active; 'I' for Inactive)
REMARK    1  A    between atoms: C_2  and  C_4
REMARK    2  A    between atoms: C_8  and  O_9
REMARK    3  A    between atoms: O_9  and  C_10
REMARK    4  A    between atoms: C_10  and  C_11
REMARK    5  A    between atoms: C_10  and  C_17
REMARK                            x       y       z     vdW  Elec       q    Type
REMARK                         _______ _______ _______ _____ _____    ______ ____
ROOT
ATOM      1  C   UNL     1      29.608  20.882  16.259  0.00  0.00    +0.040 A 
ATOM      2  C   UNL     1      30.028  21.213  14.969  0.00  0.00    +0.013 A 
ATOM      3  C   UNL     1      30.624  20.236  14.167  0.00  0.00    +0.004 A 
ATOM      4  C   UNL     1      30.789  18.934  14.652  0.00  0.00    +0.046 A 
ATOM      5  C   UNL     1      30.363  18.599  15.939  0.00  0.00    +0.122 A 
ATOM      6  C   UNL     1      29.803  19.586  16.745  0.00  0.00    +0.058 A 
ENDROOT
BRANCH   1   8
ATOM      7  N   UNL     1      28.909  23.158  16.780  0.00  0.00    -0.325 N 
ATOM      8  C   UNL     1      28.948  21.851  17.170  0.00  0.00    +0.242 C 
ATOM      9  O   UNL     1      28.398  21.489  18.204  0.00  0.00    -0.270 OA
ATOM     10  H   UNL     1      28.329  23.767  17.344  0.00  0.00    +0.145 HD
ATOM     11  H   UNL     1      29.096  23.442  15.829  0.00  0.00    +0.145 HD
ENDBRANCH   1   8
BRANCH   5  12
ATOM     12  O   UNL     1      30.558  17.299  16.317  0.00  0.00    -0.484 OA
BRANCH  12  13
ATOM     13  C   UNL     1      31.450  16.498  15.519  0.00  0.00    +0.208 C 
BRANCH  13  14
ATOM     14  C   UNL     1      32.638  16.093  16.367  0.00  0.00    +0.011 A 
ATOM     15  C   UNL     1      32.920  14.737  16.580  0.00  0.00    +0.010 A 
ATOM     16  C   UNL     1      34.006  14.365  17.363  0.00  0.00    +0.020 A 
ATOM     17  C   UNL     1      34.785  15.367  17.912  0.00  0.00    +0.111 A 
ATOM     18  N   UNL     1      34.548  16.685  17.738  0.00  0.00    -0.263 NA
ATOM     19  C   UNL     1      33.480  17.018  16.973  0.00  0.00    +0.118 A 
ENDBRANCH  13  14
BRANCH  13  20
ATOM     20  C   UNL     1      30.718  15.272  15.018  0.00  0.00    +0.034 C 
ATOM     21  C   UNL     1      31.022  14.649  13.672  0.00  0.00    +0.008 C 
ATOM     22  C   UNL     1      29.727  15.374  13.875  0.00  0.00    +0.008 C 
ENDBRANCH  13  20
ENDBRANCH  12  13
ENDBRANCH   5  12
TORSDOF 5
ENDMDL
MODEL 9
REMARK VINA RESULT:      -6.2      4.619      8.867
REMARK  Name = ZINC001228612316
REMARK  5 active torsions:
REMARK  status: ('A' for Active; 'I' for Inactive)
REMARK    1  A    between atoms: C_2  and  C_4
REMARK    2  A    between atoms: C_8  and  O_9
REMARK    3  A    between atoms: O_9  and  C_10
REMARK    4  A    between atoms: C_10  and  C_11
REMARK    5  A    between atoms: C_10  and  C_17
REMARK                            x       y       z     vdW  Elec       q    Type
REMARK                         _______ _______ _______ _____ _____    ______ ____
ROOT
ATOM      1  C   UNL     1      26.034  24.268  19.887  0.00  0.00    +0.040 A 
ATOM      2  C   UNL     1      24.750  24.389  19.350  0.00  0.00    +0.013 A 
ATOM      3  C   UNL     1      24.500  23.931  18.053  0.00  0.00    +0.004 A 
ATOM      4  C   UNL     1      25.527  23.348  17.305  0.00  0.00    +0.046 A 
ATOM      5  C   UNL     1      26.810  23.218  17.843  0.00  0.00    +0.122 A 
ATOM      6  C   UNL     1      27.060  23.708  19.120  0.00  0.00    +0.058 A 
ENDROOT
BRANCH   1   8
ATOM      7  N   UNL     1      27.448  25.550  21.403  0.00  0.00    -0.325 N 
ATOM      8  C   UNL     1      26.382  24.708  21.262  0.00  0.00    +0.242 C 
ATOM      9  O   UNL     1      25.706  24.385  22.231  0.00  0.00    -0.270 OA
ATOM     10  H   UNL     1      27.572  25.947  22.326  0.00  0.00    +0.145 HD
ATOM     11  H   UNL     1      27.846  26.050  20.622  0.00  0.00    +0.145 HD
ENDBRANCH   1   8
BRANCH   5  12
ATOM     12  O   UNL     1      27.742  22.625  17.036  0.00  0.00    -0.484 OA
BRANCH  12  13
ATOM     13  C   UNL     1      29.035  22.342  17.604  0.00  0.00    +0.208 C 
BRANCH  13  14
ATOM     14  C   UNL     1      29.642  21.159  16.879  0.00  0.00    +0.011 A 
ATOM     15  C   UNL     1      29.922  21.243  15.508  0.00  0.00    +0.010 A 
ATOM     16  C   UNL     1      30.472  20.156  14.840  0.00  0.00    +0.020 A 
ATOM     17  C   UNL     1      30.730  19.009  15.569  0.00  0.00    +0.111 A 
ATOM     18  N   UNL     1      30.472  18.881  16.888  0.00  0.00    -0.263 NA
ATOM     19  C   UNL     1      29.932  19.956  17.512  0.00  0.00    +0.118 A 
ENDBRANCH  13  14
BRANCH  13  20
ATOM     20  C   UNL     1      29.925  23.557  17.466  0.00  0.00    +0.034 C 
ATOM     21  C   UNL     1      31.399  23.518  17.814  0.00  0.00    +0.008 C 
ATOM     22  C   UNL     1      30.453  24.274  18.694  0.00  0.00    +0.008 C 
ENDBRANCH  13  20
ENDBRANCH  12  13
ENDBRANCH   5  12
TORSDOF 5
ENDMDL
