MODEL 1
REMARK VINA RESULT:      -6.9      0.000      0.000
REMARK  Name = ZINC000329563636
REMARK  3 active torsions:
REMARK  status: ('A' for Active; 'I' for Inactive)
REMARK    1  A    between atoms: C_1  and  C_2
REMARK    2  A    between atoms: C_2  and  N_3
REMARK    3  A    between atoms: N_9  and  C_10
REMARK                            x       y       z     vdW  Elec       q    Type
REMARK                         _______ _______ _______ _____ _____    ______ ____
ROOT
ATOM      1  C   UNL     1      32.169  21.356  16.070  0.00  0.00    +0.112 C 
ATOM      2  C   UNL     1      32.627  19.896  15.985  0.00  0.00    +0.075 C 
ATOM      3  C   UNL     1      31.520  18.857  16.216  0.00  0.00    +0.113 C 
ATOM      4  C   UNL     1      30.675  18.516  14.961  0.00  0.00    +0.048 C 
ATOM      5  C   UNL     1      31.024  17.081  14.587  0.00  0.00    +0.004 C 
ATOM      6  C   UNL     1      31.375  16.433  15.912  0.00  0.00    +0.004 C 
ATOM      7  C   UNL     1      32.185  17.512  16.610  0.00  0.00    +0.048 C 
ATOM      8  O   UNL     1      30.651  19.231  17.303  0.00  0.00    -0.485 OA
ATOM      9  C   UNL     1      30.070  20.459  17.125  0.00  0.00    +0.126 A 
ATOM     10  C   UNL     1      28.766  20.625  17.589  0.00  0.00    +0.046 A 
ATOM     11  C   UNL     1      28.107  21.841  17.400  0.00  0.00    +0.004 A 
ATOM     12  C   UNL     1      28.762  22.897  16.769  0.00  0.00    +0.001 A 
ATOM     13  C   UNL     1      30.079  22.737  16.336  0.00  0.00    +0.009 A 
ATOM     14  C   UNL     1      30.744  21.512  16.511  0.00  0.00    +0.015 A 
ENDROOT
BRANCH   1  21
ATOM     15  N   UNL     1      35.113  25.739  19.539  0.00  0.00    -0.299 N 
ATOM     16  C   UNL     1      34.857  26.097  18.144  0.00  0.00    +0.127 C 
ATOM     17  C   UNL     1      35.277  24.983  17.192  0.00  0.00    +0.129 C 
ATOM     18  N   UNL     1      34.546  23.773  17.536  0.00  0.00    -0.275 N 
ATOM     19  C   UNL     1      33.712  23.209  16.597  0.00  0.00    +0.303 C 
ATOM     20  O   UNL     1      33.557  23.692  15.477  0.00  0.00    -0.253 OA
ATOM     21  N   UNL     1      33.036  22.092  16.992  0.00  0.00    -0.292 N 
ATOM     22  C   UNL     1      34.735  23.326  18.920  0.00  0.00    +0.205 C 
ATOM     23  C   UNL     1      34.987  24.422  19.977  0.00  0.00    +0.233 C 
ATOM     24  O   UNL     1      35.104  24.112  21.166  0.00  0.00    -0.274 OA
ATOM     25  H   UNL     1      33.430  21.537  17.734  0.00  0.00    +0.151 HD
BRANCH  15  27
ATOM     26  C   UNL     1      35.985  27.999  20.063  0.00  0.00    +0.024 C 
ATOM     27  C   UNL     1      35.156  26.811  20.527  0.00  0.00    +0.104 C 
ENDBRANCH  15  27
ENDBRANCH   1  21
TORSDOF 2
ENDMDL
MODEL 2
REMARK VINA RESULT:      -6.6      5.308      8.640
REMARK  Name = ZINC000329563636
REMARK  3 active torsions:
REMARK  status: ('A' for Active; 'I' for Inactive)
REMARK    1  A    between atoms: C_1  and  C_2
REMARK    2  A    between atoms: C_2  and  N_3
REMARK    3  A    between atoms: N_9  and  C_10
REMARK                            x       y       z     vdW  Elec       q    Type
REMARK                         _______ _______ _______ _____ _____    ______ ____
ROOT
ATOM      1  C   UNL     1      26.259  24.365  19.983  0.00  0.00    +0.112 C 
ATOM      2  C   UNL     1      26.479  25.338  21.147  0.00  0.00    +0.075 C 
ATOM      3  C   UNL     1      25.568  26.573  21.138  0.00  0.00    +0.113 C 
ATOM      4  C   UNL     1      24.169  26.355  21.771  0.00  0.00    +0.048 C 
ATOM      5  C   UNL     1      24.148  27.174  23.057  0.00  0.00    +0.004 C 
ATOM      6  C   UNL     1      25.077  28.336  22.765  0.00  0.00    +0.004 C 
ATOM      7  C   UNL     1      26.222  27.672  22.017  0.00  0.00    +0.048 C 
ATOM      8  O   UNL     1      25.423  27.125  19.815  0.00  0.00    -0.485 OA
ATOM      9  C   UNL     1      24.943  26.217  18.907  0.00  0.00    +0.126 A 
ATOM     10  C   UNL     1      24.088  26.694  17.915  0.00  0.00    +0.046 A 
ATOM     11  C   UNL     1      23.534  25.811  16.987  0.00  0.00    +0.004 A 
ATOM     12  C   UNL     1      23.856  24.456  17.037  0.00  0.00    +0.001 A 
ATOM     13  C   UNL     1      24.738  23.989  18.012  0.00  0.00    +0.009 A 
ATOM     14  C   UNL     1      25.289  24.869  18.957  0.00  0.00    +0.015 A 
ENDROOT
BRANCH   1  21
ATOM     15  N   UNL     1      30.878  22.788  15.972  0.00  0.00    -0.299 N 
ATOM     16  C   UNL     1      29.713  21.904  15.981  0.00  0.00    +0.127 C 
ATOM     17  C   UNL     1      29.310  21.520  17.400  0.00  0.00    +0.129 C 
ATOM     18  N   UNL     1      29.019  22.734  18.149  0.00  0.00    -0.275 N 
ATOM     19  C   UNL     1      27.754  22.911  18.663  0.00  0.00    +0.303 C 
ATOM     20  O   UNL     1      26.857  22.083  18.512  0.00  0.00    -0.253 OA
ATOM     21  N   UNL     1      27.538  24.081  19.330  0.00  0.00    -0.292 N 
ATOM     22  C   UNL     1      30.127  23.692  18.201  0.00  0.00    +0.205 C 
ATOM     23  C   UNL     1      31.077  23.726  16.984  0.00  0.00    +0.233 C 
ATOM     24  O   UNL     1      31.998  24.545  16.949  0.00  0.00    -0.274 OA
ATOM     25  H   UNL     1      28.332  24.548  19.737  0.00  0.00    +0.151 HD
BRANCH  15  27
ATOM     26  C   UNL     1      31.115  22.001  13.633  0.00  0.00    +0.024 C 
ATOM     27  C   UNL     1      31.632  22.921  14.731  0.00  0.00    +0.104 C 
ENDBRANCH  15  27
ENDBRANCH   1  21
TORSDOF 2
ENDMDL
MODEL 3
REMARK VINA RESULT:      -6.5      3.251      8.506
REMARK  Name = ZINC000329563636
REMARK  3 active torsions:
REMARK  status: ('A' for Active; 'I' for Inactive)
REMARK    1  A    between atoms: C_1  and  C_2
REMARK    2  A    between atoms: C_2  and  N_3
REMARK    3  A    between atoms: N_9  and  C_10
REMARK                            x       y       z     vdW  Elec       q    Type
REMARK                         _______ _______ _______ _____ _____    ______ ____
ROOT
ATOM      1  C   UNL     1      31.573  20.972  15.585  0.00  0.00    +0.112 C 
ATOM      2  C   UNL     1      32.375  21.145  16.880  0.00  0.00    +0.075 C 
ATOM      3  C   UNL     1      33.274  22.389  16.923  0.00  0.00    +0.113 C 
ATOM      4  C   UNL     1      32.558  23.694  17.359  0.00  0.00    +0.048 C 
ATOM      5  C   UNL     1      33.125  24.056  18.727  0.00  0.00    +0.004 C 
ATOM      6  C   UNL     1      34.539  23.511  18.692  0.00  0.00    +0.004 C 
ATOM      7  C   UNL     1      34.366  22.168  18.002  0.00  0.00    +0.048 C 
ATOM      8  O   UNL     1      33.956  22.603  15.672  0.00  0.00    -0.485 OA
ATOM      9  C   UNL     1      33.100  22.715  14.608  0.00  0.00    +0.126 A 
ATOM     10  C   UNL     1      33.452  23.603  13.593  0.00  0.00    +0.046 A 
ATOM     11  C   UNL     1      32.599  23.792  12.503  0.00  0.00    +0.004 A 
ATOM     12  C   UNL     1      31.409  23.073  12.419  0.00  0.00    +0.001 A 
ATOM     13  C   UNL     1      31.076  22.161  13.421  0.00  0.00    +0.009 A 
ATOM     14  C   UNL     1      31.922  21.975  14.526  0.00  0.00    +0.015 A 
ENDROOT
BRANCH   1  21
ATOM     15  N   UNL     1      30.959  15.210  13.070  0.00  0.00    -0.299 N 
ATOM     16  C   UNL     1      29.947  15.585  14.056  0.00  0.00    +0.127 C 
ATOM     17  C   UNL     1      30.578  16.175  15.312  0.00  0.00    +0.129 C 
ATOM     18  N   UNL     1      31.363  17.342  14.938  0.00  0.00    -0.275 N 
ATOM     19  C   UNL     1      31.025  18.569  15.463  0.00  0.00    +0.303 C 
ATOM     20  O   UNL     1      30.081  18.718  16.237  0.00  0.00    -0.253 OA
ATOM     21  N   UNL     1      31.783  19.625  15.051  0.00  0.00    -0.292 N 
ATOM     22  C   UNL     1      32.411  17.072  13.948  0.00  0.00    +0.205 C 
ATOM     23  C   UNL     1      32.132  15.949  12.926  0.00  0.00    +0.233 C 
ATOM     24  O   UNL     1      32.955  15.710  12.039  0.00  0.00    -0.274 OA
ATOM     25  H   UNL     1      32.720  19.440  14.730  0.00  0.00    +0.151 HD
BRANCH  15  27
ATOM     26  C   UNL     1      29.075  14.050  11.951  0.00  0.00    +0.024 C 
ATOM     27  C   UNL     1      30.578  14.279  12.013  0.00  0.00    +0.104 C 
ENDBRANCH  15  27
ENDBRANCH   1  21
TORSDOF 2
ENDMDL
MODEL 4
REMARK VINA RESULT:      -6.4      5.277      7.441
REMARK  Name = ZINC000329563636
REMARK  3 active torsions:
REMARK  status: ('A' for Active; 'I' for Inactive)
REMARK    1  A    between atoms: C_1  and  C_2
REMARK    2  A    between atoms: C_2  and  N_3
REMARK    3  A    between atoms: N_9  and  C_10
REMARK                            x       y       z     vdW  Elec       q    Type
REMARK                         _______ _______ _______ _____ _____    ______ ____
ROOT
ATOM      1  C   UNL     1      31.703  22.355  13.569  0.00  0.00    +0.112 C 
ATOM      2  C   UNL     1      30.824  21.143  13.898  0.00  0.00    +0.075 C 
ATOM      3  C   UNL     1      31.162  20.440  15.221  0.00  0.00    +0.113 C 
ATOM      4  C   UNL     1      30.511  21.074  16.478  0.00  0.00    +0.048 C 
ATOM      5  C   UNL     1      29.479  20.070  16.978  0.00  0.00    +0.004 C 
ATOM      6  C   UNL     1      30.048  18.726  16.567  0.00  0.00    +0.004 C 
ATOM      7  C   UNL     1      30.586  19.000  15.172  0.00  0.00    +0.048 C 
ATOM      8  O   UNL     1      32.584  20.318  15.417  0.00  0.00    -0.485 OA
ATOM      9  C   UNL     1      33.235  21.523  15.381  0.00  0.00    +0.126 A 
ATOM     10  C   UNL     1      34.326  21.688  16.231  0.00  0.00    +0.046 A 
ATOM     11  C   UNL     1      35.004  22.909  16.270  0.00  0.00    +0.004 A 
ATOM     12  C   UNL     1      34.604  23.953  15.439  0.00  0.00    +0.001 A 
ATOM     13  C   UNL     1      33.531  23.772  14.565  0.00  0.00    +0.009 A 
ATOM     14  C   UNL     1      32.836  22.552  14.531  0.00  0.00    +0.015 A 
ENDROOT
BRANCH   1  21
ATOM     15  N   UNL     1      34.639  23.146   8.032  0.00  0.00    -0.299 N 
ATOM     16  C   UNL     1      33.928  24.315   8.547  0.00  0.00    +0.127 C 
ATOM     17  C   UNL     1      32.518  23.958   9.004  0.00  0.00    +0.129 C 
ATOM     18  N   UNL     1      32.603  22.934  10.034  0.00  0.00    -0.275 N 
ATOM     19  C   UNL     1      32.109  23.209  11.290  0.00  0.00    +0.303 C 
ATOM     20  O   UNL     1      31.599  24.291  11.576  0.00  0.00    -0.253 OA
ATOM     21  N   UNL     1      32.245  22.218  12.216  0.00  0.00    -0.292 N 
ATOM     22  C   UNL     1      33.302  21.714   9.616  0.00  0.00    +0.205 C 
ATOM     23  C   UNL     1      34.428  21.879   8.573  0.00  0.00    +0.233 C 
ATOM     24  O   UNL     1      35.084  20.896   8.220  0.00  0.00    -0.274 OA
ATOM     25  H   UNL     1      32.323  21.269  11.887  0.00  0.00    +0.151 HD
BRANCH  15  27
ATOM     26  C   UNL     1      36.535  24.664   7.537  0.00  0.00    +0.024 C 
ATOM     27  C   UNL     1      35.813  23.369   7.195  0.00  0.00    +0.104 C 
ENDBRANCH  15  27
ENDBRANCH   1  21
TORSDOF 2
ENDMDL
MODEL 5
REMARK VINA RESULT:      -6.4      5.720      8.384
REMARK  Name = ZINC000329563636
REMARK  3 active torsions:
REMARK  status: ('A' for Active; 'I' for Inactive)
REMARK    1  A    between atoms: C_1  and  C_2
REMARK    2  A    between atoms: C_2  and  N_3
REMARK    3  A    between atoms: N_9  and  C_10
REMARK                            x       y       z     vdW  Elec       q    Type
REMARK                         _______ _______ _______ _____ _____    ______ ____
ROOT
ATOM      1  C   UNL     1      31.965  23.023  12.884  0.00  0.00    +0.112 C 
ATOM      2  C   UNL     1      30.798  22.232  13.484  0.00  0.00    +0.075 C 
ATOM      3  C   UNL     1      30.932  21.917  14.981  0.00  0.00    +0.113 C 
ATOM      4  C   UNL     1      30.465  23.053  15.929  0.00  0.00    +0.048 C 
ATOM      5  C   UNL     1      29.203  22.544  16.616  0.00  0.00    +0.004 C 
ATOM      6  C   UNL     1      29.401  21.042  16.678  0.00  0.00    +0.004 C 
ATOM      7  C   UNL     1      29.999  20.725  15.318  0.00  0.00    +0.048 C 
ATOM      8  O   UNL     1      32.272  21.514  15.328  0.00  0.00    -0.485 OA
ATOM      9  C   UNL     1      33.216  22.447  14.987  0.00  0.00    +0.126 A 
ATOM     10  C   UNL     1      34.308  22.594  15.841  0.00  0.00    +0.046 A 
ATOM     11  C   UNL     1      35.283  23.557  15.569  0.00  0.00    +0.004 A 
ATOM     12  C   UNL     1      35.174  24.354  14.432  0.00  0.00    +0.001 A 
ATOM     13  C   UNL     1      34.096  24.181  13.563  0.00  0.00    +0.009 A 
ATOM     14  C   UNL     1      33.106  23.224  13.836  0.00  0.00    +0.015 A 
ENDROOT
BRANCH   1  21
ATOM     15  N   UNL     1      34.902  21.372   7.540  0.00  0.00    -0.299 N 
ATOM     16  C   UNL     1      34.386  22.739   7.586  0.00  0.00    +0.127 C 
ATOM     17  C   UNL     1      32.944  22.779   8.082  0.00  0.00    +0.129 C 
ATOM     18  N   UNL     1      32.889  22.182   9.408  0.00  0.00    -0.275 N 
ATOM     19  C   UNL     1      32.462  22.951  10.468  0.00  0.00    +0.303 C 
ATOM     20  O   UNL     1      32.127  24.127  10.336  0.00  0.00    -0.253 OA
ATOM     21  N   UNL     1      32.460  22.341  11.687  0.00  0.00    -0.292 N 
ATOM     22  C   UNL     1      33.387  20.804   9.471  0.00  0.00    +0.205 C 
ATOM     23  C   UNL     1      34.508  20.423   8.481  0.00  0.00    +0.233 C 
ATOM     24  O   UNL     1      35.002  19.293   8.521  0.00  0.00    -0.274 OA
ATOM     25  H   UNL     1      32.387  21.336  11.714  0.00  0.00    +0.151 HD
BRANCH  15  27
ATOM     26  C   UNL     1      35.733  20.706   5.301  0.00  0.00    +0.024 C 
ATOM     27  C   UNL     1      36.083  21.110   6.725  0.00  0.00    +0.104 C 
ENDBRANCH  15  27
ENDBRANCH   1  21
TORSDOF 2
ENDMDL
MODEL 6
REMARK VINA RESULT:      -6.4      2.787      4.307
REMARK  Name = ZINC000329563636
REMARK  3 active torsions:
REMARK  status: ('A' for Active; 'I' for Inactive)
REMARK    1  A    between atoms: C_1  and  C_2
REMARK    2  A    between atoms: C_2  and  N_3
REMARK    3  A    between atoms: N_9  and  C_10
REMARK                            x       y       z     vdW  Elec       q    Type
REMARK                         _______ _______ _______ _____ _____    ______ ____
ROOT
ATOM      1  C   UNL     1      33.262  23.193  16.308  0.00  0.00    +0.112 C 
ATOM      2  C   UNL     1      32.119  22.677  17.189  0.00  0.00    +0.075 C 
ATOM      3  C   UNL     1      30.946  22.047  16.424  0.00  0.00    +0.113 C 
ATOM      4  C   UNL     1      31.142  20.554  16.049  0.00  0.00    +0.048 C 
ATOM      5  C   UNL     1      30.145  19.767  16.892  0.00  0.00    +0.004 C 
ATOM      6  C   UNL     1      28.992  20.732  17.090  0.00  0.00    +0.004 C 
ATOM      7  C   UNL     1      29.698  22.053  17.345  0.00  0.00    +0.048 C 
ATOM      8  O   UNL     1      30.604  22.804  15.246  0.00  0.00    -0.485 OA
ATOM      9  C   UNL     1      31.659  22.960  14.386  0.00  0.00    +0.126 A 
ATOM     10  C   UNL     1      31.378  22.955  13.020  0.00  0.00    +0.046 A 
ATOM     11  C   UNL     1      32.416  23.069  12.093  0.00  0.00    +0.004 A 
ATOM     12  C   UNL     1      33.729  23.212  12.534  0.00  0.00    +0.001 A 
ATOM     13  C   UNL     1      34.002  23.250  13.902  0.00  0.00    +0.009 A 
ATOM     14  C   UNL     1      32.965  23.123  14.840  0.00  0.00    +0.015 A 
ENDROOT
BRANCH   1  21
ATOM     15  N   UNL     1      36.010  28.779  17.386  0.00  0.00    -0.299 N 
ATOM     16  C   UNL     1      36.773  27.603  17.802  0.00  0.00    +0.127 C 
ATOM     17  C   UNL     1      35.914  26.628  18.599  0.00  0.00    +0.129 C 
ATOM     18  N   UNL     1      34.783  26.222  17.778  0.00  0.00    -0.275 N 
ATOM     19  C   UNL     1      34.635  24.890  17.460  0.00  0.00    +0.303 C 
ATOM     20  O   UNL     1      35.426  24.029  17.841  0.00  0.00    -0.253 OA
ATOM     21  N   UNL     1      33.572  24.579  16.665  0.00  0.00    -0.292 N 
ATOM     22  C   UNL     1      33.949  27.331  17.306  0.00  0.00    +0.205 C 
ATOM     23  C   UNL     1      34.659  28.680  17.058  0.00  0.00    +0.233 C 
ATOM     24  O   UNL     1      34.019  29.636  16.614  0.00  0.00    -0.274 OA
ATOM     25  H   UNL     1      32.779  25.201  16.669  0.00  0.00    +0.151 HD
BRANCH  15  27
ATOM     26  C   UNL     1      38.072  29.639  16.311  0.00  0.00    +0.024 C 
ATOM     27  C   UNL     1      36.748  29.971  16.984  0.00  0.00    +0.104 C 
ENDBRANCH  15  27
ENDBRANCH   1  21
TORSDOF 2
ENDMDL
MODEL 7
REMARK VINA RESULT:      -6.3      2.771      5.183
REMARK  Name = ZINC000329563636
REMARK  3 active torsions:
REMARK  status: ('A' for Active; 'I' for Inactive)
REMARK    1  A    between atoms: C_1  and  C_2
REMARK    2  A    between atoms: C_2  and  N_3
REMARK    3  A    between atoms: N_9  and  C_10
REMARK                            x       y       z     vdW  Elec       q    Type
REMARK                         _______ _______ _______ _____ _____    ______ ____
ROOT
ATOM      1  C   UNL     1      31.373  18.123  16.278  0.00  0.00    +0.112 C 
ATOM      2  C   UNL     1      30.277  17.586  15.350  0.00  0.00    +0.075 C 
ATOM      3  C   UNL     1      30.418  16.104  14.972  0.00  0.00    +0.113 C 
ATOM      4  C   UNL     1      29.831  15.110  16.007  0.00  0.00    +0.048 C 
ATOM      5  C   UNL     1      28.613  14.475  15.347  0.00  0.00    +0.004 C 
ATOM      6  C   UNL     1      28.952  14.485  13.869  0.00  0.00    +0.004 C 
ATOM      7  C   UNL     1      29.598  15.847  13.680  0.00  0.00    +0.048 C 
ATOM      8  O   UNL     1      31.785  15.752  14.679  0.00  0.00    -0.485 OA
ATOM      9  C   UNL     1      32.641  16.026  15.713  0.00  0.00    +0.126 A 
ATOM     10  C   UNL     1      33.702  15.145  15.917  0.00  0.00    +0.046 A 
ATOM     11  C   UNL     1      34.584  15.348  16.981  0.00  0.00    +0.004 A 
ATOM     12  C   UNL     1      34.417  16.446  17.822  0.00  0.00    +0.001 A 
ATOM     13  C   UNL     1      33.374  17.344  17.594  0.00  0.00    +0.009 A 
ATOM     14  C   UNL     1      32.475  17.139  16.535  0.00  0.00    +0.015 A 
ENDROOT
BRANCH   1  21
ATOM     15  N   UNL     1      34.050  23.759  15.293  0.00  0.00    -0.299 N 
ATOM     16  C   UNL     1      33.043  23.709  16.353  0.00  0.00    +0.127 C 
ATOM     17  C   UNL     1      31.776  22.997  15.890  0.00  0.00    +0.129 C 
ATOM     18  N   UNL     1      32.124  21.648  15.471  0.00  0.00    -0.275 N 
ATOM     19  C   UNL     1      31.560  20.579  16.131  0.00  0.00    +0.303 C 
ATOM     20  O   UNL     1      30.773  20.721  17.065  0.00  0.00    -0.253 OA
ATOM     21  N   UNL     1      31.948  19.342  15.708  0.00  0.00    -0.292 N 
ATOM     22  C   UNL     1      33.131  21.587  14.407  0.00  0.00    +0.205 C 
ATOM     23  C   UNL     1      34.183  22.717  14.378  0.00  0.00    +0.233 C 
ATOM     24  O   UNL     1      35.085  22.693  13.537  0.00  0.00    -0.274 OA
ATOM     25  H   UNL     1      32.284  19.248  14.762  0.00  0.00    +0.151 HD
BRANCH  15  27
ATOM     26  C   UNL     1      34.993  25.602  16.657  0.00  0.00    +0.024 C 
ATOM     27  C   UNL     1      35.129  24.732  15.416  0.00  0.00    +0.104 C 
ENDBRANCH  15  27
ENDBRANCH   1  21
TORSDOF 2
ENDMDL
MODEL 8
REMARK VINA RESULT:      -6.3      6.024      9.001
REMARK  Name = ZINC000329563636
REMARK  3 active torsions:
REMARK  status: ('A' for Active; 'I' for Inactive)
REMARK    1  A    between atoms: C_1  and  C_2
REMARK    2  A    between atoms: C_2  and  N_3
REMARK    3  A    between atoms: N_9  and  C_10
REMARK                            x       y       z     vdW  Elec       q    Type
REMARK                         _______ _______ _______ _____ _____    ______ ____
ROOT
ATOM      1  C   UNL     1      26.260  25.363  20.587  0.00  0.00    +0.112 C 
ATOM      2  C   UNL     1      26.021  24.570  21.876  0.00  0.00    +0.075 C 
ATOM      3  C   UNL     1      25.844  25.426  23.138  0.00  0.00    +0.113 C 
ATOM      4  C   UNL     1      24.405  25.958  23.367  0.00  0.00    +0.048 C 
ATOM      5  C   UNL     1      23.869  25.229  24.594  0.00  0.00    +0.004 C 
ATOM      6  C   UNL     1      25.107  24.953  25.424  0.00  0.00    +0.004 C 
ATOM      7  C   UNL     1      26.128  24.538  24.378  0.00  0.00    +0.048 C 
ATOM      8  O   UNL     1      26.781  26.520  23.181  0.00  0.00    -0.485 OA
ATOM      9  C   UNL     1      26.702  27.335  22.082  0.00  0.00    +0.126 A 
ATOM     10  C   UNL     1      26.915  28.698  22.279  0.00  0.00    +0.046 A 
ATOM     11  C   UNL     1      26.807  29.584  21.204  0.00  0.00    +0.004 A 
ATOM     12  C   UNL     1      26.512  29.101  19.932  0.00  0.00    +0.001 A 
ATOM     13  C   UNL     1      26.332  27.731  19.734  0.00  0.00    +0.009 A 
ATOM     14  C   UNL     1      26.426  26.836  20.811  0.00  0.00    +0.015 A 
ENDROOT
BRANCH   1  21
ATOM     15  N   UNL     1      30.454  23.107  16.435  0.00  0.00    -0.299 N 
ATOM     16  C   UNL     1      29.119  22.512  16.378  0.00  0.00    +0.127 C 
ATOM     17  C   UNL     1      28.621  22.117  17.764  0.00  0.00    +0.129 C 
ATOM     18  N   UNL     1      28.602  23.300  18.610  0.00  0.00    -0.275 N 
ATOM     19  C   UNL     1      27.403  23.719  19.145  0.00  0.00    +0.303 C 
ATOM     20  O   UNL     1      26.345  23.130  18.931  0.00  0.00    -0.253 OA
ATOM     21  N   UNL     1      27.450  24.849  19.905  0.00  0.00    -0.292 N 
ATOM     22  C   UNL     1      29.898  23.975  18.735  0.00  0.00    +0.205 C 
ATOM     23  C   UNL     1      30.846  23.890  17.519  0.00  0.00    +0.233 C 
ATOM     24  O   UNL     1      31.930  24.479  17.545  0.00  0.00    -0.274 OA
ATOM     25  H   UNL     1      28.324  25.089  20.345  0.00  0.00    +0.151 HD
BRANCH  15  27
ATOM     26  C   UNL     1      30.921  22.012  14.261  0.00  0.00    +0.024 C 
ATOM     27  C   UNL     1      31.234  23.164  15.204  0.00  0.00    +0.104 C 
ENDBRANCH  15  27
ENDBRANCH   1  21
TORSDOF 2
ENDMDL
MODEL 9
REMARK VINA RESULT:      -6.2      2.874      8.015
REMARK  Name = ZINC000329563636
REMARK  3 active torsions:
REMARK  status: ('A' for Active; 'I' for Inactive)
REMARK    1  A    between atoms: C_1  and  C_2
REMARK    2  A    between atoms: C_2  and  N_3
REMARK    3  A    between atoms: N_9  and  C_10
REMARK                            x       y       z     vdW  Elec       q    Type
REMARK                         _______ _______ _______ _____ _____    ______ ____
ROOT
ATOM      1  C   UNL     1      32.695  20.475  16.914  0.00  0.00    +0.112 C 
ATOM      2  C   UNL     1      33.740  21.592  16.808  0.00  0.00    +0.075 C 
ATOM      3  C   UNL     1      33.168  23.016  16.813  0.00  0.00    +0.113 C 
ATOM      4  C   UNL     1      32.893  23.602  18.223  0.00  0.00    +0.048 C 
ATOM      5  C   UNL     1      33.906  24.723  18.425  0.00  0.00    +0.004 C 
ATOM      6  C   UNL     1      34.158  25.245  17.024  0.00  0.00    +0.004 C 
ATOM      7  C   UNL     1      34.223  23.972  16.197  0.00  0.00    +0.048 C 
ATOM      8  O   UNL     1      31.981  23.122  16.002  0.00  0.00    -0.485 OA
ATOM      9  C   UNL     1      30.995  22.250  16.382  0.00  0.00    +0.126 A 
ATOM     10  C   UNL     1      29.676  22.687  16.273  0.00  0.00    +0.046 A 
ATOM     11  C   UNL     1      28.629  21.859  16.683  0.00  0.00    +0.004 A 
ATOM     12  C   UNL     1      28.902  20.586  17.178  0.00  0.00    +0.001 A 
ATOM     13  C   UNL     1      30.222  20.140  17.254  0.00  0.00    +0.009 A 
ATOM     14  C   UNL     1      31.281  20.972  16.856  0.00  0.00    +0.015 A 
ENDROOT
BRANCH   1  21
ATOM     15  N   UNL     1      32.342  15.620  12.888  0.00  0.00    -0.299 N 
ATOM     16  C   UNL     1      32.120  15.296  14.297  0.00  0.00    +0.127 C 
ATOM     17  C   UNL     1      33.194  15.909  15.190  0.00  0.00    +0.129 C 
ATOM     18  N   UNL     1      33.188  17.352  15.005  0.00  0.00    -0.275 N 
ATOM     19  C   UNL     1      32.919  18.162  16.086  0.00  0.00    +0.303 C 
ATOM     20  O   UNL     1      32.678  17.710  17.204  0.00  0.00    -0.253 OA
ATOM     21  N   UNL     1      32.901  19.502  15.840  0.00  0.00    -0.292 N 
ATOM     22  C   UNL     1      33.403  17.785  13.620  0.00  0.00    +0.205 C 
ATOM     23  C   UNL     1      32.885  16.846  12.509  0.00  0.00    +0.233 C 
ATOM     24  O   UNL     1      32.992  17.179  11.326  0.00  0.00    -0.274 OA
ATOM     25  H   UNL     1      33.431  19.847  15.055  0.00  0.00    +0.151 HD
BRANCH  15  27
ATOM     26  C   UNL     1      30.241  14.460  12.266  0.00  0.00    +0.024 C 
ATOM     27  C   UNL     1      31.673  14.803  11.882  0.00  0.00    +0.104 C 
ENDBRANCH  15  27
ENDBRANCH   1  21
TORSDOF 2
ENDMDL
