MODEL 1
REMARK VINA RESULT:      -8.7      0.000      0.000
REMARK  Name = ZINC000870248439
REMARK  2 active torsions:
REMARK  status: ('A' for Active; 'I' for Inactive)
REMARK    1  A    between atoms: C_2  and  C_4
REMARK    2  A    between atoms: C_7  and  C_8
REMARK                            x       y       z     vdW  Elec       q    Type
REMARK                         _______ _______ _______ _____ _____    ______ ____
ROOT
ATOM      1  C   UNL     1      12.485   5.989  10.761  0.00  0.00    +0.247 C 
ATOM      2  O   UNL     1      11.825   7.026  10.820  0.00  0.00    -0.270 OA
ATOM      3  N   UNL     1      12.994   5.470   9.563  0.00  0.00    -0.297 N 
ATOM      4  C   UNL     1      13.753   4.224   9.430  0.00  0.00    +0.108 C 
ATOM      5  C   UNL     1      14.874   4.309   8.402  0.00  0.00    +0.026 C 
ATOM      6  C   UNL     1      14.422   4.873   7.037  0.00  0.00    -0.025 C 
ATOM      7  C   UNL     1      15.696   5.103   6.185  0.00  0.00    +0.017 C 
ATOM      8  C   UNL     1      15.444   5.628   4.778  0.00  0.00    +0.069 C 
ATOM      9  S   UNL     1      14.427   4.495   3.792  0.00  0.00    -0.161 S 
ATOM     10  C   UNL     1      13.038   4.268   4.935  0.00  0.00    +0.069 C 
ATOM     11  C   UNL     1      13.506   3.845   6.323  0.00  0.00    +0.017 C 
ATOM     12  C   UNL     1      13.703   6.218   7.315  0.00  0.00    +0.026 C 
ATOM     13  C   UNL     1      12.554   6.087   8.315  0.00  0.00    +0.108 C 
ENDROOT
BRANCH   1  17
ATOM     14  C   UNL     1      13.488   4.282  14.544  0.00  0.00    +0.037 A 
ATOM     15  C   UNL     1      14.220   3.912  13.411  0.00  0.00    +0.014 A 
ATOM     16  C   UNL     1      13.839   4.388  12.156  0.00  0.00    +0.014 A 
ATOM     17  C   UNL     1      12.791   5.308  12.044  0.00  0.00    +0.037 A 
ATOM     18  C   UNL     1      12.004   5.606  13.164  0.00  0.00    +0.014 A 
ATOM     19  C   UNL     1      12.347   5.084  14.414  0.00  0.00    +0.014 A 
BRANCH  14  21
ATOM     20  N   UNL     1      12.981   3.129  16.623  0.00  0.00    -0.325 N 
ATOM     21  C   UNL     1      13.900   3.835  15.898  0.00  0.00    +0.242 C 
ATOM     22  O   UNL     1      15.026   4.040  16.327  0.00  0.00    -0.270 OA
ATOM     23  H   UNL     1      13.313   2.725  17.489  0.00  0.00    +0.145 HD
ATOM     24  H   UNL     1      12.157   2.721  16.202  0.00  0.00    +0.145 HD
ENDBRANCH  14  21
ENDBRANCH   1  17
TORSDOF 2
ENDMDL
MODEL 2
REMARK VINA RESULT:      -7.9      1.651      2.458
REMARK  Name = ZINC000870248439
REMARK  2 active torsions:
REMARK  status: ('A' for Active; 'I' for Inactive)
REMARK    1  A    between atoms: C_2  and  C_4
REMARK    2  A    between atoms: C_7  and  C_8
REMARK                            x       y       z     vdW  Elec       q    Type
REMARK                         _______ _______ _______ _____ _____    ______ ____
ROOT
ATOM      1  C   UNL     1      11.977   4.567   8.655  0.00  0.00    +0.247 C 
ATOM      2  O   UNL     1      10.793   4.414   8.358  0.00  0.00    -0.270 OA
ATOM      3  N   UNL     1      13.008   4.606   7.707  0.00  0.00    -0.297 N 
ATOM      4  C   UNL     1      14.435   4.750   8.005  0.00  0.00    +0.108 C 
ATOM      5  C   UNL     1      15.178   5.615   6.994  0.00  0.00    +0.026 C 
ATOM      6  C   UNL     1      14.921   5.210   5.527  0.00  0.00    -0.025 C 
ATOM      7  C   UNL     1      15.556   6.301   4.627  0.00  0.00    +0.017 C 
ATOM      8  C   UNL     1      15.434   6.052   3.130  0.00  0.00    +0.069 C 
ATOM      9  S   UNL     1      16.237   4.508   2.620  0.00  0.00    -0.161 S 
ATOM     10  C   UNL     1      15.459   3.365   3.793  0.00  0.00    +0.069 C 
ATOM     11  C   UNL     1      15.597   3.846   5.233  0.00  0.00    +0.017 C 
ATOM     12  C   UNL     1      13.384   5.168   5.328  0.00  0.00    +0.026 C 
ATOM     13  C   UNL     1      12.676   4.254   6.329  0.00  0.00    +0.108 C 
ENDROOT
BRANCH   1  17
ATOM     14  C   UNL     1      12.778   4.905  12.835  0.00  0.00    +0.037 A 
ATOM     15  C   UNL     1      11.705   5.615  12.284  0.00  0.00    +0.014 A 
ATOM     16  C   UNL     1      11.495   5.589  10.905  0.00  0.00    +0.014 A 
ATOM     17  C   UNL     1      12.292   4.779  10.090  0.00  0.00    +0.037 A 
ATOM     18  C   UNL     1      13.417   4.142  10.629  0.00  0.00    +0.014 A 
ATOM     19  C   UNL     1      13.666   4.215  12.002  0.00  0.00    +0.014 A 
BRANCH  14  21
ATOM     20  N   UNL     1      11.909   5.105  15.096  0.00  0.00    -0.325 N 
ATOM     21  C   UNL     1      12.997   4.871  14.303  0.00  0.00    +0.242 C 
ATOM     22  O   UNL     1      14.085   4.592  14.783  0.00  0.00    -0.270 OA
ATOM     23  H   UNL     1      12.042   4.958  16.089  0.00  0.00    +0.145 HD
ATOM     24  H   UNL     1      10.963   5.074  14.742  0.00  0.00    +0.145 HD
ENDBRANCH  14  21
ENDBRANCH   1  17
TORSDOF 2
ENDMDL
MODEL 3
REMARK VINA RESULT:      -7.7     24.694     25.617
REMARK  Name = ZINC000870248439
REMARK  2 active torsions:
REMARK  status: ('A' for Active; 'I' for Inactive)
REMARK    1  A    between atoms: C_2  and  C_4
REMARK    2  A    between atoms: C_7  and  C_8
REMARK                            x       y       z     vdW  Elec       q    Type
REMARK                         _______ _______ _______ _____ _____    ______ ____
ROOT
ATOM      1  C   UNL     1      29.670  21.095  17.325  0.00  0.00    +0.247 C 
ATOM      2  O   UNL     1      28.596  21.676  17.484  0.00  0.00    -0.270 OA
ATOM      3  N   UNL     1      30.891  21.599  17.792  0.00  0.00    -0.297 N 
ATOM      4  C   UNL     1      32.200  20.970  17.601  0.00  0.00    +0.108 C 
ATOM      5  C   UNL     1      33.119  21.112  18.808  0.00  0.00    +0.026 C 
ATOM      6  C   UNL     1      33.233  22.560  19.332  0.00  0.00    -0.025 C 
ATOM      7  C   UNL     1      34.010  22.508  20.671  0.00  0.00    +0.017 C 
ATOM      8  C   UNL     1      34.255  23.861  21.327  0.00  0.00    +0.069 C 
ATOM      9  S   UNL     1      35.224  24.974  20.273  0.00  0.00    -0.161 S 
ATOM     10  C   UNL     1      34.245  24.870  18.750  0.00  0.00    +0.069 C 
ATOM     11  C   UNL     1      34.020  23.426  18.315  0.00  0.00    +0.017 C 
ATOM     12  C   UNL     1      31.788  23.076  19.561  0.00  0.00    +0.026 C 
ATOM     13  C   UNL     1      30.908  22.962  18.316  0.00  0.00    +0.108 C 
ENDROOT
BRANCH   1  17
ATOM     14  C   UNL     1      29.784  17.207  15.566  0.00  0.00    +0.037 A 
ATOM     15  C   UNL     1      30.242  18.304  14.830  0.00  0.00    +0.014 A 
ATOM     16  C   UNL     1      30.119  19.590  15.357  0.00  0.00    +0.014 A 
ATOM     17  C   UNL     1      29.630  19.772  16.655  0.00  0.00    +0.037 A 
ATOM     18  C   UNL     1      29.089  18.684  17.354  0.00  0.00    +0.014 A 
ATOM     19  C   UNL     1      29.157  17.402  16.803  0.00  0.00    +0.014 A 
BRANCH  14  21
ATOM     20  N   UNL     1      28.896  14.969  15.232  0.00  0.00    -0.325 N 
ATOM     21  C   UNL     1      29.948  15.823  15.056  0.00  0.00    +0.242 C 
ATOM     22  O   UNL     1      30.955  15.475  14.457  0.00  0.00    -0.270 OA
ATOM     23  H   UNL     1      28.970  14.069  14.774  0.00  0.00    +0.145 HD
ATOM     24  H   UNL     1      27.971  15.293  15.477  0.00  0.00    +0.145 HD
ENDBRANCH  14  21
ENDBRANCH   1  17
TORSDOF 2
ENDMDL
MODEL 4
REMARK VINA RESULT:      -7.4      3.962      7.059
REMARK  Name = ZINC000870248439
REMARK  2 active torsions:
REMARK  status: ('A' for Active; 'I' for Inactive)
REMARK    1  A    between atoms: C_2  and  C_4
REMARK    2  A    between atoms: C_7  and  C_8
REMARK                            x       y       z     vdW  Elec       q    Type
REMARK                         _______ _______ _______ _____ _____    ______ ____
ROOT
ATOM      1  C   UNL     1      12.398   6.385   8.957  0.00  0.00    +0.247 C 
ATOM      2  O   UNL     1      12.269   6.765  10.120  0.00  0.00    -0.270 OA
ATOM      3  N   UNL     1      13.361   5.450   8.556  0.00  0.00    -0.297 N 
ATOM      4  C   UNL     1      13.582   4.989   7.183  0.00  0.00    +0.108 C 
ATOM      5  C   UNL     1      13.932   3.509   7.093  0.00  0.00    +0.026 C 
ATOM      6  C   UNL     1      15.068   3.082   8.047  0.00  0.00    -0.025 C 
ATOM      7  C   UNL     1      15.155   1.536   8.001  0.00  0.00    +0.017 C 
ATOM      8  C   UNL     1      16.255   0.927   8.860  0.00  0.00    +0.069 C 
ATOM      9  S   UNL     1      17.907   1.498   8.373  0.00  0.00    -0.161 S 
ATOM     10  C   UNL     1      17.624   3.289   8.401  0.00  0.00    +0.069 C 
ATOM     11  C   UNL     1      16.412   3.687   7.565  0.00  0.00    +0.017 C 
ATOM     12  C   UNL     1      14.675   3.563   9.468  0.00  0.00    +0.026 C 
ATOM     13  C   UNL     1      14.377   5.061   9.531  0.00  0.00    +0.108 C 
ENDROOT
BRANCH   1  17
ATOM     14  C   UNL     1       9.595   8.152   6.264  0.00  0.00    +0.037 A 
ATOM     15  C   UNL     1       9.186   7.089   7.076  0.00  0.00    +0.014 A 
ATOM     16  C   UNL     1      10.118   6.442   7.888  0.00  0.00    +0.014 A 
ATOM     17  C   UNL     1      11.433   6.916   7.962  0.00  0.00    +0.037 A 
ATOM     18  C   UNL     1      11.861   7.919   7.084  0.00  0.00    +0.014 A 
ATOM     19  C   UNL     1      10.943   8.531   6.226  0.00  0.00    +0.014 A 
BRANCH  14  21
ATOM     20  N   UNL     1       8.667  10.260   5.486  0.00  0.00    -0.325 N 
ATOM     21  C   UNL     1       8.617   8.895   5.430  0.00  0.00    +0.242 C 
ATOM     22  O   UNL     1       7.840   8.317   4.685  0.00  0.00    -0.270 OA
ATOM     23  H   UNL     1       8.082  10.754   4.824  0.00  0.00    +0.145 HD
ATOM     24  H   UNL     1       9.455  10.757   5.876  0.00  0.00    +0.145 HD
ENDBRANCH  14  21
ENDBRANCH   1  17
TORSDOF 2
ENDMDL
MODEL 5
REMARK VINA RESULT:      -7.4      4.620      5.956
REMARK  Name = ZINC000870248439
REMARK  2 active torsions:
REMARK  status: ('A' for Active; 'I' for Inactive)
REMARK    1  A    between atoms: C_2  and  C_4
REMARK    2  A    between atoms: C_7  and  C_8
REMARK                            x       y       z     vdW  Elec       q    Type
REMARK                         _______ _______ _______ _____ _____    ______ ____
ROOT
ATOM      1  C   UNL     1      13.358   6.316   7.451  0.00  0.00    +0.247 C 
ATOM      2  O   UNL     1      14.117   7.101   8.018  0.00  0.00    -0.270 OA
ATOM      3  N   UNL     1      13.806   5.273   6.628  0.00  0.00    -0.297 N 
ATOM      4  C   UNL     1      12.948   4.334   5.901  0.00  0.00    +0.108 C 
ATOM      5  C   UNL     1      13.504   2.916   5.865  0.00  0.00    +0.026 C 
ATOM      6  C   UNL     1      14.978   2.840   5.411  0.00  0.00    -0.025 C 
ATOM      7  C   UNL     1      15.457   1.383   5.635  0.00  0.00    +0.017 C 
ATOM      8  C   UNL     1      16.892   1.104   5.207  0.00  0.00    +0.069 C 
ATOM      9  S   UNL     1      17.157   1.411   3.440  0.00  0.00    -0.161 S 
ATOM     10  C   UNL     1      16.489   3.093   3.325  0.00  0.00    +0.069 C 
ATOM     11  C   UNL     1      15.082   3.188   3.904  0.00  0.00    +0.017 C 
ATOM     12  C   UNL     1      15.781   3.821   6.305  0.00  0.00    +0.026 C 
ATOM     13  C   UNL     1      15.224   5.244   6.281  0.00  0.00    +0.108 C 
ENDROOT
BRANCH   1  17
ATOM     14  C   UNL     1       9.140   6.492   8.088  0.00  0.00    +0.037 A 
ATOM     15  C   UNL     1       9.714   7.282   7.086  0.00  0.00    +0.014 A 
ATOM     16  C   UNL     1      11.101   7.305   6.934  0.00  0.00    +0.014 A 
ATOM     17  C   UNL     1      11.906   6.469   7.716  0.00  0.00    +0.037 A 
ATOM     18  C   UNL     1      11.339   5.750   8.775  0.00  0.00    +0.014 A 
ATOM     19  C   UNL     1       9.955   5.770   8.969  0.00  0.00    +0.014 A 
BRANCH  14  21
ATOM     20  N   UNL     1       7.045   7.452   8.863  0.00  0.00    -0.325 N 
ATOM     21  C   UNL     1       7.666   6.405   8.241  0.00  0.00    +0.242 C 
ATOM     22  O   UNL     1       7.028   5.468   7.785  0.00  0.00    -0.270 OA
ATOM     23  H   UNL     1       6.033   7.439   8.852  0.00  0.00    +0.145 HD
ATOM     24  H   UNL     1       7.501   8.342   9.008  0.00  0.00    +0.145 HD
ENDBRANCH  14  21
ENDBRANCH   1  17
TORSDOF 2
ENDMDL
MODEL 6
REMARK VINA RESULT:      -7.4      4.332      8.715
REMARK  Name = ZINC000870248439
REMARK  2 active torsions:
REMARK  status: ('A' for Active; 'I' for Inactive)
REMARK    1  A    between atoms: C_2  and  C_4
REMARK    2  A    between atoms: C_7  and  C_8
REMARK                            x       y       z     vdW  Elec       q    Type
REMARK                         _______ _______ _______ _____ _____    ______ ____
ROOT
ATOM      1  C   UNL     1      13.446   3.773   5.684  0.00  0.00    +0.247 C 
ATOM      2  O   UNL     1      12.935   2.688   5.409  0.00  0.00    -0.270 OA
ATOM      3  N   UNL     1      13.334   4.377   6.944  0.00  0.00    -0.297 N 
ATOM      4  C   UNL     1      13.889   5.680   7.316  0.00  0.00    +0.108 C 
ATOM      5  C   UNL     1      14.429   5.721   8.740  0.00  0.00    +0.026 C 
ATOM      6  C   UNL     1      13.438   5.181   9.793  0.00  0.00    -0.025 C 
ATOM      7  C   UNL     1      14.200   5.081  11.139  0.00  0.00    +0.017 C 
ATOM      8  C   UNL     1      13.366   4.597  12.317  0.00  0.00    +0.069 C 
ATOM      9  S   UNL     1      11.960   5.689  12.662  0.00  0.00    -0.161 S 
ATOM     10  C   UNL     1      11.227   5.765  11.006  0.00  0.00    +0.069 C 
ATOM     11  C   UNL     1      12.249   6.165   9.948  0.00  0.00    +0.017 C 
ATOM     12  C   UNL     1      12.988   3.775   9.318  0.00  0.00    +0.026 C 
ATOM     13  C   UNL     1      12.408   3.780   7.903  0.00  0.00    +0.108 C 
ENDROOT
BRANCH   1  17
ATOM     14  C   UNL     1      16.005   5.692   2.857  0.00  0.00    +0.037 A 
ATOM     15  C   UNL     1      14.862   6.360   3.308  0.00  0.00    +0.014 A 
ATOM     16  C   UNL     1      13.968   5.705   4.156  0.00  0.00    +0.014 A 
ATOM     17  C   UNL     1      14.264   4.422   4.630  0.00  0.00    +0.037 A 
ATOM     18  C   UNL     1      15.360   3.723   4.108  0.00  0.00    +0.014 A 
ATOM     19  C   UNL     1      16.225   4.355   3.211  0.00  0.00    +0.014 A 
BRANCH  14  21
ATOM     20  N   UNL     1      16.732   7.674   1.652  0.00  0.00    -0.325 N 
ATOM     21  C   UNL     1      17.001   6.379   1.997  0.00  0.00    +0.242 C 
ATOM     22  O   UNL     1      18.040   5.834   1.657  0.00  0.00    -0.270 OA
ATOM     23  H   UNL     1      17.472   8.170   1.171  0.00  0.00    +0.145 HD
ATOM     24  H   UNL     1      16.031   8.226   2.126  0.00  0.00    +0.145 HD
ENDBRANCH  14  21
ENDBRANCH   1  17
TORSDOF 2
ENDMDL
MODEL 7
REMARK VINA RESULT:      -7.3      2.766      4.451
REMARK  Name = ZINC000870248439
REMARK  2 active torsions:
REMARK  status: ('A' for Active; 'I' for Inactive)
REMARK    1  A    between atoms: C_2  and  C_4
REMARK    2  A    between atoms: C_7  and  C_8
REMARK                            x       y       z     vdW  Elec       q    Type
REMARK                         _______ _______ _______ _____ _____    ______ ____
ROOT
ATOM      1  C   UNL     1      13.108   3.559   6.851  0.00  0.00    +0.247 C 
ATOM      2  O   UNL     1      12.758   2.412   6.577  0.00  0.00    -0.270 OA
ATOM      3  N   UNL     1      13.744   4.407   5.934  0.00  0.00    -0.297 N 
ATOM      4  C   UNL     1      14.214   5.766   6.214  0.00  0.00    +0.108 C 
ATOM      5  C   UNL     1      14.017   6.724   5.046  0.00  0.00    +0.026 C 
ATOM      6  C   UNL     1      14.552   6.182   3.703  0.00  0.00    -0.025 C 
ATOM      7  C   UNL     1      14.087   7.156   2.591  0.00  0.00    +0.017 C 
ATOM      8  C   UNL     1      14.555   6.801   1.187  0.00  0.00    +0.069 C 
ATOM      9  S   UNL     1      16.364   6.772   1.049  0.00  0.00    -0.161 S 
ATOM     10  C   UNL     1      16.751   5.671   2.437  0.00  0.00    +0.069 C 
ATOM     11  C   UNL     1      16.102   6.140   3.734  0.00  0.00    +0.017 C 
ATOM     12  C   UNL     1      13.923   4.779   3.495  0.00  0.00    +0.026 C 
ATOM     13  C   UNL     1      14.180   3.829   4.665  0.00  0.00    +0.108 C 
ENDROOT
BRANCH   1  17
ATOM     14  C   UNL     1      12.189   5.284  10.647  0.00  0.00    +0.037 A 
ATOM     15  C   UNL     1      13.415   4.634  10.469  0.00  0.00    +0.014 A 
ATOM     16  C   UNL     1      13.684   3.983   9.265  0.00  0.00    +0.014 A 
ATOM     17  C   UNL     1      12.773   4.064   8.206  0.00  0.00    +0.037 A 
ATOM     18  C   UNL     1      11.512   4.636   8.414  0.00  0.00    +0.014 A 
ATOM     19  C   UNL     1      11.216   5.238   9.640  0.00  0.00    +0.014 A 
BRANCH  14  21
ATOM     20  N   UNL     1      12.184   5.401  13.074  0.00  0.00    -0.325 N 
ATOM     21  C   UNL     1      11.894   6.030  11.896  0.00  0.00    +0.242 C 
ATOM     22  O   UNL     1      11.462   7.173  11.874  0.00  0.00    -0.270 OA
ATOM     23  H   UNL     1      12.095   5.963  13.912  0.00  0.00    +0.145 HD
ATOM     24  H   UNL     1      12.776   4.584  13.121  0.00  0.00    +0.145 HD
ENDBRANCH  14  21
ENDBRANCH   1  17
TORSDOF 2
ENDMDL
MODEL 8
REMARK VINA RESULT:      -7.2     25.040     25.680
REMARK  Name = ZINC000870248439
REMARK  2 active torsions:
REMARK  status: ('A' for Active; 'I' for Inactive)
REMARK    1  A    between atoms: C_2  and  C_4
REMARK    2  A    between atoms: C_7  and  C_8
REMARK                            x       y       z     vdW  Elec       q    Type
REMARK                         _______ _______ _______ _____ _____    ______ ____
ROOT
ATOM      1  C   UNL     1      32.092  20.805  13.923  0.00  0.00    +0.247 C 
ATOM      2  O   UNL     1      32.399  19.618  13.817  0.00  0.00    -0.270 OA
ATOM      3  N   UNL     1      32.582  21.804  13.071  0.00  0.00    -0.297 N 
ATOM      4  C   UNL     1      32.279  23.234  13.172  0.00  0.00    +0.108 C 
ATOM      5  C   UNL     1      32.123  23.915  11.818  0.00  0.00    +0.026 C 
ATOM      6  C   UNL     1      33.284  23.626  10.842  0.00  0.00    -0.025 C 
ATOM      7  C   UNL     1      32.878  24.195   9.459  0.00  0.00    +0.017 C 
ATOM      8  C   UNL     1      33.925  24.034   8.365  0.00  0.00    +0.069 C 
ATOM      9  S   UNL     1      35.481  24.873   8.771  0.00  0.00    -0.161 S 
ATOM     10  C   UNL     1      35.778  24.172  10.417  0.00  0.00    +0.069 C 
ATOM     11  C   UNL     1      34.571  24.339  11.333  0.00  0.00    +0.017 C 
ATOM     12  C   UNL     1      33.447  22.085  10.771  0.00  0.00    +0.026 C 
ATOM     13  C   UNL     1      33.649  21.441  12.143  0.00  0.00    +0.108 C 
ENDROOT
BRANCH   1  17
ATOM     14  C   UNL     1      29.292  21.545  17.061  0.00  0.00    +0.037 A 
ATOM     15  C   UNL     1      28.827  21.393  15.750  0.00  0.00    +0.014 A 
ATOM     16  C   UNL     1      29.740  21.248  14.705  0.00  0.00    +0.014 A 
ATOM     17  C   UNL     1      31.109  21.158  14.978  0.00  0.00    +0.037 A 
ATOM     18  C   UNL     1      31.578  21.401  16.275  0.00  0.00    +0.014 A 
ATOM     19  C   UNL     1      30.668  21.605  17.316  0.00  0.00    +0.014 A 
BRANCH  14  21
ATOM     20  N   UNL     1      28.358  22.816  18.910  0.00  0.00    -0.325 N 
ATOM     21  C   UNL     1      28.346  21.648  18.199  0.00  0.00    +0.242 C 
ATOM     22  O   UNL     1      27.554  20.755  18.458  0.00  0.00    -0.270 OA
ATOM     23  H   UNL     1      27.628  22.922  19.603  0.00  0.00    +0.145 HD
ATOM     24  H   UNL     1      28.801  23.655  18.565  0.00  0.00    +0.145 HD
ENDBRANCH  14  21
ENDBRANCH   1  17
TORSDOF 2
ENDMDL
MODEL 9
REMARK VINA RESULT:      -7.2     21.801     22.511
REMARK  Name = ZINC000870248439
REMARK  2 active torsions:
REMARK  status: ('A' for Active; 'I' for Inactive)
REMARK    1  A    between atoms: C_2  and  C_4
REMARK    2  A    between atoms: C_7  and  C_8
REMARK                            x       y       z     vdW  Elec       q    Type
REMARK                         _______ _______ _______ _____ _____    ______ ____
ROOT
ATOM      1  C   UNL     1      30.550  16.062  13.647  0.00  0.00    +0.247 C 
ATOM      2  O   UNL     1      29.619  15.546  13.030  0.00  0.00    -0.270 OA
ATOM      3  N   UNL     1      31.897  15.776  13.383  0.00  0.00    -0.297 N 
ATOM      4  C   UNL     1      33.043  16.331  14.107  0.00  0.00    +0.108 C 
ATOM      5  C   UNL     1      34.236  16.632  13.209  0.00  0.00    +0.026 C 
ATOM      6  C   UNL     1      34.633  15.454  12.292  0.00  0.00    -0.025 C 
ATOM      7  C   UNL     1      35.700  15.979  11.299  0.00  0.00    +0.017 C 
ATOM      8  C   UNL     1      36.244  14.939  10.329  0.00  0.00    +0.069 C 
ATOM      9  S   UNL     1      37.048  13.555  11.182  0.00  0.00    -0.161 S 
ATOM     10  C   UNL     1      35.725  13.108  12.339  0.00  0.00    +0.069 C 
ATOM     11  C   UNL     1      35.242  14.310  13.143  0.00  0.00    +0.017 C 
ATOM     12  C   UNL     1      33.353  15.015  11.534  0.00  0.00    +0.026 C 
ATOM     13  C   UNL     1      32.191  14.676  12.469  0.00  0.00    +0.108 C 
ENDROOT
BRANCH   1  17
ATOM     14  C   UNL     1      29.272  18.961  16.508  0.00  0.00    +0.037 A 
ATOM     15  C   UNL     1      30.011  19.377  15.395  0.00  0.00    +0.014 A 
ATOM     16  C   UNL     1      30.516  18.428  14.507  0.00  0.00    +0.014 A 
ATOM     17  C   UNL     1      30.203  17.075  14.674  0.00  0.00    +0.037 A 
ATOM     18  C   UNL     1      29.541  16.652  15.834  0.00  0.00    +0.014 A 
ATOM     19  C   UNL     1      29.085  17.596  16.758  0.00  0.00    +0.014 A 
BRANCH  14  21
ATOM     20  N   UNL     1      27.336  19.841  17.685  0.00  0.00    -0.325 N 
ATOM     21  C   UNL     1      28.676  19.949  17.442  0.00  0.00    +0.242 C 
ATOM     22  O   UNL     1      29.360  20.787  18.010  0.00  0.00    -0.270 OA
ATOM     23  H   UNL     1      26.966  20.438  18.414  0.00  0.00    +0.145 HD
ATOM     24  H   UNL     1      26.807  19.014  17.445  0.00  0.00    +0.145 HD
ENDBRANCH  14  21
ENDBRANCH   1  17
TORSDOF 2
ENDMDL
