MODEL 1
REMARK VINA RESULT:      -8.0      0.000      0.000
REMARK  Name = ZINC000329563636
REMARK  3 active torsions:
REMARK  status: ('A' for Active; 'I' for Inactive)
REMARK    1  A    between atoms: C_1  and  C_2
REMARK    2  A    between atoms: C_2  and  N_3
REMARK    3  A    between atoms: N_9  and  C_10
REMARK                            x       y       z     vdW  Elec       q    Type
REMARK                         _______ _______ _______ _____ _____    ______ ____
ROOT
ATOM      1  C   UNL     1      30.101  23.552  14.944  0.00  0.00    +0.112 C 
ATOM      2  C   UNL     1      29.004  22.485  14.873  0.00  0.00    +0.075 C 
ATOM      3  C   UNL     1      28.687  21.790  16.207  0.00  0.00    +0.113 C 
ATOM      4  C   UNL     1      27.684  22.549  17.113  0.00  0.00    +0.048 C 
ATOM      5  C   UNL     1      26.414  21.706  17.145  0.00  0.00    +0.004 C 
ATOM      6  C   UNL     1      26.908  20.286  16.955  0.00  0.00    +0.004 C 
ATOM      7  C   UNL     1      27.989  20.441  15.899  0.00  0.00    +0.048 C 
ATOM      8  O   UNL     1      29.884  21.489  16.950  0.00  0.00    -0.485 OA
ATOM      9  C   UNL     1      30.651  22.596  17.203  0.00  0.00    +0.126 A 
ATOM     10  C   UNL     1      31.324  22.648  18.423  0.00  0.00    +0.046 A 
ATOM     11  C   UNL     1      32.088  23.769  18.751  0.00  0.00    +0.004 A 
ATOM     12  C   UNL     1      32.195  24.827  17.852  0.00  0.00    +0.001 A 
ATOM     13  C   UNL     1      31.546  24.757  16.619  0.00  0.00    +0.009 A 
ATOM     14  C   UNL     1      30.767  23.637  16.286  0.00  0.00    +0.015 A 
ENDROOT
BRANCH   1  21
ATOM     15  N   UNL     1      34.564  23.955  10.525  0.00  0.00    -0.299 N 
ATOM     16  C   UNL     1      33.418  24.838  10.314  0.00  0.00    +0.127 C 
ATOM     17  C   UNL     1      32.088  24.111  10.489  0.00  0.00    +0.129 C 
ATOM     18  N   UNL     1      32.054  23.498  11.809  0.00  0.00    -0.275 N 
ATOM     19  C   UNL     1      31.065  23.866  12.693  0.00  0.00    +0.303 C 
ATOM     20  O   UNL     1      30.199  24.692  12.409  0.00  0.00    -0.253 OA
ATOM     21  N   UNL     1      31.117  23.284  13.926  0.00  0.00    -0.292 N 
ATOM     22  C   UNL     1      33.151  22.563  12.071  0.00  0.00    +0.205 C 
ATOM     23  C   UNL     1      34.478  22.821  11.326  0.00  0.00    +0.233 C 
ATOM     24  O   UNL     1      35.423  22.041  11.464  0.00  0.00    -0.274 OA
ATOM     25  H   UNL     1      31.577  22.394  14.010  0.00  0.00    +0.151 HD
BRANCH  15  27
ATOM     26  C   UNL     1      35.987  23.977   8.507  0.00  0.00    +0.024 C 
ATOM     27  C   UNL     1      35.854  24.353   9.972  0.00  0.00    +0.104 C 
ENDBRANCH  15  27
ENDBRANCH   1  21
TORSDOF 2
ENDMDL
MODEL 2
REMARK VINA RESULT:      -7.9      3.286      7.439
REMARK  Name = ZINC000329563636
REMARK  3 active torsions:
REMARK  status: ('A' for Active; 'I' for Inactive)
REMARK    1  A    between atoms: C_1  and  C_2
REMARK    2  A    between atoms: C_2  and  N_3
REMARK    3  A    between atoms: N_9  and  C_10
REMARK                            x       y       z     vdW  Elec       q    Type
REMARK                         _______ _______ _______ _____ _____    ______ ____
ROOT
ATOM      1  C   UNL     1      30.687  23.918  16.415  0.00  0.00    +0.112 C 
ATOM      2  C   UNL     1      31.384  24.353  15.122  0.00  0.00    +0.075 C 
ATOM      3  C   UNL     1      30.784  23.768  13.834  0.00  0.00    +0.113 C 
ATOM      4  C   UNL     1      29.571  24.550  13.268  0.00  0.00    +0.048 C 
ATOM      5  C   UNL     1      30.041  25.183  11.963  0.00  0.00    +0.004 C 
ATOM      6  C   UNL     1      31.104  24.230  11.453  0.00  0.00    +0.004 C 
ATOM      7  C   UNL     1      31.856  23.851  12.717  0.00  0.00    +0.048 C 
ATOM      8  O   UNL     1      30.439  22.379  13.988  0.00  0.00    -0.485 OA
ATOM      9  C   UNL     1      29.565  22.153  15.020  0.00  0.00    +0.126 A 
ATOM     10  C   UNL     1      28.611  21.152  14.849  0.00  0.00    +0.046 A 
ATOM     11  C   UNL     1      27.671  20.906  15.851  0.00  0.00    +0.004 A 
ATOM     12  C   UNL     1      27.698  21.648  17.030  0.00  0.00    +0.001 A 
ATOM     13  C   UNL     1      28.674  22.627  17.209  0.00  0.00    +0.009 A 
ATOM     14  C   UNL     1      29.617  22.888  16.201  0.00  0.00    +0.015 A 
ENDROOT
BRANCH   1  21
ATOM     15  N   UNL     1      34.036  22.352  21.508  0.00  0.00    -0.299 N 
ATOM     16  C   UNL     1      33.659  23.763  21.440  0.00  0.00    +0.127 C 
ATOM     17  C   UNL     1      33.938  24.369  20.068  0.00  0.00    +0.129 C 
ATOM     18  N   UNL     1      33.251  23.582  19.054  0.00  0.00    -0.275 N 
ATOM     19  C   UNL     1      32.310  24.193  18.256  0.00  0.00    +0.303 C 
ATOM     20  O   UNL     1      32.029  25.386  18.360  0.00  0.00    -0.253 OA
ATOM     21  N   UNL     1      31.675  23.388  17.356  0.00  0.00    -0.292 N 
ATOM     22  C   UNL     1      33.619  22.164  19.036  0.00  0.00    +0.205 C 
ATOM     23  C   UNL     1      34.076  21.548  20.375  0.00  0.00    +0.233 C 
ATOM     24  O   UNL     1      34.448  20.373  20.416  0.00  0.00    -0.274 OA
ATOM     25  H   UNL     1      32.149  22.556  17.047  0.00  0.00    +0.151 HD
BRANCH  15  27
ATOM     26  C   UNL     1      33.646  22.595  23.935  0.00  0.00    +0.024 C 
ATOM     27  C   UNL     1      34.256  21.759  22.823  0.00  0.00    +0.104 C 
ENDBRANCH  15  27
ENDBRANCH   1  21
TORSDOF 2
ENDMDL
MODEL 3
REMARK VINA RESULT:      -7.8      3.412      7.132
REMARK  Name = ZINC000329563636
REMARK  3 active torsions:
REMARK  status: ('A' for Active; 'I' for Inactive)
REMARK    1  A    between atoms: C_1  and  C_2
REMARK    2  A    between atoms: C_2  and  N_3
REMARK    3  A    between atoms: N_9  and  C_10
REMARK                            x       y       z     vdW  Elec       q    Type
REMARK                         _______ _______ _______ _____ _____    ______ ____
ROOT
ATOM      1  C   UNL     1      31.137  23.619  16.251  0.00  0.00    +0.112 C 
ATOM      2  C   UNL     1      31.666  24.202  14.937  0.00  0.00    +0.075 C 
ATOM      3  C   UNL     1      30.877  23.795  13.683  0.00  0.00    +0.113 C 
ATOM      4  C   UNL     1      29.626  24.662  13.391  0.00  0.00    +0.048 C 
ATOM      5  C   UNL     1      29.935  25.446  12.121  0.00  0.00    +0.004 C 
ATOM      6  C   UNL     1      30.886  24.549  11.355  0.00  0.00    +0.004 C 
ATOM      7  C   UNL     1      31.789  24.001  12.447  0.00  0.00    +0.048 C 
ATOM      8  O   UNL     1      30.510  22.403  13.712  0.00  0.00    -0.485 OA
ATOM      9  C   UNL     1      29.777  22.063  14.819  0.00  0.00    +0.126 A 
ATOM     10  C   UNL     1      28.776  21.107  14.661  0.00  0.00    +0.046 A 
ATOM     11  C   UNL     1      27.973  20.752  15.746  0.00  0.00    +0.004 A 
ATOM     12  C   UNL     1      28.184  21.338  16.992  0.00  0.00    +0.001 A 
ATOM     13  C   UNL     1      29.208  22.271  17.152  0.00  0.00    +0.009 A 
ATOM     14  C   UNL     1      30.014  22.642  16.063  0.00  0.00    +0.015 A 
ENDROOT
BRANCH   1  21
ATOM     15  N   UNL     1      34.788  20.783  20.521  0.00  0.00    -0.299 N 
ATOM     16  C   UNL     1      34.104  21.981  21.006  0.00  0.00    +0.127 C 
ATOM     17  C   UNL     1      34.231  23.151  20.036  0.00  0.00    +0.129 C 
ATOM     18  N   UNL     1      33.729  22.740  18.732  0.00  0.00    -0.275 N 
ATOM     19  C   UNL     1      32.670  23.422  18.177  0.00  0.00    +0.303 C 
ATOM     20  O   UNL     1      32.130  24.374  18.737  0.00  0.00    -0.253 OA
ATOM     21  N   UNL     1      32.225  22.959  16.972  0.00  0.00    -0.292 N 
ATOM     22  C   UNL     1      34.405  21.571  18.164  0.00  0.00    +0.205 C 
ATOM     23  C   UNL     1      34.999  20.557  19.165  0.00  0.00    +0.233 C 
ATOM     24  O   UNL     1      35.624  19.579  18.752  0.00  0.00    -0.274 OA
ATOM     25  H   UNL     1      32.871  22.451  16.392  0.00  0.00    +0.151 HD
BRANCH  15  27
ATOM     26  C   UNL     1      33.947  18.903  21.885  0.00  0.00    +0.024 C 
ATOM     27  C   UNL     1      35.144  19.751  21.489  0.00  0.00    +0.104 C 
ENDBRANCH  15  27
ENDBRANCH   1  21
TORSDOF 2
ENDMDL
MODEL 4
REMARK VINA RESULT:      -6.7      3.529      6.034
REMARK  Name = ZINC000329563636
REMARK  3 active torsions:
REMARK  status: ('A' for Active; 'I' for Inactive)
REMARK    1  A    between atoms: C_1  and  C_2
REMARK    2  A    between atoms: C_2  and  N_3
REMARK    3  A    between atoms: N_9  and  C_10
REMARK                            x       y       z     vdW  Elec       q    Type
REMARK                         _______ _______ _______ _____ _____    ______ ____
ROOT
ATOM      1  C   UNL     1      31.563  22.643  16.580  0.00  0.00    +0.112 C 
ATOM      2  C   UNL     1      30.260  22.294  17.306  0.00  0.00    +0.075 C 
ATOM      3  C   UNL     1      28.985  22.461  16.466  0.00  0.00    +0.113 C 
ATOM      4  C   UNL     1      28.634  21.247  15.567  0.00  0.00    +0.048 C 
ATOM      5  C   UNL     1      27.364  20.636  16.148  0.00  0.00    +0.004 C 
ATOM      6  C   UNL     1      26.648  21.810  16.784  0.00  0.00    +0.004 C 
ATOM      7  C   UNL     1      27.779  22.590  17.431  0.00  0.00    +0.048 C 
ATOM      8  O   UNL     1      29.021  23.661  15.671  0.00  0.00    -0.485 OA
ATOM      9  C   UNL     1      30.106  23.720  14.836  0.00  0.00    +0.126 A 
ATOM     10  C   UNL     1      29.927  24.310  13.586  0.00  0.00    +0.046 A 
ATOM     11  C   UNL     1      30.987  24.361  12.680  0.00  0.00    +0.004 A 
ATOM     12  C   UNL     1      32.231  23.841  13.031  0.00  0.00    +0.001 A 
ATOM     13  C   UNL     1      32.414  23.280  14.295  0.00  0.00    +0.009 A 
ATOM     14  C   UNL     1      31.349  23.215  15.209  0.00  0.00    +0.015 A 
ENDROOT
BRANCH   1  21
ATOM     15  N   UNL     1      35.854  26.675  18.801  0.00  0.00    -0.299 N 
ATOM     16  C   UNL     1      36.408  25.430  18.269  0.00  0.00    +0.127 C 
ATOM     17  C   UNL     1      35.665  24.202  18.784  0.00  0.00    +0.129 C 
ATOM     18  N   UNL     1      34.250  24.337  18.466  0.00  0.00    -0.275 N 
ATOM     19  C   UNL     1      33.650  23.388  17.670  0.00  0.00    +0.303 C 
ATOM     20  O   UNL     1      34.261  22.421  17.218  0.00  0.00    -0.253 OA
ATOM     21  N   UNL     1      32.333  23.598  17.377  0.00  0.00    -0.292 N 
ATOM     22  C   UNL     1      33.620  25.542  19.010  0.00  0.00    +0.205 C 
ATOM     23  C   UNL     1      34.530  26.771  19.214  0.00  0.00    +0.233 C 
ATOM     24  O   UNL     1      34.071  27.800  19.716  0.00  0.00    -0.274 OA
ATOM     25  H   UNL     1      31.789  24.153  18.016  0.00  0.00    +0.151 HD
BRANCH  15  27
ATOM     26  C   UNL     1      36.758  28.493  17.395  0.00  0.00    +0.024 C 
ATOM     27  C   UNL     1      36.693  27.869  18.778  0.00  0.00    +0.104 C 
ENDBRANCH  15  27
ENDBRANCH   1  21
TORSDOF 2
ENDMDL
MODEL 5
REMARK VINA RESULT:      -6.6      3.504      4.918
REMARK  Name = ZINC000329563636
REMARK  3 active torsions:
REMARK  status: ('A' for Active; 'I' for Inactive)
REMARK    1  A    between atoms: C_1  and  C_2
REMARK    2  A    between atoms: C_2  and  N_3
REMARK    3  A    between atoms: N_9  and  C_10
REMARK                            x       y       z     vdW  Elec       q    Type
REMARK                         _______ _______ _______ _____ _____    ______ ____
ROOT
ATOM      1  C   UNL     1      32.357  22.981  14.512  0.00  0.00    +0.112 C 
ATOM      2  C   UNL     1      31.581  22.539  15.756  0.00  0.00    +0.075 C 
ATOM      3  C   UNL     1      30.068  22.800  15.704  0.00  0.00    +0.113 C 
ATOM      4  C   UNL     1      29.243  21.703  14.983  0.00  0.00    +0.048 C 
ATOM      5  C   UNL     1      28.408  21.018  16.059  0.00  0.00    +0.004 C 
ATOM      6  C   UNL     1      28.178  22.103  17.092  0.00  0.00    +0.004 C 
ATOM      7  C   UNL     1      29.524  22.803  17.155  0.00  0.00    +0.048 C 
ATOM      8  O   UNL     1      29.767  24.088  15.135  0.00  0.00    -0.485 OA
ATOM      9  C   UNL     1      30.284  24.254  13.877  0.00  0.00    +0.126 A 
ATOM     10  C   UNL     1      29.532  24.990  12.963  0.00  0.00    +0.046 A 
ATOM     11  C   UNL     1      29.991  25.157  11.655  0.00  0.00    +0.004 A 
ATOM     12  C   UNL     1      31.210  24.605  11.268  0.00  0.00    +0.001 A 
ATOM     13  C   UNL     1      31.974  23.896  12.195  0.00  0.00    +0.009 A 
ATOM     14  C   UNL     1      31.514  23.714  13.510  0.00  0.00    +0.015 A 
ENDROOT
BRANCH   1  21
ATOM     15  N   UNL     1      37.624  26.419  14.731  0.00  0.00    -0.299 N 
ATOM     16  C   UNL     1      37.786  25.097  14.127  0.00  0.00    +0.127 C 
ATOM     17  C   UNL     1      37.140  23.997  14.964  0.00  0.00    +0.129 C 
ATOM     18  N   UNL     1      35.736  24.322  15.169  0.00  0.00    -0.275 N 
ATOM     19  C   UNL     1      34.773  23.450  14.716  0.00  0.00    +0.303 C 
ATOM     20  O   UNL     1      35.052  22.396  14.145  0.00  0.00    -0.253 OA
ATOM     21  N   UNL     1      33.478  23.836  14.904  0.00  0.00    -0.292 N 
ATOM     22  C   UNL     1      35.502  25.617  15.815  0.00  0.00    +0.205 C 
ATOM     23  C   UNL     1      36.567  26.710  15.586  0.00  0.00    +0.233 C 
ATOM     24  O   UNL     1      36.455  27.804  16.143  0.00  0.00    -0.274 OA
ATOM     25  H   UNL     1      33.279  24.477  15.654  0.00  0.00    +0.151 HD
BRANCH  15  27
ATOM     26  C   UNL     1      38.372  27.836  12.852  0.00  0.00    +0.024 C 
ATOM     27  C   UNL     1      38.534  27.482  14.320  0.00  0.00    +0.104 C 
ENDBRANCH  15  27
ENDBRANCH   1  21
TORSDOF 2
ENDMDL
MODEL 6
REMARK VINA RESULT:      -6.6     22.114     24.224
REMARK  Name = ZINC000329563636
REMARK  3 active torsions:
REMARK  status: ('A' for Active; 'I' for Inactive)
REMARK    1  A    between atoms: C_1  and  C_2
REMARK    2  A    between atoms: C_2  and  N_3
REMARK    3  A    between atoms: N_9  and  C_10
REMARK                            x       y       z     vdW  Elec       q    Type
REMARK                         _______ _______ _______ _____ _____    ______ ____
ROOT
ATOM      1  C   UNL     1      10.098  29.732   6.997  0.00  0.00    +0.112 C 
ATOM      2  C   UNL     1       9.527  28.829   8.095  0.00  0.00    +0.075 C 
ATOM      3  C   UNL     1      10.577  28.067   8.919  0.00  0.00    +0.113 C 
ATOM      4  C   UNL     1      11.184  28.868  10.100  0.00  0.00    +0.048 C 
ATOM      5  C   UNL     1      10.679  28.200  11.374  0.00  0.00    +0.004 C 
ATOM      6  C   UNL     1      10.485  26.750  10.979  0.00  0.00    +0.004 C 
ATOM      7  C   UNL     1       9.882  26.854   9.589  0.00  0.00    +0.048 C 
ATOM      8  O   UNL     1      11.633  27.547   8.090  0.00  0.00    -0.485 OA
ATOM      9  C   UNL     1      12.269  28.516   7.359  0.00  0.00    +0.126 A 
ATOM     10  C   UNL     1      13.639  28.371   7.151  0.00  0.00    +0.046 A 
ATOM     11  C   UNL     1      14.346  29.348   6.448  0.00  0.00    +0.004 A 
ATOM     12  C   UNL     1      13.678  30.459   5.936  0.00  0.00    +0.001 A 
ATOM     13  C   UNL     1      12.301  30.584   6.119  0.00  0.00    +0.009 A 
ATOM     14  C   UNL     1      11.585  29.609   6.835  0.00  0.00    +0.015 A 
ENDROOT
BRANCH   1  21
ATOM     15  N   UNL     1       8.010  29.738   1.060  0.00  0.00    -0.299 N 
ATOM     16  C   UNL     1       7.853  31.012   1.761  0.00  0.00    +0.127 C 
ATOM     17  C   UNL     1       7.251  30.835   3.152  0.00  0.00    +0.129 C 
ATOM     18  N   UNL     1       8.077  29.907   3.910  0.00  0.00    -0.275 N 
ATOM     19  C   UNL     1       8.661  30.333   5.081  0.00  0.00    +0.303 C 
ATOM     20  O   UNL     1       8.508  31.472   5.520  0.00  0.00    -0.253 OA
ATOM     21  N   UNL     1       9.455  29.424   5.720  0.00  0.00    -0.292 N 
ATOM     22  C   UNL     1       8.237  28.591   3.286  0.00  0.00    +0.205 C 
ATOM     23  C   UNL     1       8.154  28.537   1.746  0.00  0.00    +0.233 C 
ATOM     24  O   UNL     1       8.230  27.453   1.164  0.00  0.00    -0.274 OA
ATOM     25  H   UNL     1       9.281  28.447   5.557  0.00  0.00    +0.151 HD
BRANCH  15  27
ATOM     26  C   UNL     1       7.362  30.907  -1.016  0.00  0.00    +0.024 C 
ATOM     27  C   UNL     1       8.138  29.760  -0.393  0.00  0.00    +0.104 C 
ENDBRANCH  15  27
ENDBRANCH   1  21
TORSDOF 2
ENDMDL
MODEL 7
REMARK VINA RESULT:      -6.5     11.306     15.205
REMARK  Name = ZINC000329563636
REMARK  3 active torsions:
REMARK  status: ('A' for Active; 'I' for Inactive)
REMARK    1  A    between atoms: C_1  and  C_2
REMARK    2  A    between atoms: C_2  and  N_3
REMARK    3  A    between atoms: N_9  and  C_10
REMARK                            x       y       z     vdW  Elec       q    Type
REMARK                         _______ _______ _______ _____ _____    ______ ____
ROOT
ATOM      1  C   UNL     1      20.364  26.771  19.425  0.00  0.00    +0.112 C 
ATOM      2  C   UNL     1      20.963  26.763  20.835  0.00  0.00    +0.075 C 
ATOM      3  C   UNL     1      22.112  25.766  21.046  0.00  0.00    +0.113 C 
ATOM      4  C   UNL     1      23.509  26.283  20.616  0.00  0.00    +0.048 C 
ATOM      5  C   UNL     1      24.316  26.453  21.899  0.00  0.00    +0.004 C 
ATOM      6  C   UNL     1      23.741  25.410  22.837  0.00  0.00    +0.004 C 
ATOM      7  C   UNL     1      22.249  25.496  22.566  0.00  0.00    +0.048 C 
ATOM      8  O   UNL     1      21.845  24.501  20.412  0.00  0.00    -0.485 OA
ATOM      9  C   UNL     1      21.604  24.613  19.068  0.00  0.00    +0.126 A 
ATOM     10  C   UNL     1      22.066  23.590  18.242  0.00  0.00    +0.046 A 
ATOM     11  C   UNL     1      21.884  23.672  16.861  0.00  0.00    +0.004 A 
ATOM     12  C   UNL     1      21.223  24.766  16.308  0.00  0.00    +0.001 A 
ATOM     13  C   UNL     1      20.734  25.772  17.141  0.00  0.00    +0.009 A 
ATOM     14  C   UNL     1      20.923  25.703  18.532  0.00  0.00    +0.015 A 
ENDROOT
BRANCH   1  21
ATOM     15  N   UNL     1      14.163  26.735  18.351  0.00  0.00    -0.299 N 
ATOM     16  C   UNL     1      14.823  28.006  18.055  0.00  0.00    +0.127 C 
ATOM     17  C   UNL     1      15.755  28.447  19.180  0.00  0.00    +0.129 C 
ATOM     18  N   UNL     1      16.722  27.389  19.436  0.00  0.00    -0.275 N 
ATOM     19  C   UNL     1      18.063  27.658  19.288  0.00  0.00    +0.303 C 
ATOM     20  O   UNL     1      18.483  28.765  18.952  0.00  0.00    -0.253 OA
ATOM     21  N   UNL     1      18.912  26.611  19.503  0.00  0.00    -0.292 N 
ATOM     22  C   UNL     1      16.126  26.097  19.785  0.00  0.00    +0.205 C 
ATOM     23  C   UNL     1      14.725  25.799  19.212  0.00  0.00    +0.233 C 
ATOM     24  O   UNL     1      14.148  24.751  19.510  0.00  0.00    -0.274 OA
ATOM     25  H   UNL     1      18.599  25.864  20.101  0.00  0.00    +0.151 HD
BRANCH  15  27
ATOM     26  C   UNL     1      13.237  25.818  16.253  0.00  0.00    +0.024 C 
ATOM     27  C   UNL     1      12.943  26.405  17.622  0.00  0.00    +0.104 C 
ENDBRANCH  15  27
ENDBRANCH   1  21
TORSDOF 2
ENDMDL
MODEL 8
REMARK VINA RESULT:      -6.4      4.841      8.156
REMARK  Name = ZINC000329563636
REMARK  3 active torsions:
REMARK  status: ('A' for Active; 'I' for Inactive)
REMARK    1  A    between atoms: C_1  and  C_2
REMARK    2  A    between atoms: C_2  and  N_3
REMARK    3  A    between atoms: N_9  and  C_10
REMARK                            x       y       z     vdW  Elec       q    Type
REMARK                         _______ _______ _______ _____ _____    ______ ____
ROOT
ATOM      1  C   UNL     1      34.425  22.727  21.036  0.00  0.00    +0.112 C 
ATOM      2  C   UNL     1      34.245  23.461  22.368  0.00  0.00    +0.075 C 
ATOM      3  C   UNL     1      34.392  22.581  23.619  0.00  0.00    +0.113 C 
ATOM      4  C   UNL     1      35.851  22.373  24.101  0.00  0.00    +0.048 C 
ATOM      5  C   UNL     1      35.972  23.111  25.429  0.00  0.00    +0.004 C 
ATOM      6  C   UNL     1      34.575  23.052  26.013  0.00  0.00    +0.004 C 
ATOM      7  C   UNL     1      33.690  23.295  24.802  0.00  0.00    +0.048 C 
ATOM      8  O   UNL     1      33.748  21.303  23.452  0.00  0.00    -0.485 OA
ATOM      9  C   UNL     1      34.212  20.605  22.368  0.00  0.00    +0.126 A 
ATOM     10  C   UNL     1      34.299  19.219  22.483  0.00  0.00    +0.046 A 
ATOM     11  C   UNL     1      34.803  18.462  21.424  0.00  0.00    +0.004 A 
ATOM     12  C   UNL     1      35.199  19.088  20.245  0.00  0.00    +0.001 A 
ATOM     13  C   UNL     1      35.080  20.472  20.122  0.00  0.00    +0.009 A 
ATOM     14  C   UNL     1      34.584  21.243  21.187  0.00  0.00    +0.015 A 
ENDROOT
BRANCH   1  21
ATOM     15  N   UNL     1      30.554  23.670  16.164  0.00  0.00    -0.299 N 
ATOM     16  C   UNL     1      31.822  24.395  16.082  0.00  0.00    +0.127 C 
ATOM     17  C   UNL     1      32.163  25.110  17.386  0.00  0.00    +0.129 C 
ATOM     18  N   UNL     1      32.173  24.137  18.470  0.00  0.00    -0.275 N 
ATOM     19  C   UNL     1      33.329  23.950  19.191  0.00  0.00    +0.303 C 
ATOM     20  O   UNL     1      34.362  24.579  18.961  0.00  0.00    -0.253 OA
ATOM     21  N   UNL     1      33.280  22.995  20.165  0.00  0.00    -0.292 N 
ATOM     22  C   UNL     1      30.914  23.407  18.638  0.00  0.00    +0.205 C 
ATOM     23  C   UNL     1      30.049  23.211  17.375  0.00  0.00    +0.233 C 
ATOM     24  O   UNL     1      28.954  22.650  17.460  0.00  0.00    -0.274 OA
ATOM     25  H   UNL     1      32.383  22.770  20.562  0.00  0.00    +0.151 HD
BRANCH  15  27
ATOM     26  C   UNL     1      29.965  24.437  13.892  0.00  0.00    +0.024 C 
ATOM     27  C   UNL     1      29.875  23.323  14.920  0.00  0.00    +0.104 C 
ENDBRANCH  15  27
ENDBRANCH   1  21
TORSDOF 2
ENDMDL
MODEL 9
REMARK VINA RESULT:      -6.3      4.394      8.275
REMARK  Name = ZINC000329563636
REMARK  3 active torsions:
REMARK  status: ('A' for Active; 'I' for Inactive)
REMARK    1  A    between atoms: C_1  and  C_2
REMARK    2  A    between atoms: C_2  and  N_3
REMARK    3  A    between atoms: N_9  and  C_10
REMARK                            x       y       z     vdW  Elec       q    Type
REMARK                         _______ _______ _______ _____ _____    ______ ____
ROOT
ATOM      1  C   UNL     1      34.019  23.581  20.179  0.00  0.00    +0.112 C 
ATOM      2  C   UNL     1      34.140  24.863  21.007  0.00  0.00    +0.075 C 
ATOM      3  C   UNL     1      34.480  24.648  22.490  0.00  0.00    +0.113 C 
ATOM      4  C   UNL     1      35.992  24.488  22.793  0.00  0.00    +0.048 C 
ATOM      5  C   UNL     1      36.407  25.731  23.573  0.00  0.00    +0.004 C 
ATOM      6  C   UNL     1      35.148  26.141  24.310  0.00  0.00    +0.004 C 
ATOM      7  C   UNL     1      34.059  25.917  23.275  0.00  0.00    +0.048 C 
ATOM      8  O   UNL     1      33.750  23.540  23.051  0.00  0.00    -0.485 OA
ATOM      9  C   UNL     1      33.958  22.365  22.379  0.00  0.00    +0.126 A 
ATOM     10  C   UNL     1      33.994  21.191  23.129  0.00  0.00    +0.046 A 
ATOM     11  C   UNL     1      34.242  19.969  22.502  0.00  0.00    +0.004 A 
ATOM     12  C   UNL     1      34.434  19.919  21.123  0.00  0.00    +0.001 A 
ATOM     13  C   UNL     1      34.366  21.092  20.372  0.00  0.00    +0.009 A 
ATOM     14  C   UNL     1      34.127  22.327  20.997  0.00  0.00    +0.015 A 
ENDROOT
BRANCH   1  21
ATOM     15  N   UNL     1      29.049  22.168  16.586  0.00  0.00    -0.299 N 
ATOM     16  C   UNL     1      30.344  21.972  15.936  0.00  0.00    +0.127 C 
ATOM     17  C   UNL     1      31.273  23.167  16.129  0.00  0.00    +0.129 C 
ATOM     18  N   UNL     1      31.424  23.423  17.554  0.00  0.00    -0.275 N 
ATOM     19  C   UNL     1      32.679  23.362  18.116  0.00  0.00    +0.303 C 
ATOM     20  O   UNL     1      33.686  23.105  17.458  0.00  0.00    -0.253 OA
ATOM     21  N   UNL     1      32.743  23.571  19.463  0.00  0.00    -0.292 N 
ATOM     22  C   UNL     1      30.165  23.674  18.261  0.00  0.00    +0.205 C 
ATOM     23  C   UNL     1      28.898  23.010  17.682  0.00  0.00    +0.233 C 
ATOM     24  O   UNL     1      27.800  23.224  18.200  0.00  0.00    -0.274 OA
ATOM     25  H   UNL     1      32.012  24.113  19.894  0.00  0.00    +0.151 HD
BRANCH  15  27
ATOM     26  C   UNL     1      27.880  20.006  16.827  0.00  0.00    +0.024 C 
ATOM     27  C   UNL     1      27.921  21.358  16.137  0.00  0.00    +0.104 C 
ENDBRANCH  15  27
ENDBRANCH   1  21
TORSDOF 2
ENDMDL
