MODEL 1
REMARK VINA RESULT:      -6.1      0.000      0.000
REMARK  Name = ZINC000560333501
REMARK  5 active torsions:
REMARK  status: ('A' for Active; 'I' for Inactive)
REMARK    1  A    between atoms: C_2  and  C_3
REMARK    2  A    between atoms: C_7  and  C_8
REMARK    3  A    between atoms: C_8  and  C_9
REMARK    4  A    between atoms: N_11  and  C_12
REMARK    5  A    between atoms: C_12  and  C_13
REMARK                            x       y       z     vdW  Elec       q    Type
REMARK                         _______ _______ _______ _____ _____    ______ ____
ROOT
ATOM      1  C   UNL     1      31.562  22.959  12.968  0.00  0.00    +0.217 C 
ATOM      2  O   UNL     1      31.691  23.966  13.668  0.00  0.00    -0.275 OA
ATOM      3  N   UNL     1      32.002  22.885  11.658  0.00  0.00    -0.315 N 
ATOM      4  H   UNL     1      32.121  21.952  11.283  0.00  0.00    +0.149 HD
ENDROOT
BRANCH   1   5
ATOM      5  C   UNL     1      30.894  21.718  13.512  0.00  0.00    +0.131 C 
BRANCH   5  10
ATOM      6  C   UNL     1      33.298  18.782  14.065  0.00  0.00    +0.052 A 
ATOM      7  C   UNL     1      33.679  18.996  15.395  0.00  0.00    +0.019 A 
ATOM      8  C   UNL     1      33.141  20.066  16.108  0.00  0.00    +0.002 A 
ATOM      9  C   UNL     1      32.221  20.923  15.501  0.00  0.00    +0.004 A 
ATOM     10  C   UNL     1      31.822  20.720  14.172  0.00  0.00    -0.037 A 
ATOM     11  C   UNL     1      32.377  19.646  13.457  0.00  0.00    +0.023 A 
BRANCH   6  13
ATOM     12  N   UNL     1      34.321  16.812  12.723  0.00  0.00    -0.191 NA
ATOM     13  C   UNL     1      33.867  17.693  13.326  0.00  0.00    +0.099 C 
ENDBRANCH   6  13
ENDBRANCH   5  10
ENDBRANCH   1   5
BRANCH   3  14
ATOM     14  C   UNL     1      32.929  23.900  11.189  0.00  0.00    +0.108 C 
BRANCH  14  15
ATOM     15  C   UNL     1      34.421  23.652  11.477  0.00  0.00    +0.011 C 
ATOM     16  C   UNL     1      35.289  24.897  11.314  0.00  0.00    +0.033 C 
ATOM     17  C   UNL     1      35.215  25.420   9.888  0.00  0.00    +0.161 C 
ATOM     18  O   UNL     1      35.410  24.413   8.897  0.00  0.00    -0.373 OA
ATOM     19  C   UNL     1      34.881  23.066   9.061  0.00  0.00    +0.070 C 
ATOM     20  C   UNL     1      33.502  22.723   8.396  0.00  0.00    +0.035 C 
ATOM     21  C   UNL     1      34.256  22.343   7.122  0.00  0.00    +0.006 C 
ATOM     22  C   UNL     1      35.492  22.085   8.003  0.00  0.00    +0.035 C 
ATOM     23  C   UNL     1      34.997  22.591  10.515  0.00  0.00    +0.040 C 
ENDBRANCH  14  15
ENDBRANCH   3  14
TORSDOF 5
ENDMDL
MODEL 2
REMARK VINA RESULT:      -6.0      2.234      5.637
REMARK  Name = ZINC000560333501
REMARK  5 active torsions:
REMARK  status: ('A' for Active; 'I' for Inactive)
REMARK    1  A    between atoms: C_2  and  C_3
REMARK    2  A    between atoms: C_7  and  C_8
REMARK    3  A    between atoms: C_8  and  C_9
REMARK    4  A    between atoms: N_11  and  C_12
REMARK    5  A    between atoms: C_12  and  C_13
REMARK                            x       y       z     vdW  Elec       q    Type
REMARK                         _______ _______ _______ _____ _____    ______ ____
ROOT
ATOM      1  C   UNL     1      31.293  23.366  13.033  0.00  0.00    +0.217 C 
ATOM      2  O   UNL     1      30.580  22.401  12.746  0.00  0.00    -0.275 OA
ATOM      3  N   UNL     1      31.730  23.628  14.320  0.00  0.00    -0.315 N 
ATOM      4  H   UNL     1      32.530  24.244  14.398  0.00  0.00    +0.149 HD
ENDROOT
BRANCH   1   5
ATOM      5  C   UNL     1      31.738  24.343  11.971  0.00  0.00    +0.131 C 
BRANCH   5  10
ATOM      6  C   UNL     1      34.407  22.239  10.195  0.00  0.00    +0.052 A 
ATOM      7  C   UNL     1      34.193  22.607   8.862  0.00  0.00    +0.019 A 
ATOM      8  C   UNL     1      33.211  23.545   8.549  0.00  0.00    +0.002 A 
ATOM      9  C   UNL     1      32.443  24.122   9.562  0.00  0.00    +0.004 A 
ATOM     10  C   UNL     1      32.647  23.771  10.904  0.00  0.00    -0.037 A 
ATOM     11  C   UNL     1      33.632  22.817  11.210  0.00  0.00    +0.023 A 
BRANCH   6  13
ATOM     12  N   UNL     1      36.205  20.461  10.774  0.00  0.00    -0.191 NA
ATOM     13  C   UNL     1      35.404  21.259  10.514  0.00  0.00    +0.099 C 
ENDBRANCH   6  13
ENDBRANCH   5  10
ENDBRANCH   1   5
BRANCH   3  14
ATOM     14  C   UNL     1      31.621  22.571  15.309  0.00  0.00    +0.108 C 
BRANCH  14  15
ATOM     15  C   UNL     1      32.816  22.400  16.265  0.00  0.00    +0.011 C 
ATOM     16  C   UNL     1      34.081  23.113  15.795  0.00  0.00    +0.033 C 
ATOM     17  C   UNL     1      34.535  22.569  14.448  0.00  0.00    +0.161 C 
ATOM     18  O   UNL     1      34.588  21.146  14.393  0.00  0.00    -0.373 OA
ATOM     19  C   UNL     1      33.592  20.317  15.061  0.00  0.00    +0.070 C 
ATOM     20  C   UNL     1      32.380  19.788  14.219  0.00  0.00    +0.035 C 
ATOM     21  C   UNL     1      33.226  18.576  13.832  0.00  0.00    +0.006 C 
ATOM     22  C   UNL     1      34.047  18.819  15.113  0.00  0.00    +0.035 C 
ATOM     23  C   UNL     1      33.188  20.909  16.417  0.00  0.00    +0.040 C 
ENDBRANCH  14  15
ENDBRANCH   3  14
TORSDOF 5
ENDMDL
MODEL 3
REMARK VINA RESULT:      -6.0      1.319      1.850
REMARK  Name = ZINC000560333501
REMARK  5 active torsions:
REMARK  status: ('A' for Active; 'I' for Inactive)
REMARK    1  A    between atoms: C_2  and  C_3
REMARK    2  A    between atoms: C_7  and  C_8
REMARK    3  A    between atoms: C_8  and  C_9
REMARK    4  A    between atoms: N_11  and  C_12
REMARK    5  A    between atoms: C_12  and  C_13
REMARK                            x       y       z     vdW  Elec       q    Type
REMARK                         _______ _______ _______ _____ _____    ______ ____
ROOT
ATOM      1  C   UNL     1      31.641  22.976  13.096  0.00  0.00    +0.217 C 
ATOM      2  O   UNL     1      31.747  23.992  13.786  0.00  0.00    -0.275 OA
ATOM      3  N   UNL     1      32.078  22.902  11.784  0.00  0.00    -0.315 N 
ATOM      4  H   UNL     1      32.220  21.969  11.417  0.00  0.00    +0.149 HD
ENDROOT
BRANCH   1   5
ATOM      5  C   UNL     1      31.009  21.722  13.654  0.00  0.00    +0.131 C 
BRANCH   5  10
ATOM      6  C   UNL     1      33.425  19.486  15.620  0.00  0.00    +0.052 A 
ATOM      7  C   UNL     1      33.627  18.444  14.707  0.00  0.00    +0.019 A 
ATOM      8  C   UNL     1      33.005  18.483  13.460  0.00  0.00    +0.002 A 
ATOM      9  C   UNL     1      32.185  19.559  13.118  0.00  0.00    +0.004 A 
ATOM     10  C   UNL     1      31.976  20.615  14.016  0.00  0.00    -0.037 A 
ATOM     11  C   UNL     1      32.598  20.564  15.275  0.00  0.00    +0.023 A 
BRANCH   6  13
ATOM     12  N   UNL     1      34.552  19.402  17.955  0.00  0.00    -0.191 NA
ATOM     13  C   UNL     1      34.050  19.435  16.909  0.00  0.00    +0.099 C 
ENDBRANCH   6  13
ENDBRANCH   5  10
ENDBRANCH   1   5
BRANCH   3  14
ATOM     14  C   UNL     1      32.976  23.936  11.303  0.00  0.00    +0.108 C 
BRANCH  14  15
ATOM     15  C   UNL     1      34.480  23.706  11.543  0.00  0.00    +0.011 C 
ATOM     16  C   UNL     1      35.328  24.959  11.345  0.00  0.00    +0.033 C 
ATOM     17  C   UNL     1      35.202  25.474   9.919  0.00  0.00    +0.161 C 
ATOM     18  O   UNL     1      35.375  24.464   8.928  0.00  0.00    -0.373 OA
ATOM     19  C   UNL     1      34.866  23.112   9.116  0.00  0.00    +0.070 C 
ATOM     20  C   UNL     1      33.471  22.750   8.499  0.00  0.00    +0.035 C 
ATOM     21  C   UNL     1      34.186  22.371   7.202  0.00  0.00    +0.006 C 
ATOM     22  C   UNL     1      35.454  22.132   8.044  0.00  0.00    +0.035 C 
ATOM     23  C   UNL     1      35.036  22.646  10.568  0.00  0.00    +0.040 C 
ENDBRANCH  14  15
ENDBRANCH   3  14
TORSDOF 5
ENDMDL
MODEL 4
REMARK VINA RESULT:      -6.0      2.088      6.462
REMARK  Name = ZINC000560333501
REMARK  5 active torsions:
REMARK  status: ('A' for Active; 'I' for Inactive)
REMARK    1  A    between atoms: C_2  and  C_3
REMARK    2  A    between atoms: C_7  and  C_8
REMARK    3  A    between atoms: C_8  and  C_9
REMARK    4  A    between atoms: N_11  and  C_12
REMARK    5  A    between atoms: C_12  and  C_13
REMARK                            x       y       z     vdW  Elec       q    Type
REMARK                         _______ _______ _______ _____ _____    ______ ____
ROOT
ATOM      1  C   UNL     1      32.132  23.803  11.639  0.00  0.00    +0.217 C 
ATOM      2  O   UNL     1      31.544  24.547  12.428  0.00  0.00    -0.275 OA
ATOM      3  N   UNL     1      32.864  22.700  12.041  0.00  0.00    -0.315 N 
ATOM      4  H   UNL     1      33.046  22.005  11.327  0.00  0.00    +0.149 HD
ENDROOT
BRANCH   1   5
ATOM      5  C   UNL     1      32.088  24.062  10.152  0.00  0.00    +0.131 C 
BRANCH   5  10
ATOM      6  C   UNL     1      34.816  22.804   7.769  0.00  0.00    +0.052 A 
ATOM      7  C   UNL     1      35.816  23.760   7.980  0.00  0.00    +0.019 A 
ATOM      8  C   UNL     1      35.614  24.785   8.903  0.00  0.00    +0.002 A 
ATOM      9  C   UNL     1      34.419  24.858   9.621  0.00  0.00    +0.004 A 
ATOM     10  C   UNL     1      33.408  23.905   9.428  0.00  0.00    -0.037 A 
ATOM     11  C   UNL     1      33.615  22.881   8.488  0.00  0.00    +0.023 A 
BRANCH   6  13
ATOM     12  N   UNL     1      35.178  20.912   6.031  0.00  0.00    -0.191 NA
ATOM     13  C   UNL     1      35.017  21.762   6.805  0.00  0.00    +0.099 C 
ENDBRANCH   6  13
ENDBRANCH   5  10
ENDBRANCH   1   5
BRANCH   3  14
ATOM     14  C   UNL     1      32.677  22.209  13.395  0.00  0.00    +0.108 C 
BRANCH  14  15
ATOM     15  C   UNL     1      31.472  21.278  13.627  0.00  0.00    +0.011 C 
ATOM     16  C   UNL     1      31.090  21.130  15.097  0.00  0.00    +0.033 C 
ATOM     17  C   UNL     1      32.243  20.538  15.894  0.00  0.00    +0.161 C 
ATOM     18  O   UNL     1      32.814  19.375  15.298  0.00  0.00    -0.373 OA
ATOM     19  C   UNL     1      32.969  19.254  13.854  0.00  0.00    +0.070 C 
ATOM     20  C   UNL     1      34.354  19.627  13.222  0.00  0.00    +0.035 C 
ATOM     21  C   UNL     1      34.807  18.186  13.458  0.00  0.00    +0.006 C 
ATOM     22  C   UNL     1      33.320  17.783  13.445  0.00  0.00    +0.035 C 
ATOM     23  C   UNL     1      31.770  19.856  13.110  0.00  0.00    +0.040 C 
ENDBRANCH  14  15
ENDBRANCH   3  14
TORSDOF 5
ENDMDL
MODEL 5
REMARK VINA RESULT:      -6.0      3.602      5.807
REMARK  Name = ZINC000560333501
REMARK  5 active torsions:
REMARK  status: ('A' for Active; 'I' for Inactive)
REMARK    1  A    between atoms: C_2  and  C_3
REMARK    2  A    between atoms: C_7  and  C_8
REMARK    3  A    between atoms: C_8  and  C_9
REMARK    4  A    between atoms: N_11  and  C_12
REMARK    5  A    between atoms: C_12  and  C_13
REMARK                            x       y       z     vdW  Elec       q    Type
REMARK                         _______ _______ _______ _____ _____    ______ ____
ROOT
ATOM      1  C   UNL     1      34.005  19.717  16.684  0.00  0.00    +0.217 C 
ATOM      2  O   UNL     1      33.635  19.021  15.735  0.00  0.00    -0.275 OA
ATOM      3  N   UNL     1      34.123  21.095  16.613  0.00  0.00    -0.315 N 
ATOM      4  H   UNL     1      34.137  21.584  17.499  0.00  0.00    +0.149 HD
ENDROOT
BRANCH   1   5
ATOM      5  C   UNL     1      34.363  19.091  18.011  0.00  0.00    +0.131 C 
BRANCH   5  10
ATOM      6  C   UNL     1      36.661  16.032  17.750  0.00  0.00    +0.052 A 
ATOM      7  C   UNL     1      37.921  16.639  17.810  0.00  0.00    +0.019 A 
ATOM      8  C   UNL     1      38.020  18.022  17.958  0.00  0.00    +0.002 A 
ATOM      9  C   UNL     1      36.865  18.802  18.051  0.00  0.00    +0.004 A 
ATOM     10  C   UNL     1      35.595  18.211  18.001  0.00  0.00    -0.037 A 
ATOM     11  C   UNL     1      35.504  16.818  17.840  0.00  0.00    +0.023 A 
BRANCH   6  13
ATOM     12  N   UNL     1      36.472  13.463  17.442  0.00  0.00    -0.191 NA
ATOM     13  C   UNL     1      36.561  14.613  17.578  0.00  0.00    +0.099 C 
ENDBRANCH   6  13
ENDBRANCH   5  10
ENDBRANCH   1   5
BRANCH   3  14
ATOM     14  C   UNL     1      33.490  21.780  15.500  0.00  0.00    +0.108 C 
BRANCH  14  15
ATOM     15  C   UNL     1      32.117  22.420  15.779  0.00  0.00    +0.011 C 
ATOM     16  C   UNL     1      30.948  21.453  15.614  0.00  0.00    +0.033 C 
ATOM     17  C   UNL     1      30.886  20.924  14.189  0.00  0.00    +0.161 C 
ATOM     18  O   UNL     1      30.973  21.942  13.195  0.00  0.00    -0.373 OA
ATOM     19  C   UNL     1      31.844  23.099  13.359  0.00  0.00    +0.070 C 
ATOM     20  C   UNL     1      33.267  23.057  12.702  0.00  0.00    +0.035 C 
ATOM     21  C   UNL     1      32.650  23.620  11.422  0.00  0.00    +0.006 C 
ATOM     22  C   UNL     1      31.524  24.204  12.296  0.00  0.00    +0.035 C 
ATOM     23  C   UNL     1      31.852  23.593  14.812  0.00  0.00    +0.040 C 
ENDBRANCH  14  15
ENDBRANCH   3  14
TORSDOF 5
ENDMDL
MODEL 6
REMARK VINA RESULT:      -6.0      3.092      5.523
REMARK  Name = ZINC000560333501
REMARK  5 active torsions:
REMARK  status: ('A' for Active; 'I' for Inactive)
REMARK    1  A    between atoms: C_2  and  C_3
REMARK    2  A    between atoms: C_7  and  C_8
REMARK    3  A    between atoms: C_8  and  C_9
REMARK    4  A    between atoms: N_11  and  C_12
REMARK    5  A    between atoms: C_12  and  C_13
REMARK                            x       y       z     vdW  Elec       q    Type
REMARK                         _______ _______ _______ _____ _____    ______ ____
ROOT
ATOM      1  C   UNL     1      34.314  18.977  13.400  0.00  0.00    +0.217 C 
ATOM      2  O   UNL     1      33.865  19.157  12.265  0.00  0.00    -0.275 OA
ATOM      3  N   UNL     1      34.576  20.010  14.283  0.00  0.00    -0.315 N 
ATOM      4  H   UNL     1      34.649  19.749  15.259  0.00  0.00    +0.149 HD
ENDROOT
BRANCH   1   5
ATOM      5  C   UNL     1      34.616  17.584  13.902  0.00  0.00    +0.131 C 
BRANCH   5  10
ATOM      6  C   UNL     1      33.524  14.767  11.541  0.00  0.00    +0.052 A 
ATOM      7  C   UNL     1      34.666  14.630  10.743  0.00  0.00    +0.019 A 
ATOM      8  C   UNL     1      35.784  15.427  10.987  0.00  0.00    +0.002 A 
ATOM      9  C   UNL     1      35.769  16.358  12.027  0.00  0.00    +0.004 A 
ATOM     10  C   UNL     1      34.637  16.504  12.842  0.00  0.00    -0.037 A 
ATOM     11  C   UNL     1      33.510  15.705  12.583  0.00  0.00    +0.023 A 
BRANCH   6  13
ATOM     12  N   UNL     1      31.433  13.305  11.070  0.00  0.00    -0.191 NA
ATOM     13  C   UNL     1      32.369  13.961  11.277  0.00  0.00    +0.099 C 
ENDBRANCH   6  13
ENDBRANCH   5  10
ENDBRANCH   1   5
BRANCH   3  14
ATOM     14  C   UNL     1      34.009  21.316  13.998  0.00  0.00    +0.108 C 
BRANCH  14  15
ATOM     15  C   UNL     1      32.945  21.832  14.984  0.00  0.00    +0.011 C 
ATOM     16  C   UNL     1      31.725  20.922  15.097  0.00  0.00    +0.033 C 
ATOM     17  C   UNL     1      31.027  20.790  13.751  0.00  0.00    +0.161 C 
ATOM     18  O   UNL     1      30.792  22.038  13.103  0.00  0.00    -0.373 OA
ATOM     19  C   UNL     1      31.760  23.125  13.163  0.00  0.00    +0.070 C 
ATOM     20  C   UNL     1      32.771  23.287  11.975  0.00  0.00    +0.035 C 
ATOM     21  C   UNL     1      31.737  24.158  11.263  0.00  0.00    +0.006 C 
ATOM     22  C   UNL     1      31.136  24.467  12.648  0.00  0.00    +0.035 C 
ATOM     23  C   UNL     1      32.417  23.215  14.546  0.00  0.00    +0.040 C 
ENDBRANCH  14  15
ENDBRANCH   3  14
TORSDOF 5
ENDMDL
MODEL 7
REMARK VINA RESULT:      -6.0      2.361      6.849
REMARK  Name = ZINC000560333501
REMARK  5 active torsions:
REMARK  status: ('A' for Active; 'I' for Inactive)
REMARK    1  A    between atoms: C_2  and  C_3
REMARK    2  A    between atoms: C_7  and  C_8
REMARK    3  A    between atoms: C_8  and  C_9
REMARK    4  A    between atoms: N_11  and  C_12
REMARK    5  A    between atoms: C_12  and  C_13
REMARK                            x       y       z     vdW  Elec       q    Type
REMARK                         _______ _______ _______ _____ _____    ______ ____
ROOT
ATOM      1  C   UNL     1      32.089  23.680  11.593  0.00  0.00    +0.217 C 
ATOM      2  O   UNL     1      31.689  24.452  12.469  0.00  0.00    -0.275 OA
ATOM      3  N   UNL     1      32.484  22.379  11.853  0.00  0.00    -0.315 N 
ATOM      4  H   UNL     1      32.503  21.755  11.056  0.00  0.00    +0.149 HD
ENDROOT
BRANCH   1   5
ATOM      5  C   UNL     1      32.176  24.123  10.151  0.00  0.00    +0.131 C 
BRANCH   5  10
ATOM      6  C   UNL     1      35.050  23.248   7.768  0.00  0.00    +0.052 A 
ATOM      7  C   UNL     1      36.084  24.027   8.300  0.00  0.00    +0.019 A 
ATOM      8  C   UNL     1      35.854  24.807   9.433  0.00  0.00    +0.002 A 
ATOM      9  C   UNL     1      34.597  24.808  10.041  0.00  0.00    +0.004 A 
ATOM     10  C   UNL     1      33.551  24.029   9.527  0.00  0.00    -0.037 A 
ATOM     11  C   UNL     1      33.787  23.255   8.378  0.00  0.00    +0.023 A 
BRANCH   6  13
ATOM     12  N   UNL     1      35.474  21.832   5.637  0.00  0.00    -0.191 NA
ATOM     13  C   UNL     1      35.281  22.462   6.592  0.00  0.00    +0.099 C 
ENDBRANCH   6  13
ENDBRANCH   5  10
ENDBRANCH   1   5
BRANCH   3  14
ATOM     14  C   UNL     1      32.119  21.794  13.130  0.00  0.00    +0.108 C 
BRANCH  14  15
ATOM     15  C   UNL     1      33.037  20.677  13.662  0.00  0.00    +0.011 C 
ATOM     16  C   UNL     1      32.302  19.627  14.491  0.00  0.00    +0.033 C 
ATOM     17  C   UNL     1      31.658  20.263  15.714  0.00  0.00    +0.161 C 
ATOM     18  O   UNL     1      32.538  21.108  16.451  0.00  0.00    -0.373 OA
ATOM     19  C   UNL     1      33.514  21.961  15.787  0.00  0.00    +0.070 C 
ATOM     20  C   UNL     1      33.134  23.459  15.520  0.00  0.00    +0.035 C 
ATOM     21  C   UNL     1      33.677  23.804  16.907  0.00  0.00    +0.006 C 
ATOM     22  C   UNL     1      34.550  22.538  16.811  0.00  0.00    +0.035 C 
ATOM     23  C   UNL     1      34.138  21.259  14.573  0.00  0.00    +0.040 C 
ENDBRANCH  14  15
ENDBRANCH   3  14
TORSDOF 5
ENDMDL
MODEL 8
REMARK VINA RESULT:      -5.9      2.154      6.893
REMARK  Name = ZINC000560333501
REMARK  5 active torsions:
REMARK  status: ('A' for Active; 'I' for Inactive)
REMARK    1  A    between atoms: C_2  and  C_3
REMARK    2  A    between atoms: C_7  and  C_8
REMARK    3  A    between atoms: C_8  and  C_9
REMARK    4  A    between atoms: N_11  and  C_12
REMARK    5  A    between atoms: C_12  and  C_13
REMARK                            x       y       z     vdW  Elec       q    Type
REMARK                         _______ _______ _______ _____ _____    ______ ____
ROOT
ATOM      1  C   UNL     1      32.863  22.527  12.001  0.00  0.00    +0.217 C 
ATOM      2  O   UNL     1      33.929  21.917  12.117  0.00  0.00    -0.275 OA
ATOM      3  N   UNL     1      31.682  22.109  12.589  0.00  0.00    -0.315 N 
ATOM      4  H   UNL     1      30.962  22.814  12.685  0.00  0.00    +0.149 HD
ENDROOT
BRANCH   1   5
ATOM      5  C   UNL     1      32.783  23.796  11.185  0.00  0.00    +0.131 C 
BRANCH   5  10
ATOM      6  C   UNL     1      35.078  23.557   8.123  0.00  0.00    +0.052 A 
ATOM      7  C   UNL     1      35.977  24.598   8.381  0.00  0.00    +0.019 A 
ATOM      8  C   UNL     1      35.852  25.351   9.548  0.00  0.00    +0.002 A 
ATOM      9  C   UNL     1      34.835  25.066  10.461  0.00  0.00    +0.004 A 
ATOM     10  C   UNL     1      33.929  24.022  10.223  0.00  0.00    -0.037 A 
ATOM     11  C   UNL     1      34.056  23.275   9.040  0.00  0.00    +0.023 A 
BRANCH   6  13
ATOM     12  N   UNL     1      35.290  22.174   5.938  0.00  0.00    -0.191 NA
ATOM     13  C   UNL     1      35.196  22.797   6.913  0.00  0.00    +0.099 C 
ENDBRANCH   6  13
ENDBRANCH   5  10
ENDBRANCH   1   5
BRANCH   3  14
ATOM     14  C   UNL     1      31.757  21.106  13.637  0.00  0.00    +0.108 C 
BRANCH  14  15
ATOM     15  C   UNL     1      31.306  21.547  15.042  0.00  0.00    +0.011 C 
ATOM     16  C   UNL     1      31.877  22.895  15.472  0.00  0.00    +0.033 C 
ATOM     17  C   UNL     1      33.397  22.846  15.511  0.00  0.00    +0.161 C 
ATOM     18  O   UNL     1      33.916  21.719  16.213  0.00  0.00    -0.373 OA
ATOM     19  C   UNL     1      33.284  20.409  16.129  0.00  0.00    +0.070 C 
ATOM     20  C   UNL     1      33.851  19.375  15.095  0.00  0.00    +0.035 C 
ATOM     21  C   UNL     1      34.837  18.904  16.164  0.00  0.00    +0.006 C 
ATOM     22  C   UNL     1      33.850  19.437  17.221  0.00  0.00    +0.035 C 
ATOM     23  C   UNL     1      31.755  20.525  16.108  0.00  0.00    +0.040 C 
ENDBRANCH  14  15
ENDBRANCH   3  14
TORSDOF 5
ENDMDL
MODEL 9
REMARK VINA RESULT:      -5.9      5.107      7.303
REMARK  Name = ZINC000560333501
REMARK  5 active torsions:
REMARK  status: ('A' for Active; 'I' for Inactive)
REMARK    1  A    between atoms: C_2  and  C_3
REMARK    2  A    between atoms: C_7  and  C_8
REMARK    3  A    between atoms: C_8  and  C_9
REMARK    4  A    between atoms: N_11  and  C_12
REMARK    5  A    between atoms: C_12  and  C_13
REMARK                            x       y       z     vdW  Elec       q    Type
REMARK                         _______ _______ _______ _____ _____    ______ ____
ROOT
ATOM      1  C   UNL     1      35.667  22.811  16.062  0.00  0.00    +0.217 C 
ATOM      2  O   UNL     1      35.574  21.908  16.897  0.00  0.00    -0.275 OA
ATOM      3  N   UNL     1      34.949  22.824  14.878  0.00  0.00    -0.315 N 
ATOM      4  H   UNL     1      34.868  23.724  14.420  0.00  0.00    +0.149 HD
ENDROOT
BRANCH   1   5
ATOM      5  C   UNL     1      36.595  23.982  16.286  0.00  0.00    +0.131 C 
BRANCH   5  10
ATOM      6  C   UNL     1      36.350  27.144  18.441  0.00  0.00    +0.052 A 
ATOM      7  C   UNL     1      34.983  27.159  18.738  0.00  0.00    +0.019 A 
ATOM      8  C   UNL     1      34.157  26.141  18.264  0.00  0.00    +0.002 A 
ATOM      9  C   UNL     1      34.692  25.103  17.497  0.00  0.00    +0.004 A 
ATOM     10  C   UNL     1      36.061  25.067  17.195  0.00  0.00    -0.037 A 
ATOM     11  C   UNL     1      36.884  26.103  17.668  0.00  0.00    +0.023 A 
BRANCH   6  13
ATOM     12  N   UNL     1      37.881  29.060  19.286  0.00  0.00    -0.191 NA
ATOM     13  C   UNL     1      37.195  28.202  18.912  0.00  0.00    +0.099 C 
ENDBRANCH   6  13
ENDBRANCH   5  10
ENDBRANCH   1   5
BRANCH   3  14
ATOM     14  C   UNL     1      33.817  21.924  14.753  0.00  0.00    +0.108 C 
BRANCH  14  15
ATOM     15  C   UNL     1      32.495  22.391  15.392  0.00  0.00    +0.011 C 
ATOM     16  C   UNL     1      31.403  21.325  15.383  0.00  0.00    +0.033 C 
ATOM     17  C   UNL     1      31.063  20.917  13.957  0.00  0.00    +0.161 C 
ATOM     18  O   UNL     1      30.838  22.021  13.084  0.00  0.00    -0.373 OA
ATOM     19  C   UNL     1      31.624  23.244  13.178  0.00  0.00    +0.070 C 
ATOM     20  C   UNL     1      32.859  23.408  12.225  0.00  0.00    +0.035 C 
ATOM     21  C   UNL     1      31.923  24.013  11.179  0.00  0.00    +0.006 C 
ATOM     22  C   UNL     1      30.980  24.397  12.335  0.00  0.00    +0.035 C 
ATOM     23  C   UNL     1      31.921  23.609  14.638  0.00  0.00    +0.040 C 
ENDBRANCH  14  15
ENDBRANCH   3  14
TORSDOF 5
ENDMDL
