MODEL 1
REMARK VINA RESULT:      -7.6      0.000      0.000
REMARK  Name = ZINC000329563636
REMARK  3 active torsions:
REMARK  status: ('A' for Active; 'I' for Inactive)
REMARK    1  A    between atoms: C_1  and  C_2
REMARK    2  A    between atoms: C_2  and  N_3
REMARK    3  A    between atoms: N_9  and  C_10
REMARK                            x       y       z     vdW  Elec       q    Type
REMARK                         _______ _______ _______ _____ _____    ______ ____
ROOT
ATOM      1  C   UNL     1      10.936   4.869   8.293  0.00  0.00    +0.112 C 
ATOM      2  C   UNL     1      11.974   4.090   7.479  0.00  0.00    +0.075 C 
ATOM      3  C   UNL     1      13.223   3.660   8.263  0.00  0.00    +0.113 C 
ATOM      4  C   UNL     1      13.070   2.336   9.056  0.00  0.00    +0.048 C 
ATOM      5  C   UNL     1      13.974   1.319   8.369  0.00  0.00    +0.004 C 
ATOM      6  C   UNL     1      15.092   2.157   7.782  0.00  0.00    +0.004 C 
ATOM      7  C   UNL     1      14.360   3.376   7.249  0.00  0.00    +0.048 C 
ATOM      8  O   UNL     1      13.689   4.702   9.141  0.00  0.00    -0.485 OA
ATOM      9  C   UNL     1      12.735   5.120  10.032  0.00  0.00    +0.126 A 
ATOM     10  C   UNL     1      13.160   5.480  11.309  0.00  0.00    +0.046 A 
ATOM     11  C   UNL     1      12.227   5.875  12.269  0.00  0.00    +0.004 A 
ATOM     12  C   UNL     1      10.873   5.929  11.946  0.00  0.00    +0.001 A 
ATOM     13  C   UNL     1      10.456   5.598  10.657  0.00  0.00    +0.009 A 
ATOM     14  C   UNL     1      11.388   5.189   9.688  0.00  0.00    +0.015 A 
ENDROOT
BRANCH   1  21
ATOM     15  N   UNL     1       8.599  10.456   6.582  0.00  0.00    -0.299 N 
ATOM     16  C   UNL     1       7.600   9.498   7.054  0.00  0.00    +0.127 C 
ATOM     17  C   UNL     1       7.773   8.123   6.417  0.00  0.00    +0.129 C 
ATOM     18  N   UNL     1       9.127   7.651   6.671  0.00  0.00    -0.275 N 
ATOM     19  C   UNL     1       9.308   6.478   7.367  0.00  0.00    +0.303 C 
ATOM     20  O   UNL     1       8.367   5.803   7.781  0.00  0.00    -0.253 OA
ATOM     21  N   UNL     1      10.602   6.116   7.605  0.00  0.00    -0.292 N 
ATOM     22  C   UNL     1      10.181   8.544   6.180  0.00  0.00    +0.205 C 
ATOM     23  C   UNL     1       9.841  10.047   6.109  0.00  0.00    +0.233 C 
ATOM     24  O   UNL     1      10.667  10.844   5.657  0.00  0.00    -0.274 OA
ATOM     25  H   UNL     1      11.312   6.459   6.979  0.00  0.00    +0.151 HD
BRANCH  15  27
ATOM     26  C   UNL     1       6.853  12.140   7.048  0.00  0.00    +0.024 C 
ATOM     27  C   UNL     1       8.316  11.880   6.731  0.00  0.00    +0.104 C 
ENDBRANCH  15  27
ENDBRANCH   1  21
TORSDOF 2
ENDMDL
MODEL 2
REMARK VINA RESULT:      -7.0     23.902     26.034
REMARK  Name = ZINC000329563636
REMARK  3 active torsions:
REMARK  status: ('A' for Active; 'I' for Inactive)
REMARK    1  A    between atoms: C_1  and  C_2
REMARK    2  A    between atoms: C_2  and  N_3
REMARK    3  A    between atoms: N_9  and  C_10
REMARK                            x       y       z     vdW  Elec       q    Type
REMARK                         _______ _______ _______ _____ _____    ______ ____
ROOT
ATOM      1  C   UNL     1      30.398  20.736  15.519  0.00  0.00    +0.112 C 
ATOM      2  C   UNL     1      30.757  20.801  17.007  0.00  0.00    +0.075 C 
ATOM      3  C   UNL     1      31.504  22.072  17.439  0.00  0.00    +0.113 C 
ATOM      4  C   UNL     1      30.593  23.285  17.758  0.00  0.00    +0.048 C 
ATOM      5  C   UNL     1      30.702  23.519  19.261  0.00  0.00    +0.004 C 
ATOM      6  C   UNL     1      32.096  23.035  19.608  0.00  0.00    +0.004 C 
ATOM      7  C   UNL     1      32.237  21.776  18.772  0.00  0.00    +0.048 C 
ATOM      8  O   UNL     1      32.506  22.456  16.479  0.00  0.00    -0.485 OA
ATOM      9  C   UNL     1      31.999  22.652  15.221  0.00  0.00    +0.126 A 
ATOM     10  C   UNL     1      32.563  23.666  14.450  0.00  0.00    +0.046 A 
ATOM     11  C   UNL     1      32.059  23.937  13.177  0.00  0.00    +0.004 A 
ATOM     12  C   UNL     1      31.005  23.181  12.668  0.00  0.00    +0.001 A 
ATOM     13  C   UNL     1      30.465  22.146  13.431  0.00  0.00    +0.009 A 
ATOM     14  C   UNL     1      30.960  21.874  14.718  0.00  0.00    +0.015 A 
ENDROOT
BRANCH   1  21
ATOM     15  N   UNL     1      30.948  15.139  12.694  0.00  0.00    -0.299 N 
ATOM     16  C   UNL     1      29.846  15.231  13.651  0.00  0.00    +0.127 C 
ATOM     17  C   UNL     1      30.280  15.857  14.973  0.00  0.00    +0.129 C 
ATOM     18  N   UNL     1      30.867  17.163  14.707  0.00  0.00    -0.275 N 
ATOM     19  C   UNL     1      30.299  18.281  15.274  0.00  0.00    +0.303 C 
ATOM     20  O   UNL     1      29.312  18.222  16.005  0.00  0.00    -0.253 OA
ATOM     21  N   UNL     1      30.875  19.475  14.949  0.00  0.00    -0.292 N 
ATOM     22  C   UNL     1      32.010  17.137  13.790  0.00  0.00    +0.205 C 
ATOM     23  C   UNL     1      32.036  16.003  12.743  0.00  0.00    +0.233 C 
ATOM     24  O   UNL     1      32.995  15.896  11.976  0.00  0.00    -0.274 OA
ATOM     25  H   UNL     1      31.842  19.474  14.671  0.00  0.00    +0.151 HD
BRANCH  15  27
ATOM     26  C   UNL     1      29.385  13.794  11.334  0.00  0.00    +0.024 C 
ATOM     27  C   UNL     1      30.828  14.189  11.593  0.00  0.00    +0.104 C 
ENDBRANCH  15  27
ENDBRANCH   1  21
TORSDOF 2
ENDMDL
MODEL 3
REMARK VINA RESULT:      -6.8      2.133      4.300
REMARK  Name = ZINC000329563636
REMARK  3 active torsions:
REMARK  status: ('A' for Active; 'I' for Inactive)
REMARK    1  A    between atoms: C_1  and  C_2
REMARK    2  A    between atoms: C_2  and  N_3
REMARK    3  A    between atoms: N_9  and  C_10
REMARK                            x       y       z     vdW  Elec       q    Type
REMARK                         _______ _______ _______ _____ _____    ______ ____
ROOT
ATOM      1  C   UNL     1      12.545   6.681   7.493  0.00  0.00    +0.112 C 
ATOM      2  C   UNL     1      12.657   6.456   9.004  0.00  0.00    +0.075 C 
ATOM      3  C   UNL     1      13.301   5.123   9.415  0.00  0.00    +0.113 C 
ATOM      4  C   UNL     1      14.851   5.133   9.452  0.00  0.00    +0.048 C 
ATOM      5  C   UNL     1      15.245   5.004  10.919  0.00  0.00    +0.004 C 
ATOM      6  C   UNL     1      14.109   4.214  11.538  0.00  0.00    +0.004 C 
ATOM      7  C   UNL     1      12.880   4.809  10.873  0.00  0.00    +0.048 C 
ATOM      8  O   UNL     1      12.841   4.032   8.596  0.00  0.00    -0.485 OA
ATOM      9  C   UNL     1      13.064   4.232   7.259  0.00  0.00    +0.126 A 
ATOM     10  C   UNL     1      13.393   3.120   6.487  0.00  0.00    +0.046 A 
ATOM     11  C   UNL     1      13.671   3.272   5.127  0.00  0.00    +0.004 A 
ATOM     12  C   UNL     1      13.599   4.531   4.537  0.00  0.00    +0.001 A 
ATOM     13  C   UNL     1      13.239   5.637   5.307  0.00  0.00    +0.009 A 
ATOM     14  C   UNL     1      12.968   5.494   6.678  0.00  0.00    +0.015 A 
ENDROOT
BRANCH   1  21
ATOM     15  N   UNL     1       7.212   8.286   4.563  0.00  0.00    -0.299 N 
ATOM     16  C   UNL     1       8.368   9.110   4.214  0.00  0.00    +0.127 C 
ATOM     17  C   UNL     1       9.142   9.569   5.447  0.00  0.00    +0.129 C 
ATOM     18  N   UNL     1       9.533   8.401   6.222  0.00  0.00    -0.275 N 
ATOM     19  C   UNL     1      10.870   8.163   6.447  0.00  0.00    +0.303 C 
ATOM     20  O   UNL     1      11.754   8.906   6.022  0.00  0.00    -0.253 OA
ATOM     21  N   UNL     1      11.168   7.029   7.145  0.00  0.00    -0.292 N 
ATOM     22  C   UNL     1       8.415   7.554   6.645  0.00  0.00    +0.205 C 
ATOM     23  C   UNL     1       7.164   7.551   5.742  0.00  0.00    +0.233 C 
ATOM     24  O   UNL     1       6.170   6.899   6.070  0.00  0.00    -0.274 OA
ATOM     25  H   UNL     1      10.467   6.657   7.765  0.00  0.00    +0.151 HD
BRANCH  15  27
ATOM     26  C   UNL     1       6.676   7.802   2.201  0.00  0.00    +0.024 C 
ATOM     27  C   UNL     1       6.142   8.147   3.581  0.00  0.00    +0.104 C 
ENDBRANCH  15  27
ENDBRANCH   1  21
TORSDOF 2
ENDMDL
MODEL 4
REMARK VINA RESULT:      -6.7     32.304     35.521
REMARK  Name = ZINC000329563636
REMARK  3 active torsions:
REMARK  status: ('A' for Active; 'I' for Inactive)
REMARK    1  A    between atoms: C_1  and  C_2
REMARK    2  A    between atoms: C_2  and  N_3
REMARK    3  A    between atoms: N_9  and  C_10
REMARK                            x       y       z     vdW  Elec       q    Type
REMARK                         _______ _______ _______ _____ _____    ______ ____
ROOT
ATOM      1  C   UNL     1      26.201  38.724  12.493  0.00  0.00    +0.112 C 
ATOM      2  C   UNL     1      26.906  39.900  13.176  0.00  0.00    +0.075 C 
ATOM      3  C   UNL     1      28.275  39.568  13.789  0.00  0.00    +0.113 C 
ATOM      4  C   UNL     1      29.464  39.627  12.796  0.00  0.00    +0.048 C 
ATOM      5  C   UNL     1      30.316  40.819  13.217  0.00  0.00    +0.004 C 
ATOM      6  C   UNL     1      30.092  40.922  14.712  0.00  0.00    +0.004 C 
ATOM      7  C   UNL     1      28.605  40.646  14.854  0.00  0.00    +0.048 C 
ATOM      8  O   UNL     1      28.265  38.296  14.463  0.00  0.00    -0.485 OA
ATOM      9  C   UNL     1      27.887  37.260  13.649  0.00  0.00    +0.126 A 
ATOM     10  C   UNL     1      28.507  36.027  13.845  0.00  0.00    +0.046 A 
ATOM     11  C   UNL     1      28.191  34.948  13.019  0.00  0.00    +0.004 A 
ATOM     12  C   UNL     1      27.240  35.096  12.011  0.00  0.00    +0.001 A 
ATOM     13  C   UNL     1      26.599  36.323  11.839  0.00  0.00    +0.009 A 
ATOM     14  C   UNL     1      26.921  37.417  12.660  0.00  0.00    +0.015 A 
ENDROOT
BRANCH   1  21
ATOM     15  N   UNL     1      20.045  37.693  13.295  0.00  0.00    -0.299 N 
ATOM     16  C   UNL     1      20.380  38.477  12.107  0.00  0.00    +0.127 C 
ATOM     17  C   UNL     1      21.370  39.596  12.415  0.00  0.00    +0.129 C 
ATOM     18  N   UNL     1      22.559  39.021  13.029  0.00  0.00    -0.275 N 
ATOM     19  C   UNL     1      23.777  39.187  12.411  0.00  0.00    +0.303 C 
ATOM     20  O   UNL     1      23.906  39.811  11.359  0.00  0.00    -0.253 OA
ATOM     21  N   UNL     1      24.843  38.588  13.018  0.00  0.00    -0.292 N 
ATOM     22  C   UNL     1      22.300  38.260  14.253  0.00  0.00    +0.205 C 
ATOM     23  C   UNL     1      20.915  37.591  14.376  0.00  0.00    +0.233 C 
ATOM     24  O   UNL     1      20.616  36.978  15.404  0.00  0.00    -0.274 OA
ATOM     25  H   UNL     1      24.786  38.411  14.007  0.00  0.00    +0.151 HD
BRANCH  15  27
ATOM     26  C   UNL     1      18.007  37.138  12.016  0.00  0.00    +0.024 C 
ATOM     27  C   UNL     1      18.817  36.905  13.279  0.00  0.00    +0.104 C 
ENDBRANCH  15  27
ENDBRANCH   1  21
TORSDOF 2
ENDMDL
MODEL 5
REMARK VINA RESULT:      -6.7      2.681      7.948
REMARK  Name = ZINC000329563636
REMARK  3 active torsions:
REMARK  status: ('A' for Active; 'I' for Inactive)
REMARK    1  A    between atoms: C_1  and  C_2
REMARK    2  A    between atoms: C_2  and  N_3
REMARK    3  A    between atoms: N_9  and  C_10
REMARK                            x       y       z     vdW  Elec       q    Type
REMARK                         _______ _______ _______ _____ _____    ______ ____
ROOT
ATOM      1  C   UNL     1      10.419   8.378   6.762  0.00  0.00    +0.112 C 
ATOM      2  C   UNL     1      10.716   9.371   5.635  0.00  0.00    +0.075 C 
ATOM      3  C   UNL     1       9.489   9.823   4.828  0.00  0.00    +0.113 C 
ATOM      4  C   UNL     1       8.696  10.999   5.453  0.00  0.00    +0.048 C 
ATOM      5  C   UNL     1       8.905  12.195   4.531  0.00  0.00    +0.004 C 
ATOM      6  C   UNL     1       9.106  11.574   3.163  0.00  0.00    +0.004 C 
ATOM      7  C   UNL     1       9.979  10.368   3.462  0.00  0.00    +0.048 C 
ATOM      8  O   UNL     1       8.598   8.726   4.552  0.00  0.00    -0.485 OA
ATOM      9  C   UNL     1       8.166   8.087   5.685  0.00  0.00    +0.126 A 
ATOM     10  C   UNL     1       6.860   7.602   5.693  0.00  0.00    +0.046 A 
ATOM     11  C   UNL     1       6.354   6.978   6.834  0.00  0.00    +0.004 A 
ATOM     12  C   UNL     1       7.161   6.821   7.959  0.00  0.00    +0.001 A 
ATOM     13  C   UNL     1       8.478   7.280   7.935  0.00  0.00    +0.009 A 
ATOM     14  C   UNL     1       8.991   7.919   6.794  0.00  0.00    +0.015 A 
ENDROOT
BRANCH   1  21
ATOM     15  N   UNL     1      14.088   3.364   7.766  0.00  0.00    -0.299 N 
ATOM     16  C   UNL     1      14.409   4.527   8.593  0.00  0.00    +0.127 C 
ATOM     17  C   UNL     1      14.482   5.813   7.776  0.00  0.00    +0.129 C 
ATOM     18  N   UNL     1      13.225   5.994   7.064  0.00  0.00    -0.275 N 
ATOM     19  C   UNL     1      12.476   7.123   7.304  0.00  0.00    +0.303 C 
ATOM     20  O   UNL     1      12.830   7.996   8.096  0.00  0.00    -0.253 OA
ATOM     21  N   UNL     1      11.290   7.209   6.634  0.00  0.00    -0.292 N 
ATOM     22  C   UNL     1      12.866   4.883   6.179  0.00  0.00    +0.205 C 
ATOM     23  C   UNL     1      13.386   3.485   6.572  0.00  0.00    +0.233 C 
ATOM     24  O   UNL     1      13.161   2.517   5.841  0.00  0.00    -0.274 OA
ATOM     25  H   UNL     1      11.197   6.704   5.769  0.00  0.00    +0.151 HD
BRANCH  15  27
ATOM     26  C   UNL     1      14.058   1.895   9.750  0.00  0.00    +0.024 C 
ATOM     27  C   UNL     1      14.415   2.039   8.281  0.00  0.00    +0.104 C 
ENDBRANCH  15  27
ENDBRANCH   1  21
TORSDOF 2
ENDMDL
MODEL 6
REMARK VINA RESULT:      -6.5     25.584     27.254
REMARK  Name = ZINC000329563636
REMARK  3 active torsions:
REMARK  status: ('A' for Active; 'I' for Inactive)
REMARK    1  A    between atoms: C_1  and  C_2
REMARK    2  A    between atoms: C_2  and  N_3
REMARK    3  A    between atoms: N_9  and  C_10
REMARK                            x       y       z     vdW  Elec       q    Type
REMARK                         _______ _______ _______ _____ _____    ______ ____
ROOT
ATOM      1  C   UNL     1      32.098  21.586  14.962  0.00  0.00    +0.112 C 
ATOM      2  C   UNL     1      30.759  22.055  15.540  0.00  0.00    +0.075 C 
ATOM      3  C   UNL     1      29.749  20.934  15.827  0.00  0.00    +0.113 C 
ATOM      4  C   UNL     1      29.926  20.234  17.199  0.00  0.00    +0.048 C 
ATOM      5  C   UNL     1      28.714  20.623  18.038  0.00  0.00    +0.004 C 
ATOM      6  C   UNL     1      27.614  20.841  17.019  0.00  0.00    +0.004 C 
ATOM      7  C   UNL     1      28.333  21.561  15.891  0.00  0.00    +0.048 C 
ATOM      8  O   UNL     1      29.730  19.950  14.776  0.00  0.00    -0.485 OA
ATOM      9  C   UNL     1      30.957  19.385  14.547  0.00  0.00    +0.126 A 
ATOM     10  C   UNL     1      30.990  18.036  14.197  0.00  0.00    +0.046 A 
ATOM     11  C   UNL     1      32.215  17.399  13.992  0.00  0.00    +0.004 A 
ATOM     12  C   UNL     1      33.403  18.115  14.116  0.00  0.00    +0.001 A 
ATOM     13  C   UNL     1      33.364  19.472  14.435  0.00  0.00    +0.009 A 
ATOM     14  C   UNL     1      32.135  20.118  14.654  0.00  0.00    +0.015 A 
ENDROOT
BRANCH   1  21
ATOM     15  N   UNL     1      34.638  23.871   9.676  0.00  0.00    -0.299 N 
ATOM     16  C   UNL     1      35.579  23.716  10.785  0.00  0.00    +0.127 C 
ATOM     17  C   UNL     1      35.030  24.283  12.090  0.00  0.00    +0.129 C 
ATOM     18  N   UNL     1      33.752  23.649  12.382  0.00  0.00    -0.275 N 
ATOM     19  C   UNL     1      33.609  22.937  13.551  0.00  0.00    +0.303 C 
ATOM     20  O   UNL     1      34.520  22.819  14.369  0.00  0.00    -0.253 OA
ATOM     21  N   UNL     1      32.399  22.334  13.741  0.00  0.00    -0.292 N 
ATOM     22  C   UNL     1      32.745  23.806  11.329  0.00  0.00    +0.205 C 
ATOM     23  C   UNL     1      33.266  23.963   9.886  0.00  0.00    +0.233 C 
ATOM     24  O   UNL     1      32.471  24.151   8.962  0.00  0.00    -0.274 OA
ATOM     25  H   UNL     1      31.598  22.724  13.274  0.00  0.00    +0.151 HD
BRANCH  15  27
ATOM     26  C   UNL     1      35.310  22.370   7.834  0.00  0.00    +0.024 C 
ATOM     27  C   UNL     1      35.157  23.802   8.314  0.00  0.00    +0.104 C 
ENDBRANCH  15  27
ENDBRANCH   1  21
TORSDOF 2
ENDMDL
MODEL 7
REMARK VINA RESULT:      -6.5     26.571     28.091
REMARK  Name = ZINC000329563636
REMARK  3 active torsions:
REMARK  status: ('A' for Active; 'I' for Inactive)
REMARK    1  A    between atoms: C_1  and  C_2
REMARK    2  A    between atoms: C_2  and  N_3
REMARK    3  A    between atoms: N_9  and  C_10
REMARK                            x       y       z     vdW  Elec       q    Type
REMARK                         _______ _______ _______ _____ _____    ______ ____
ROOT
ATOM      1  C   UNL     1      31.509  22.964  14.393  0.00  0.00    +0.112 C 
ATOM      2  C   UNL     1      30.511  21.804  14.465  0.00  0.00    +0.075 C 
ATOM      3  C   UNL     1      30.627  20.926  15.720  0.00  0.00    +0.113 C 
ATOM      4  C   UNL     1      29.867  21.460  16.960  0.00  0.00    +0.048 C 
ATOM      5  C   UNL     1      28.716  20.491  17.208  0.00  0.00    +0.004 C 
ATOM      6  C   UNL     1      29.234  19.165  16.691  0.00  0.00    +0.004 C 
ATOM      7  C   UNL     1      29.965  19.557  15.419  0.00  0.00    +0.048 C 
ATOM      8  O   UNL     1      32.001  20.666  16.065  0.00  0.00    -0.485 OA
ATOM      9  C   UNL     1      32.731  21.808  16.261  0.00  0.00    +0.126 A 
ATOM     10  C   UNL     1      33.711  21.785  17.252  0.00  0.00    +0.046 A 
ATOM     11  C   UNL     1      34.458  22.932  17.522  0.00  0.00    +0.004 A 
ATOM     12  C   UNL     1      34.238  24.096  16.789  0.00  0.00    +0.001 A 
ATOM     13  C   UNL     1      33.278  24.106  15.777  0.00  0.00    +0.009 A 
ATOM     14  C   UNL     1      32.515  22.958  15.506  0.00  0.00    +0.015 A 
ENDROOT
BRANCH   1  21
ATOM     15  N   UNL     1      34.917  24.279   9.268  0.00  0.00    -0.299 N 
ATOM     16  C   UNL     1      33.932  25.300   9.621  0.00  0.00    +0.127 C 
ATOM     17  C   UNL     1      32.561  24.701   9.922  0.00  0.00    +0.129 C 
ATOM     18  N   UNL     1      32.701  23.707  10.976  0.00  0.00    -0.275 N 
ATOM     19  C   UNL     1      32.008  23.876  12.153  0.00  0.00    +0.303 C 
ATOM     20  O   UNL     1      31.266  24.837  12.351  0.00  0.00    -0.253 OA
ATOM     21  N   UNL     1      32.217  22.929  13.113  0.00  0.00    -0.292 N 
ATOM     22  C   UNL     1      33.640  22.625  10.667  0.00  0.00    +0.205 C 
ATOM     23  C   UNL     1      34.801  22.965   9.708  0.00  0.00    +0.233 C 
ATOM     24  O   UNL     1      35.595  22.086   9.368  0.00  0.00    -0.274 OA
ATOM     25  H   UNL     1      32.516  22.014  12.819  0.00  0.00    +0.151 HD
BRANCH  15  27
ATOM     26  C   UNL     1      35.934  24.547   7.033  0.00  0.00    +0.024 C 
ATOM     27  C   UNL     1      36.108  24.693   8.535  0.00  0.00    +0.104 C 
ENDBRANCH  15  27
ENDBRANCH   1  21
TORSDOF 2
ENDMDL
MODEL 8
REMARK VINA RESULT:      -6.4     26.330     28.002
REMARK  Name = ZINC000329563636
REMARK  3 active torsions:
REMARK  status: ('A' for Active; 'I' for Inactive)
REMARK    1  A    between atoms: C_1  and  C_2
REMARK    2  A    between atoms: C_2  and  N_3
REMARK    3  A    between atoms: N_9  and  C_10
REMARK                            x       y       z     vdW  Elec       q    Type
REMARK                         _______ _______ _______ _____ _____    ______ ____
ROOT
ATOM      1  C   UNL     1      33.404  21.594  15.029  0.00  0.00    +0.112 C 
ATOM      2  C   UNL     1      33.237  22.625  16.149  0.00  0.00    +0.075 C 
ATOM      3  C   UNL     1      32.079  22.346  17.120  0.00  0.00    +0.113 C 
ATOM      4  C   UNL     1      32.419  21.369  18.274  0.00  0.00    +0.048 C 
ATOM      5  C   UNL     1      32.405  22.196  19.555  0.00  0.00    +0.004 C 
ATOM      6  C   UNL     1      31.404  23.298  19.270  0.00  0.00    +0.004 C 
ATOM      7  C   UNL     1      31.711  23.673  17.831  0.00  0.00    +0.048 C 
ATOM      8  O   UNL     1      30.899  21.893  16.429  0.00  0.00    -0.485 OA
ATOM      9  C   UNL     1      31.117  20.771  15.673  0.00  0.00    +0.126 A 
ATOM     10  C   UNL     1      30.085  19.838  15.594  0.00  0.00    +0.046 A 
ATOM     11  C   UNL     1      30.266  18.658  14.871  0.00  0.00    +0.004 A 
ATOM     12  C   UNL     1      31.470  18.421  14.212  0.00  0.00    +0.001 A 
ATOM     13  C   UNL     1      32.488  19.373  14.268  0.00  0.00    +0.009 A 
ATOM     14  C   UNL     1      32.318  20.558  15.003  0.00  0.00    +0.015 A 
ENDROOT
BRANCH   1  21
ATOM     15  N   UNL     1      34.078  23.125   8.962  0.00  0.00    -0.299 N 
ATOM     16  C   UNL     1      35.217  22.412   9.539  0.00  0.00    +0.127 C 
ATOM     17  C   UNL     1      35.639  22.992  10.886  0.00  0.00    +0.129 C 
ATOM     18  N   UNL     1      34.492  22.983  11.784  0.00  0.00    -0.275 N 
ATOM     19  C   UNL     1      34.568  22.271  12.959  0.00  0.00    +0.303 C 
ATOM     20  O   UNL     1      35.573  21.642  13.288  0.00  0.00    -0.253 OA
ATOM     21  N   UNL     1      33.444  22.272  13.733  0.00  0.00    -0.292 N 
ATOM     22  C   UNL     1      33.329  23.721  11.287  0.00  0.00    +0.205 C 
ATOM     23  C   UNL     1      33.163  23.809   9.755  0.00  0.00    +0.233 C 
ATOM     24  O   UNL     1      32.233  24.459   9.273  0.00  0.00    -0.274 OA
ATOM     25  H   UNL     1      32.805  23.044  13.639  0.00  0.00    +0.151 HD
BRANCH  15  27
ATOM     26  C   UNL     1      34.487  21.757   6.947  0.00  0.00    +0.024 C 
ATOM     27  C   UNL     1      33.843  23.004   7.527  0.00  0.00    +0.104 C 
ENDBRANCH  15  27
ENDBRANCH   1  21
TORSDOF 2
ENDMDL
MODEL 9
REMARK VINA RESULT:      -6.2     23.104     24.979
REMARK  Name = ZINC000329563636
REMARK  3 active torsions:
REMARK  status: ('A' for Active; 'I' for Inactive)
REMARK    1  A    between atoms: C_1  and  C_2
REMARK    2  A    between atoms: C_2  and  N_3
REMARK    3  A    between atoms: N_9  and  C_10
REMARK                            x       y       z     vdW  Elec       q    Type
REMARK                         _______ _______ _______ _____ _____    ______ ____
ROOT
ATOM      1  C   UNL     1      10.807  31.547   8.434  0.00  0.00    +0.112 C 
ATOM      2  C   UNL     1      10.145  30.824   9.612  0.00  0.00    +0.075 C 
ATOM      3  C   UNL     1      11.043  29.810  10.337  0.00  0.00    +0.113 C 
ATOM      4  C   UNL     1      11.967  30.418  11.423  0.00  0.00    +0.048 C 
ATOM      5  C   UNL     1      11.450  29.904  12.762  0.00  0.00    +0.004 C 
ATOM      6  C   UNL     1      10.839  28.558  12.429  0.00  0.00    +0.004 C 
ATOM      7  C   UNL     1      10.133  28.822  11.110  0.00  0.00    +0.048 C 
ATOM      8  O   UNL     1      11.825  29.031   9.412  0.00  0.00    -0.485 OA
ATOM      9  C   UNL     1      12.608  29.800   8.591  0.00  0.00    +0.126 A 
ATOM     10  C   UNL     1      13.860  29.299   8.240  0.00  0.00    +0.046 A 
ATOM     11  C   UNL     1      14.715  30.057   7.439  0.00  0.00    +0.004 A 
ATOM     12  C   UNL     1      14.311  31.306   6.973  0.00  0.00    +0.001 A 
ATOM     13  C   UNL     1      13.044  31.789   7.301  0.00  0.00    +0.009 A 
ATOM     14  C   UNL     1      12.182  31.037   8.115  0.00  0.00    +0.015 A 
ENDROOT
BRANCH   1  21
ATOM     15  N   UNL     1       8.357  31.809   2.644  0.00  0.00    -0.299 N 
ATOM     16  C   UNL     1       8.875  33.082   3.142  0.00  0.00    +0.127 C 
ATOM     17  C   UNL     1       8.405  33.379   4.563  0.00  0.00    +0.129 C 
ATOM     18  N   UNL     1       8.786  32.272   5.428  0.00  0.00    -0.275 N 
ATOM     19  C   UNL     1       9.617  32.513   6.498  0.00  0.00    +0.303 C 
ATOM     20  O   UNL     1      10.049  33.635   6.760  0.00  0.00    -0.253 OA
ATOM     21  N   UNL     1       9.967  31.424   7.243  0.00  0.00    -0.292 N 
ATOM     22  C   UNL     1       8.260  30.969   5.011  0.00  0.00    +0.205 C 
ATOM     23  C   UNL     1       8.004  30.773   3.502  0.00  0.00    +0.233 C 
ATOM     24  O   UNL     1       7.514  29.719   3.093  0.00  0.00    -0.274 OA
ATOM     25  H   UNL     1       9.348  30.631   7.240  0.00  0.00    +0.151 HD
BRANCH  15  27
ATOM     26  C   UNL     1       7.268  32.433   0.517  0.00  0.00    +0.024 C 
ATOM     27  C   UNL     1       8.331  31.591   1.201  0.00  0.00    +0.104 C 
ENDBRANCH  15  27
ENDBRANCH   1  21
TORSDOF 2
ENDMDL
