MODEL 1
REMARK VINA RESULT:      -6.6      0.000      0.000
REMARK  Name = ZINC001228612316
REMARK  5 active torsions:
REMARK  status: ('A' for Active; 'I' for Inactive)
REMARK    1  A    between atoms: C_2  and  C_4
REMARK    2  A    between atoms: C_8  and  O_9
REMARK    3  A    between atoms: O_9  and  C_10
REMARK    4  A    between atoms: C_10  and  C_11
REMARK    5  A    between atoms: C_10  and  C_17
REMARK                            x       y       z     vdW  Elec       q    Type
REMARK                         _______ _______ _______ _____ _____    ______ ____
ROOT
ATOM      1  C   UNL     1      31.681  14.255  13.128  0.00  0.00    +0.040 A 
ATOM      2  C   UNL     1      32.434  14.572  11.994  0.00  0.00    +0.013 A 
ATOM      3  C   UNL     1      33.235  15.717  11.997  0.00  0.00    +0.004 A 
ATOM      4  C   UNL     1      33.289  16.533  13.131  0.00  0.00    +0.046 A 
ATOM      5  C   UNL     1      32.544  16.215  14.269  0.00  0.00    +0.122 A 
ATOM      6  C   UNL     1      31.721  15.094  14.246  0.00  0.00    +0.058 A 
ENDROOT
BRANCH   1   8
ATOM      7  N   UNL     1      30.188  12.638  12.081  0.00  0.00    -0.325 N 
ATOM      8  C   UNL     1      30.821  13.049  13.219  0.00  0.00    +0.242 C 
ATOM      9  O   UNL     1      30.727  12.403  14.256  0.00  0.00    -0.270 OA
ATOM     10  H   UNL     1      29.730  11.737  12.137  0.00  0.00    +0.145 HD
ATOM     11  H   UNL     1      30.457  12.970  11.167  0.00  0.00    +0.145 HD
ENDBRANCH   1   8
BRANCH   5  12
ATOM     12  O   UNL     1      32.672  17.070  15.329  0.00  0.00    -0.484 OA
BRANCH  12  13
ATOM     13  C   UNL     1      33.467  18.255  15.140  0.00  0.00    +0.208 C 
BRANCH  13  14
ATOM     14  C   UNL     1      32.578  19.472  15.290  0.00  0.00    +0.011 A 
ATOM     15  C   UNL     1      31.959  19.744  16.518  0.00  0.00    +0.010 A 
ATOM     16  C   UNL     1      31.138  20.856  16.655  0.00  0.00    +0.020 A 
ATOM     17  C   UNL     1      30.959  21.671  15.552  0.00  0.00    +0.111 A 
ATOM     18  N   UNL     1      31.530  21.445  14.349  0.00  0.00    -0.263 NA
ATOM     19  C   UNL     1      32.323  20.351  14.244  0.00  0.00    +0.118 A 
ENDBRANCH  13  14
BRANCH  13  20
ATOM     20  C   UNL     1      34.580  18.287  16.164  0.00  0.00    +0.034 C 
ATOM     21  C   UNL     1      35.683  19.324  16.120  0.00  0.00    +0.008 C 
ATOM     22  C   UNL     1      35.995  17.899  15.782  0.00  0.00    +0.008 C 
ENDBRANCH  13  20
ENDBRANCH  12  13
ENDBRANCH   5  12
TORSDOF 5
ENDMDL
MODEL 2
REMARK VINA RESULT:      -6.4      2.394      6.185
REMARK  Name = ZINC001228612316
REMARK  5 active torsions:
REMARK  status: ('A' for Active; 'I' for Inactive)
REMARK    1  A    between atoms: C_2  and  C_4
REMARK    2  A    between atoms: C_8  and  O_9
REMARK    3  A    between atoms: O_9  and  C_10
REMARK    4  A    between atoms: C_10  and  C_11
REMARK    5  A    between atoms: C_10  and  C_17
REMARK                            x       y       z     vdW  Elec       q    Type
REMARK                         _______ _______ _______ _____ _____    ______ ____
ROOT
ATOM      1  C   UNL     1      33.796  18.779  17.341  0.00  0.00    +0.040 A 
ATOM      2  C   UNL     1      33.043  19.946  17.495  0.00  0.00    +0.013 A 
ATOM      3  C   UNL     1      32.202  20.365  16.461  0.00  0.00    +0.004 A 
ATOM      4  C   UNL     1      32.110  19.615  15.284  0.00  0.00    +0.046 A 
ATOM      5  C   UNL     1      32.856  18.444  15.130  0.00  0.00    +0.122 A 
ATOM      6  C   UNL     1      33.718  18.052  16.149  0.00  0.00    +0.058 A 
ENDROOT
BRANCH   1   8
ATOM      7  N   UNL     1      35.940  17.835  18.012  0.00  0.00    -0.325 N 
ATOM      8  C   UNL     1      34.697  18.250  18.395  0.00  0.00    +0.242 C 
ATOM      9  O   UNL     1      34.371  18.243  19.576  0.00  0.00    -0.270 OA
ATOM     10  H   UNL     1      36.581  17.618  18.766  0.00  0.00    +0.145 HD
ATOM     11  H   UNL     1      36.338  18.081  17.118  0.00  0.00    +0.145 HD
ENDBRANCH   1   8
BRANCH   5  12
ATOM     12  O   UNL     1      32.689  17.776  13.947  0.00  0.00    -0.484 OA
BRANCH  12  13
ATOM     13  C   UNL     1      33.215  16.439  13.854  0.00  0.00    +0.208 C 
BRANCH  13  14
ATOM     14  C   UNL     1      32.094  15.497  13.465  0.00  0.00    +0.011 A 
ATOM     15  C   UNL     1      31.710  15.378  12.123  0.00  0.00    +0.010 A 
ATOM     16  C   UNL     1      30.678  14.520  11.765  0.00  0.00    +0.020 A 
ATOM     17  C   UNL     1      30.057  13.798  12.768  0.00  0.00    +0.111 A 
ATOM     18  N   UNL     1      30.390  13.884  14.074  0.00  0.00    -0.263 NA
ATOM     19  C   UNL     1      31.398  14.733  14.393  0.00  0.00    +0.118 A 
ENDBRANCH  13  14
BRANCH  13  20
ATOM     20  C   UNL     1      34.319  16.400  12.821  0.00  0.00    +0.034 C 
ATOM     21  C   UNL     1      35.280  15.234  12.715  0.00  0.00    +0.008 C 
ATOM     22  C   UNL     1      35.770  16.552  13.231  0.00  0.00    +0.008 C 
ENDBRANCH  13  20
ENDBRANCH  12  13
ENDBRANCH   5  12
TORSDOF 5
ENDMDL
MODEL 3
REMARK VINA RESULT:      -6.3      1.997      6.377
REMARK  Name = ZINC001228612316
REMARK  5 active torsions:
REMARK  status: ('A' for Active; 'I' for Inactive)
REMARK    1  A    between atoms: C_2  and  C_4
REMARK    2  A    between atoms: C_8  and  O_9
REMARK    3  A    between atoms: O_9  and  C_10
REMARK    4  A    between atoms: C_10  and  C_11
REMARK    5  A    between atoms: C_10  and  C_17
REMARK                            x       y       z     vdW  Elec       q    Type
REMARK                         _______ _______ _______ _____ _____    ______ ____
ROOT
ATOM      1  C   UNL     1      32.117  20.409  16.248  0.00  0.00    +0.040 A 
ATOM      2  C   UNL     1      32.875  19.913  17.312  0.00  0.00    +0.013 A 
ATOM      3  C   UNL     1      33.634  18.753  17.135  0.00  0.00    +0.004 A 
ATOM      4  C   UNL     1      33.642  18.102  15.897  0.00  0.00    +0.046 A 
ATOM      5  C   UNL     1      32.892  18.600  14.829  0.00  0.00    +0.122 A 
ATOM      6  C   UNL     1      32.110  19.734  15.024  0.00  0.00    +0.058 A 
ENDROOT
BRANCH   1   8
ATOM      7  N   UNL     1      30.018  21.519  16.798  0.00  0.00    -0.325 N 
ATOM      8  C   UNL     1      31.299  21.644  16.342  0.00  0.00    +0.242 C 
ATOM      9  O   UNL     1      31.767  22.747  16.084  0.00  0.00    -0.270 OA
ATOM     10  H   UNL     1      29.535  22.389  16.990  0.00  0.00    +0.145 HD
ATOM     11  H   UNL     1      29.696  20.690  17.276  0.00  0.00    +0.145 HD
ENDBRANCH   1   8
BRANCH   5  12
ATOM     12  O   UNL     1      32.974  17.898  13.658  0.00  0.00    -0.484 OA
BRANCH  12  13
ATOM     13  C   UNL     1      33.483  16.553  13.720  0.00  0.00    +0.208 C 
BRANCH  13  14
ATOM     14  C   UNL     1      32.348  15.586  13.452  0.00  0.00    +0.011 A 
ATOM     15  C   UNL     1      31.850  15.428  12.152  0.00  0.00    +0.010 A 
ATOM     16  C   UNL     1      30.805  14.546  11.907  0.00  0.00    +0.020 A 
ATOM     17  C   UNL     1      30.285  13.841  12.977  0.00  0.00    +0.111 A 
ATOM     18  N   UNL     1      30.730  13.964  14.246  0.00  0.00    -0.263 NA
ATOM     19  C   UNL     1      31.747  14.835  14.456  0.00  0.00    +0.118 A 
ENDBRANCH  13  14
BRANCH  13  20
ATOM     20  C   UNL     1      34.577  16.377  12.690  0.00  0.00    +0.034 C 
ATOM     21  C   UNL     1      35.456  15.145  12.652  0.00  0.00    +0.008 C 
ATOM     22  C   UNL     1      36.037  16.453  13.091  0.00  0.00    +0.008 C 
ENDBRANCH  13  20
ENDBRANCH  12  13
ENDBRANCH   5  12
TORSDOF 5
ENDMDL
MODEL 4
REMARK VINA RESULT:      -6.3      1.984      6.277
REMARK  Name = ZINC001228612316
REMARK  5 active torsions:
REMARK  status: ('A' for Active; 'I' for Inactive)
REMARK    1  A    between atoms: C_2  and  C_4
REMARK    2  A    between atoms: C_8  and  O_9
REMARK    3  A    between atoms: O_9  and  C_10
REMARK    4  A    between atoms: C_10  and  C_11
REMARK    5  A    between atoms: C_10  and  C_17
REMARK                            x       y       z     vdW  Elec       q    Type
REMARK                         _______ _______ _______ _____ _____    ______ ____
ROOT
ATOM      1  C   UNL     1      32.068  20.472  16.175  0.00  0.00    +0.040 A 
ATOM      2  C   UNL     1      32.784  19.975  17.267  0.00  0.00    +0.013 A 
ATOM      3  C   UNL     1      33.557  18.821  17.117  0.00  0.00    +0.004 A 
ATOM      4  C   UNL     1      33.621  18.176  15.878  0.00  0.00    +0.046 A 
ATOM      5  C   UNL     1      32.913  18.675  14.781  0.00  0.00    +0.122 A 
ATOM      6  C   UNL     1      32.117  19.803  14.948  0.00  0.00    +0.058 A 
ENDROOT
BRANCH   1   8
ATOM      7  N   UNL     1      29.934  21.563  16.615  0.00  0.00    -0.325 N 
ATOM      8  C   UNL     1      31.239  21.702  16.239  0.00  0.00    +0.242 C 
ATOM      9  O   UNL     1      31.716  22.811  16.029  0.00  0.00    -0.270 OA
ATOM     10  H   UNL     1      29.435  22.427  16.791  0.00  0.00    +0.145 HD
ATOM     11  H   UNL     1      29.587  20.725  17.057  0.00  0.00    +0.145 HD
ENDBRANCH   1   8
BRANCH   5  12
ATOM     12  O   UNL     1      33.049  17.979  13.612  0.00  0.00    -0.484 OA
BRANCH  12  13
ATOM     13  C   UNL     1      33.525  16.623  13.692  0.00  0.00    +0.208 C 
BRANCH  13  14
ATOM     14  C   UNL     1      32.389  15.682  13.349  0.00  0.00    +0.011 A 
ATOM     15  C   UNL     1      31.741  14.963  14.362  0.00  0.00    +0.010 A 
ATOM     16  C   UNL     1      30.703  14.095  14.049  0.00  0.00    +0.020 A 
ATOM     17  C   UNL     1      30.338  13.972  12.720  0.00  0.00    +0.111 A 
ATOM     18  N   UNL     1      30.937  14.641  11.711  0.00  0.00    -0.263 NA
ATOM     19  C   UNL     1      31.949  15.477  12.047  0.00  0.00    +0.118 A 
ENDBRANCH  13  14
BRANCH  13  20
ATOM     20  C   UNL     1      34.676  16.431  12.729  0.00  0.00    +0.034 C 
ATOM     21  C   UNL     1      35.485  15.152  12.687  0.00  0.00    +0.008 C 
ATOM     22  C   UNL     1      36.107  16.402  13.228  0.00  0.00    +0.008 C 
ENDBRANCH  13  20
ENDBRANCH  12  13
ENDBRANCH   5  12
TORSDOF 5
ENDMDL
MODEL 5
REMARK VINA RESULT:      -6.0      4.513      6.253
REMARK  Name = ZINC001228612316
REMARK  5 active torsions:
REMARK  status: ('A' for Active; 'I' for Inactive)
REMARK    1  A    between atoms: C_2  and  C_4
REMARK    2  A    between atoms: C_8  and  O_9
REMARK    3  A    between atoms: O_9  and  C_10
REMARK    4  A    between atoms: C_10  and  C_11
REMARK    5  A    between atoms: C_10  and  C_17
REMARK                            x       y       z     vdW  Elec       q    Type
REMARK                         _______ _______ _______ _____ _____    ______ ____
ROOT
ATOM      1  C   UNL     1      31.255  21.659  15.815  0.00  0.00    +0.040 A 
ATOM      2  C   UNL     1      31.291  21.655  14.418  0.00  0.00    +0.013 A 
ATOM      3  C   UNL     1      32.024  20.671  13.750  0.00  0.00    +0.004 A 
ATOM      4  C   UNL     1      32.708  19.691  14.477  0.00  0.00    +0.046 A 
ATOM      5  C   UNL     1      32.667  19.687  15.873  0.00  0.00    +0.122 A 
ATOM      6  C   UNL     1      31.965  20.691  16.532  0.00  0.00    +0.058 A 
ENDROOT
BRANCH   1   8
ATOM      7  N   UNL     1      30.942  23.940  16.613  0.00  0.00    -0.325 N 
ATOM      8  C   UNL     1      30.485  22.654  16.604  0.00  0.00    +0.242 C 
ATOM      9  O   UNL     1      29.443  22.354  17.175  0.00  0.00    -0.270 OA
ATOM     10  H   UNL     1      30.322  24.621  17.035  0.00  0.00    +0.145 HD
ATOM     11  H   UNL     1      31.619  24.276  15.944  0.00  0.00    +0.145 HD
ENDBRANCH   1   8
BRANCH   5  12
ATOM     12  O   UNL     1      33.360  18.682  16.491  0.00  0.00    -0.484 OA
BRANCH  12  13
ATOM     13  C   UNL     1      34.781  18.849  16.650  0.00  0.00    +0.208 C 
BRANCH  13  14
ATOM     14  C   UNL     1      35.072  19.244  18.083  0.00  0.00    +0.011 A 
ATOM     15  C   UNL     1      34.452  18.565  19.140  0.00  0.00    +0.010 A 
ATOM     16  C   UNL     1      34.713  18.930  20.454  0.00  0.00    +0.020 A 
ATOM     17  C   UNL     1      35.596  19.973  20.675  0.00  0.00    +0.111 A 
ATOM     18  N   UNL     1      36.212  20.658  19.688  0.00  0.00    -0.263 NA
ATOM     19  C   UNL     1      35.935  20.282  18.416  0.00  0.00    +0.118 A 
ENDBRANCH  13  14
BRANCH  13  20
ATOM     20  C   UNL     1      35.485  17.554  16.307  0.00  0.00    +0.034 C 
ATOM     21  C   UNL     1      36.983  17.390  16.453  0.00  0.00    +0.008 C 
ATOM     22  C   UNL     1      36.377  17.457  15.086  0.00  0.00    +0.008 C 
ENDBRANCH  13  20
ENDBRANCH  12  13
ENDBRANCH   5  12
TORSDOF 5
ENDMDL
MODEL 6
REMARK VINA RESULT:      -5.9      1.498      1.764
REMARK  Name = ZINC001228612316
REMARK  5 active torsions:
REMARK  status: ('A' for Active; 'I' for Inactive)
REMARK    1  A    between atoms: C_2  and  C_4
REMARK    2  A    between atoms: C_8  and  O_9
REMARK    3  A    between atoms: O_9  and  C_10
REMARK    4  A    between atoms: C_10  and  C_11
REMARK    5  A    between atoms: C_10  and  C_17
REMARK                            x       y       z     vdW  Elec       q    Type
REMARK                         _______ _______ _______ _____ _____    ______ ____
ROOT
ATOM      1  C   UNL     1      32.866  15.619  12.779  0.00  0.00    +0.040 A 
ATOM      2  C   UNL     1      33.921  16.200  12.071  0.00  0.00    +0.013 A 
ATOM      3  C   UNL     1      34.637  17.255  12.643  0.00  0.00    +0.004 A 
ATOM      4  C   UNL     1      34.304  17.718  13.920  0.00  0.00    +0.046 A 
ATOM      5  C   UNL     1      33.255  17.133  14.635  0.00  0.00    +0.122 A 
ATOM      6  C   UNL     1      32.524  16.108  14.044  0.00  0.00    +0.058 A 
ENDROOT
BRANCH   1   8
ATOM      7  N   UNL     1      32.095  13.315  12.963  0.00  0.00    -0.325 N 
ATOM      8  C   UNL     1      32.067  14.483  12.257  0.00  0.00    +0.242 C 
ATOM      9  O   UNL     1      31.354  14.599  11.267  0.00  0.00    -0.270 OA
ATOM     10  H   UNL     1      31.431  12.609  12.669  0.00  0.00    +0.145 HD
ATOM     11  H   UNL     1      32.437  13.268  13.912  0.00  0.00    +0.145 HD
ENDBRANCH   1   8
BRANCH   5  12
ATOM     12  O   UNL     1      33.015  17.650  15.878  0.00  0.00    -0.484 OA
BRANCH  12  13
ATOM     13  C   UNL     1      33.642  18.901  16.215  0.00  0.00    +0.208 C 
BRANCH  13  14
ATOM     14  C   UNL     1      32.631  20.017  16.050  0.00  0.00    +0.011 A 
ATOM     15  C   UNL     1      31.530  20.102  16.912  0.00  0.00    +0.010 A 
ATOM     16  C   UNL     1      30.599  21.121  16.758  0.00  0.00    +0.020 A 
ATOM     17  C   UNL     1      30.798  22.034  15.738  0.00  0.00    +0.111 A 
ATOM     18  N   UNL     1      31.841  21.988  14.881  0.00  0.00    -0.263 NA
ATOM     19  C   UNL     1      32.731  20.981  15.054  0.00  0.00    +0.118 A 
ENDBRANCH  13  14
BRANCH  13  20
ATOM     20  C   UNL     1      34.141  18.850  17.643  0.00  0.00    +0.034 C 
ATOM     21  C   UNL     1      35.012  19.940  18.230  0.00  0.00    +0.008 C 
ATOM     22  C   UNL     1      35.605  18.595  17.943  0.00  0.00    +0.008 C 
ENDBRANCH  13  20
ENDBRANCH  12  13
ENDBRANCH   5  12
TORSDOF 5
ENDMDL
MODEL 7
REMARK VINA RESULT:      -5.8      4.487      7.053
REMARK  Name = ZINC001228612316
REMARK  5 active torsions:
REMARK  status: ('A' for Active; 'I' for Inactive)
REMARK    1  A    between atoms: C_2  and  C_4
REMARK    2  A    between atoms: C_8  and  O_9
REMARK    3  A    between atoms: O_9  and  C_10
REMARK    4  A    between atoms: C_10  and  C_11
REMARK    5  A    between atoms: C_10  and  C_17
REMARK                            x       y       z     vdW  Elec       q    Type
REMARK                         _______ _______ _______ _____ _____    ______ ____
ROOT
ATOM      1  C   UNL     1      31.155  21.509  16.023  0.00  0.00    +0.040 A 
ATOM      2  C   UNL     1      31.484  20.309  16.658  0.00  0.00    +0.013 A 
ATOM      3  C   UNL     1      32.217  19.342  15.966  0.00  0.00    +0.004 A 
ATOM      4  C   UNL     1      32.627  19.581  14.650  0.00  0.00    +0.046 A 
ATOM      5  C   UNL     1      32.307  20.784  14.015  0.00  0.00    +0.122 A 
ATOM      6  C   UNL     1      31.546  21.726  14.698  0.00  0.00    +0.058 A 
ENDROOT
BRANCH   1   8
ATOM      7  N   UNL     1      30.911  23.861  16.614  0.00  0.00    -0.325 N 
ATOM      8  C   UNL     1      30.397  22.598  16.689  0.00  0.00    +0.242 C 
ATOM      9  O   UNL     1      29.318  22.392  17.232  0.00  0.00    -0.270 OA
ATOM     10  H   UNL     1      30.304  24.600  16.948  0.00  0.00    +0.145 HD
ATOM     11  H   UNL     1      31.631  24.110  15.953  0.00  0.00    +0.145 HD
ENDBRANCH   1   8
BRANCH   5  12
ATOM     12  O   UNL     1      32.762  20.926  12.733  0.00  0.00    -0.484 OA
BRANCH  12  13
ATOM     13  C   UNL     1      34.169  21.166  12.546  0.00  0.00    +0.208 C 
BRANCH  13  14
ATOM     14  C   UNL     1      34.601  20.557  11.228  0.00  0.00    +0.011 A 
ATOM     15  C   UNL     1      34.111  21.073  10.021  0.00  0.00    +0.010 A 
ATOM     16  C   UNL     1      34.501  20.511   8.812  0.00  0.00    +0.020 A 
ATOM     17  C   UNL     1      35.377  19.441   8.846  0.00  0.00    +0.111 A 
ATOM     18  N   UNL     1      35.870  18.908   9.984  0.00  0.00    -0.263 NA
ATOM     19  C   UNL     1      35.469  19.475  11.148  0.00  0.00    +0.118 A 
ENDBRANCH  13  14
BRANCH  13  20
ATOM     20  C   UNL     1      34.434  22.656  12.549  0.00  0.00    +0.034 C 
ATOM     21  C   UNL     1      35.837  23.224  12.496  0.00  0.00    +0.008 C 
ATOM     22  C   UNL     1      35.043  23.332  13.761  0.00  0.00    +0.008 C 
ENDBRANCH  13  20
ENDBRANCH  12  13
ENDBRANCH   5  12
TORSDOF 5
ENDMDL
MODEL 8
REMARK VINA RESULT:      -5.7      2.183      6.383
REMARK  Name = ZINC001228612316
REMARK  5 active torsions:
REMARK  status: ('A' for Active; 'I' for Inactive)
REMARK    1  A    between atoms: C_2  and  C_4
REMARK    2  A    between atoms: C_8  and  O_9
REMARK    3  A    between atoms: O_9  and  C_10
REMARK    4  A    between atoms: C_10  and  C_11
REMARK    5  A    between atoms: C_10  and  C_17
REMARK                            x       y       z     vdW  Elec       q    Type
REMARK                         _______ _______ _______ _____ _____    ______ ____
ROOT
ATOM      1  C   UNL     1      31.665  21.948  15.005  0.00  0.00    +0.040 A 
ATOM      2  C   UNL     1      32.057  22.867  14.028  0.00  0.00    +0.013 A 
ATOM      3  C   UNL     1      32.858  22.443  12.965  0.00  0.00    +0.004 A 
ATOM      4  C   UNL     1      33.254  21.105  12.875  0.00  0.00    +0.046 A 
ATOM      5  C   UNL     1      32.856  20.181  13.845  0.00  0.00    +0.122 A 
ATOM      6  C   UNL     1      32.089  20.619  14.920  0.00  0.00    +0.058 A 
ENDROOT
BRANCH   1   8
ATOM      7  N   UNL     1      30.768  23.618  16.537  0.00  0.00    -0.325 N 
ATOM      8  C   UNL     1      30.798  22.308  16.156  0.00  0.00    +0.242 C 
ATOM      9  O   UNL     1      30.084  21.478  16.707  0.00  0.00    -0.270 OA
ATOM     10  H   UNL     1      30.064  23.858  17.224  0.00  0.00    +0.145 HD
ATOM     11  H   UNL     1      31.115  24.359  15.946  0.00  0.00    +0.145 HD
ENDBRANCH   1   8
BRANCH   5  12
ATOM     12  O   UNL     1      33.286  18.896  13.663  0.00  0.00    -0.484 OA
BRANCH  12  13
ATOM     13  C   UNL     1      33.067  17.959  14.734  0.00  0.00    +0.208 C 
BRANCH  13  14
ATOM     14  C   UNL     1      32.656  16.626  14.144  0.00  0.00    +0.011 A 
ATOM     15  C   UNL     1      32.869  16.363  12.784  0.00  0.00    +0.010 A 
ATOM     16  C   UNL     1      32.487  15.144  12.240  0.00  0.00    +0.020 A 
ATOM     17  C   UNL     1      31.899  14.214  13.078  0.00  0.00    +0.111 A 
ATOM     18  N   UNL     1      31.669  14.426  14.392  0.00  0.00    -0.263 NA
ATOM     19  C   UNL     1      32.049  15.626  14.894  0.00  0.00    +0.118 A 
ENDBRANCH  13  14
BRANCH  13  20
ATOM     20  C   UNL     1      34.336  17.807  15.543  0.00  0.00    +0.034 C 
ATOM     21  C   UNL     1      34.312  17.560  17.037  0.00  0.00    +0.008 C 
ATOM     22  C   UNL     1      34.768  18.888  16.516  0.00  0.00    +0.008 C 
ENDBRANCH  13  20
ENDBRANCH  12  13
ENDBRANCH   5  12
TORSDOF 5
ENDMDL
MODEL 9
REMARK VINA RESULT:      -5.7      2.665      3.943
REMARK  Name = ZINC001228612316
REMARK  5 active torsions:
REMARK  status: ('A' for Active; 'I' for Inactive)
REMARK    1  A    between atoms: C_2  and  C_4
REMARK    2  A    between atoms: C_8  and  O_9
REMARK    3  A    between atoms: O_9  and  C_10
REMARK    4  A    between atoms: C_10  and  C_11
REMARK    5  A    between atoms: C_10  and  C_17
REMARK                            x       y       z     vdW  Elec       q    Type
REMARK                         _______ _______ _______ _____ _____    ______ ____
ROOT
ATOM      1  C   UNL     1      32.872  16.238  13.426  0.00  0.00    +0.040 A 
ATOM      2  C   UNL     1      33.718  16.297  12.316  0.00  0.00    +0.013 A 
ATOM      3  C   UNL     1      34.665  17.321  12.226  0.00  0.00    +0.004 A 
ATOM      4  C   UNL     1      34.770  18.271  13.246  0.00  0.00    +0.046 A 
ATOM      5  C   UNL     1      33.932  18.209  14.362  0.00  0.00    +0.122 A 
ATOM      6  C   UNL     1      32.967  17.209  14.427  0.00  0.00    +0.058 A 
ENDROOT
BRANCH   1   8
ATOM      7  N   UNL     1      31.713  14.648  14.865  0.00  0.00    -0.325 N 
ATOM      8  C   UNL     1      31.853  15.174  13.613  0.00  0.00    +0.242 C 
ATOM      9  O   UNL     1      31.115  14.822  12.700  0.00  0.00    -0.270 OA
ATOM     10  H   UNL     1      30.918  14.035  14.996  0.00  0.00    +0.145 HD
ATOM     11  H   UNL     1      32.096  15.098  15.684  0.00  0.00    +0.145 HD
ENDBRANCH   1   8
BRANCH   5  12
ATOM     12  O   UNL     1      34.120  19.178  15.309  0.00  0.00    -0.484 OA
BRANCH  12  13
ATOM     13  C   UNL     1      33.386  19.059  16.542  0.00  0.00    +0.208 C 
BRANCH  13  14
ATOM     14  C   UNL     1      34.364  18.827  17.675  0.00  0.00    +0.011 A 
ATOM     15  C   UNL     1      33.965  19.036  19.002  0.00  0.00    +0.010 A 
ATOM     16  C   UNL     1      34.862  18.830  20.042  0.00  0.00    +0.020 A 
ATOM     17  C   UNL     1      36.143  18.417  19.722  0.00  0.00    +0.111 A 
ATOM     18  N   UNL     1      36.573  18.209  18.459  0.00  0.00    -0.263 NA
ATOM     19  C   UNL     1      35.676  18.421  17.465  0.00  0.00    +0.118 A 
ENDBRANCH  13  14
BRANCH  13  20
ATOM     20  C   UNL     1      32.591  20.323  16.783  0.00  0.00    +0.034 C 
ATOM     21  C   UNL     1      31.095  20.300  17.022  0.00  0.00    +0.008 C 
ATOM     22  C   UNL     1      31.629  20.845  15.733  0.00  0.00    +0.008 C 
ENDBRANCH  13  20
ENDBRANCH  12  13
ENDBRANCH   5  12
TORSDOF 5
ENDMDL
