MODEL 1
REMARK VINA RESULT:      -7.5      0.000      0.000
REMARK  Name = ZINC000583127796
REMARK  2 active torsions:
REMARK  status: ('A' for Active; 'I' for Inactive)
REMARK    1  A    between atoms: C_2  and  C_4
REMARK    2  A    between atoms: C_7  and  C_8
REMARK                            x       y       z     vdW  Elec       q    Type
REMARK                         _______ _______ _______ _____ _____    ______ ____
ROOT
ATOM      1  C   UNL     1      31.669  22.532  14.135  0.00  0.00    +0.247 C 
ATOM      2  O   UNL     1      32.627  21.761  14.049  0.00  0.00    -0.270 OA
ATOM      3  N   UNL     1      31.651  23.796  13.526  0.00  0.00    -0.297 N 
ATOM      4  C   UNL     1      30.565  24.776  13.576  0.00  0.00    +0.108 C 
ATOM      5  C   UNL     1      30.115  25.221  12.197  0.00  0.00    +0.020 C 
ATOM      6  C   UNL     1      31.288  25.645  11.333  0.00  0.00    +0.011 C 
ATOM      7  C   UNL     1      32.417  24.587  11.281  0.00  0.00    -0.004 C 
ATOM      8  C   UNL     1      33.584  25.217  10.489  0.00  0.00    +0.020 C 
ATOM      9  C   UNL     1      34.442  24.130   9.881  0.00  0.00    +0.070 C 
ATOM     10  S   UNL     1      33.258  22.901   9.311  0.00  0.00    -0.160 S 
ATOM     11  C   UNL     1      31.969  23.319  10.519  0.00  0.00    +0.077 C 
ATOM     12  C   UNL     1      32.822  24.217  12.733  0.00  0.00    +0.115 C 
ENDROOT
BRANCH   1  16
ATOM     13  C   UNL     1      28.394  20.811  16.289  0.00  0.00    +0.037 A 
ATOM     14  C   UNL     1      28.340  20.863  14.894  0.00  0.00    +0.014 A 
ATOM     15  C   UNL     1      29.343  21.528  14.185  0.00  0.00    +0.014 A 
ATOM     16  C   UNL     1      30.456  22.039  14.857  0.00  0.00    +0.037 A 
ATOM     17  C   UNL     1      30.459  22.071  16.258  0.00  0.00    +0.014 A 
ATOM     18  C   UNL     1      29.421  21.467  16.974  0.00  0.00    +0.014 A 
BRANCH  13  20
ATOM     19  N   UNL     1      27.652  18.756  17.356  0.00  0.00    -0.325 N 
ATOM     20  C   UNL     1      27.371  20.063  17.070  0.00  0.00    +0.242 C 
ATOM     21  O   UNL     1      26.357  20.603  17.480  0.00  0.00    -0.270 OA
ATOM     22  H   UNL     1      27.011  18.294  17.989  0.00  0.00    +0.145 HD
ATOM     23  H   UNL     1      28.585  18.374  17.282  0.00  0.00    +0.145 HD
ENDBRANCH  13  20
ENDBRANCH   1  16
TORSDOF 2
ENDMDL
MODEL 2
REMARK VINA RESULT:      -6.9      1.537      1.842
REMARK  Name = ZINC000583127796
REMARK  2 active torsions:
REMARK  status: ('A' for Active; 'I' for Inactive)
REMARK    1  A    between atoms: C_2  and  C_4
REMARK    2  A    between atoms: C_7  and  C_8
REMARK                            x       y       z     vdW  Elec       q    Type
REMARK                         _______ _______ _______ _____ _____    ______ ____
ROOT
ATOM      1  C   UNL     1      31.473  22.789  15.095  0.00  0.00    +0.247 C 
ATOM      2  O   UNL     1      32.478  22.174  15.458  0.00  0.00    -0.270 OA
ATOM      3  N   UNL     1      31.505  23.786  14.108  0.00  0.00    -0.297 N 
ATOM      4  C   UNL     1      30.369  24.567  13.617  0.00  0.00    +0.108 C 
ATOM      5  C   UNL     1      30.218  24.494  12.109  0.00  0.00    +0.020 C 
ATOM      6  C   UNL     1      31.525  24.793  11.398  0.00  0.00    +0.011 C 
ATOM      7  C   UNL     1      32.709  23.944  11.922  0.00  0.00    -0.004 C 
ATOM      8  C   UNL     1      33.977  24.458  11.208  0.00  0.00    +0.020 C 
ATOM      9  C   UNL     1      35.028  23.370  11.175  0.00  0.00    +0.070 C 
ATOM     10  S   UNL     1      34.098  21.870  10.829  0.00  0.00    -0.160 S 
ATOM     11  C   UNL     1      32.540  22.453  11.554  0.00  0.00    +0.077 C 
ATOM     12  C   UNL     1      32.794  24.103  13.463  0.00  0.00    +0.115 C 
ENDROOT
BRANCH   1  16
ATOM     13  C   UNL     1      27.561  21.840  16.551  0.00  0.00    +0.037 A 
ATOM     14  C   UNL     1      28.410  22.623  17.338  0.00  0.00    +0.014 A 
ATOM     15  C   UNL     1      29.728  22.840  16.931  0.00  0.00    +0.014 A 
ATOM     16  C   UNL     1      30.165  22.375  15.689  0.00  0.00    +0.037 A 
ATOM     17  C   UNL     1      29.346  21.511  14.950  0.00  0.00    +0.014 A 
ATOM     18  C   UNL     1      28.047  21.234  15.389  0.00  0.00    +0.014 A 
BRANCH  13  20
ATOM     19  N   UNL     1      25.430  22.749  17.290  0.00  0.00    -0.325 N 
ATOM     20  C   UNL     1      26.136  21.635  16.928  0.00  0.00    +0.242 C 
ATOM     21  O   UNL     1      25.608  20.538  16.866  0.00  0.00    -0.270 OA
ATOM     22  H   UNL     1      24.435  22.619  17.425  0.00  0.00    +0.145 HD
ATOM     23  H   UNL     1      25.750  23.685  17.079  0.00  0.00    +0.145 HD
ENDBRANCH  13  20
ENDBRANCH   1  16
TORSDOF 2
ENDMDL
MODEL 3
REMARK VINA RESULT:      -6.9      0.964      1.427
REMARK  Name = ZINC000583127796
REMARK  2 active torsions:
REMARK  status: ('A' for Active; 'I' for Inactive)
REMARK    1  A    between atoms: C_2  and  C_4
REMARK    2  A    between atoms: C_7  and  C_8
REMARK                            x       y       z     vdW  Elec       q    Type
REMARK                         _______ _______ _______ _____ _____    ______ ____
ROOT
ATOM      1  C   UNL     1      32.165  22.475  14.014  0.00  0.00    +0.247 C 
ATOM      2  O   UNL     1      33.144  21.732  13.924  0.00  0.00    -0.270 OA
ATOM      3  N   UNL     1      32.085  23.713  13.358  0.00  0.00    -0.297 N 
ATOM      4  C   UNL     1      30.970  24.660  13.409  0.00  0.00    +0.108 C 
ATOM      5  C   UNL     1      30.460  25.036  12.030  0.00  0.00    +0.020 C 
ATOM      6  C   UNL     1      31.589  25.462  11.110  0.00  0.00    +0.011 C 
ATOM      7  C   UNL     1      32.749  24.439  11.059  0.00  0.00    -0.004 C 
ATOM      8  C   UNL     1      33.867  25.073  10.203  0.00  0.00    +0.020 C 
ATOM      9  C   UNL     1      34.739  23.991   9.607  0.00  0.00    +0.070 C 
ATOM     10  S   UNL     1      33.577  22.704   9.126  0.00  0.00    -0.160 S 
ATOM     11  C   UNL     1      32.317  23.129  10.362  0.00  0.00    +0.077 C 
ATOM     12  C   UNL     1      33.215  24.139  12.508  0.00  0.00    +0.115 C 
ENDROOT
BRANCH   1  16
ATOM     13  C   UNL     1      28.647  21.374  16.190  0.00  0.00    +0.037 A 
ATOM     14  C   UNL     1      29.828  21.633  16.889  0.00  0.00    +0.014 A 
ATOM     15  C   UNL     1      31.011  21.875  16.188  0.00  0.00    +0.014 A 
ATOM     16  C   UNL     1      30.994  21.973  14.796  0.00  0.00    +0.037 A 
ATOM     17  C   UNL     1      29.832  21.618  14.095  0.00  0.00    +0.014 A 
ATOM     18  C   UNL     1      28.662  21.307  14.794  0.00  0.00    +0.014 A 
BRANCH  13  20
ATOM     19  N   UNL     1      26.373  22.086  16.675  0.00  0.00    -0.325 N 
ATOM     20  C   UNL     1      27.359  21.167  16.906  0.00  0.00    +0.242 C 
ATOM     21  O   UNL     1      27.172  20.198  17.623  0.00  0.00    -0.270 OA
ATOM     22  H   UNL     1      25.465  21.870  17.068  0.00  0.00    +0.145 HD
ATOM     23  H   UNL     1      26.397  22.719  15.887  0.00  0.00    +0.145 HD
ENDBRANCH  13  20
ENDBRANCH   1  16
TORSDOF 2
ENDMDL
MODEL 4
REMARK VINA RESULT:      -6.6      3.188      5.304
REMARK  Name = ZINC000583127796
REMARK  2 active torsions:
REMARK  status: ('A' for Active; 'I' for Inactive)
REMARK    1  A    between atoms: C_2  and  C_4
REMARK    2  A    between atoms: C_7  and  C_8
REMARK                            x       y       z     vdW  Elec       q    Type
REMARK                         _______ _______ _______ _____ _____    ______ ____
ROOT
ATOM      1  C   UNL     1      33.664  24.016  10.005  0.00  0.00    +0.247 C 
ATOM      2  O   UNL     1      34.507  24.914  10.048  0.00  0.00    -0.270 OA
ATOM      3  N   UNL     1      33.660  23.021   9.015  0.00  0.00    -0.297 N 
ATOM      4  C   UNL     1      32.701  21.923   8.883  0.00  0.00    +0.108 C 
ATOM      5  C   UNL     1      33.374  20.564   8.821  0.00  0.00    +0.020 C 
ATOM      6  C   UNL     1      34.490  20.536   7.793  0.00  0.00    +0.011 C 
ATOM      7  C   UNL     1      35.501  21.697   7.962  0.00  0.00    -0.004 C 
ATOM      8  C   UNL     1      36.480  21.613   6.771  0.00  0.00    +0.020 C 
ATOM      9  C   UNL     1      37.793  22.269   7.136  0.00  0.00    +0.070 C 
ATOM     10  S   UNL     1      38.080  21.765   8.839  0.00  0.00    -0.160 S 
ATOM     11  C   UNL     1      36.328  21.541   9.257  0.00  0.00    +0.077 C 
ATOM     12  C   UNL     1      34.721  23.038   7.990  0.00  0.00    +0.115 C 
ENDROOT
BRANCH   1  16
ATOM     13  C   UNL     1      30.713  23.512  13.066  0.00  0.00    +0.037 A 
ATOM     14  C   UNL     1      30.447  24.372  11.997  0.00  0.00    +0.014 A 
ATOM     15  C   UNL     1      31.444  24.638  11.056  0.00  0.00    +0.014 A 
ATOM     16  C   UNL     1      32.663  23.962  11.115  0.00  0.00    +0.037 A 
ATOM     17  C   UNL     1      32.962  23.178  12.238  0.00  0.00    +0.014 A 
ATOM     18  C   UNL     1      31.989  22.963  13.219  0.00  0.00    +0.014 A 
BRANCH  13  20
ATOM     19  N   UNL     1      29.445  24.055  15.068  0.00  0.00    -0.325 N 
ATOM     20  C   UNL     1      29.655  23.163  14.053  0.00  0.00    +0.242 C 
ATOM     21  O   UNL     1      28.973  22.159  13.934  0.00  0.00    -0.270 OA
ATOM     22  H   UNL     1      28.645  23.870  15.661  0.00  0.00    +0.145 HD
ATOM     23  H   UNL     1      29.784  25.007  15.032  0.00  0.00    +0.145 HD
ENDBRANCH  13  20
ENDBRANCH   1  16
TORSDOF 2
ENDMDL
MODEL 5
REMARK VINA RESULT:      -6.5      2.094      3.059
REMARK  Name = ZINC000583127796
REMARK  2 active torsions:
REMARK  status: ('A' for Active; 'I' for Inactive)
REMARK    1  A    between atoms: C_2  and  C_4
REMARK    2  A    between atoms: C_7  and  C_8
REMARK                            x       y       z     vdW  Elec       q    Type
REMARK                         _______ _______ _______ _____ _____    ______ ____
ROOT
ATOM      1  C   UNL     1      31.082  23.237  13.821  0.00  0.00    +0.247 C 
ATOM      2  O   UNL     1      30.757  24.426  13.812  0.00  0.00    -0.270 OA
ATOM      3  N   UNL     1      32.192  22.745  13.117  0.00  0.00    -0.297 N 
ATOM      4  C   UNL     1      32.650  21.355  13.067  0.00  0.00    +0.108 C 
ATOM      5  C   UNL     1      34.107  21.206  13.464  0.00  0.00    +0.020 C 
ATOM      6  C   UNL     1      34.997  22.177  12.709  0.00  0.00    +0.011 C 
ATOM      7  C   UNL     1      34.503  23.642  12.789  0.00  0.00    -0.004 C 
ATOM      8  C   UNL     1      35.420  24.473  11.866  0.00  0.00    +0.020 C 
ATOM      9  C   UNL     1      35.426  25.919  12.312  0.00  0.00    +0.070 C 
ATOM     10  S   UNL     1      35.458  25.827  14.108  0.00  0.00    -0.160 S 
ATOM     11  C   UNL     1      34.644  24.208  14.219  0.00  0.00    +0.077 C 
ATOM     12  C   UNL     1      33.017  23.692  12.343  0.00  0.00    +0.115 C 
ENDROOT
BRANCH   1  16
ATOM     13  C   UNL     1      28.551  20.872  16.336  0.00  0.00    +0.037 A 
ATOM     14  C   UNL     1      29.704  21.446  16.877  0.00  0.00    +0.014 A 
ATOM     15  C   UNL     1      30.600  22.118  16.043  0.00  0.00    +0.014 A 
ATOM     16  C   UNL     1      30.292  22.318  14.696  0.00  0.00    +0.037 A 
ATOM     17  C   UNL     1      29.187  21.660  14.139  0.00  0.00    +0.014 A 
ATOM     18  C   UNL     1      28.323  20.926  14.959  0.00  0.00    +0.014 A 
BRANCH  13  20
ATOM     19  N   UNL     1      27.754  18.871  17.465  0.00  0.00    -0.325 N 
ATOM     20  C   UNL     1      27.548  20.198  17.206  0.00  0.00    +0.242 C 
ATOM     21  O   UNL     1      26.619  20.809  17.706  0.00  0.00    -0.270 OA
ATOM     22  H   UNL     1      27.139  18.454  18.153  0.00  0.00    +0.145 HD
ATOM     23  H   UNL     1      28.645  18.420  17.307  0.00  0.00    +0.145 HD
ENDBRANCH  13  20
ENDBRANCH   1  16
TORSDOF 2
ENDMDL
MODEL 6
REMARK VINA RESULT:      -6.4      5.179      7.439
REMARK  Name = ZINC000583127796
REMARK  2 active torsions:
REMARK  status: ('A' for Active; 'I' for Inactive)
REMARK    1  A    between atoms: C_2  and  C_4
REMARK    2  A    between atoms: C_7  and  C_8
REMARK                            x       y       z     vdW  Elec       q    Type
REMARK                         _______ _______ _______ _____ _____    ______ ____
ROOT
ATOM      1  C   UNL     1      31.908  23.274  17.891  0.00  0.00    +0.247 C 
ATOM      2  O   UNL     1      31.684  22.471  18.800  0.00  0.00    -0.270 OA
ATOM      3  N   UNL     1      31.460  23.081  16.576  0.00  0.00    -0.297 N 
ATOM      4  C   UNL     1      31.680  23.974  15.437  0.00  0.00    +0.108 C 
ATOM      5  C   UNL     1      30.388  24.370  14.747  0.00  0.00    +0.020 C 
ATOM      6  C   UNL     1      29.529  23.161  14.425  0.00  0.00    +0.011 C 
ATOM      7  C   UNL     1      29.296  22.239  15.648  0.00  0.00    -0.004 C 
ATOM      8  C   UNL     1      28.535  20.998  15.133  0.00  0.00    +0.020 C 
ATOM      9  C   UNL     1      27.759  20.362  16.265  0.00  0.00    +0.070 C 
ATOM     10  S   UNL     1      27.098  21.759  17.185  0.00  0.00    -0.160 S 
ATOM     11  C   UNL     1      28.406  22.924  16.709  0.00  0.00    +0.077 C 
ATOM     12  C   UNL     1      30.672  21.873  16.266  0.00  0.00    +0.115 C 
ENDROOT
BRANCH   1  16
ATOM     13  C   UNL     1      34.034  26.729  19.260  0.00  0.00    +0.037 A 
ATOM     14  C   UNL     1      32.638  26.762  19.212  0.00  0.00    +0.014 A 
ATOM     15  C   UNL     1      31.938  25.690  18.656  0.00  0.00    +0.014 A 
ATOM     16  C   UNL     1      32.619  24.539  18.255  0.00  0.00    +0.037 A 
ATOM     17  C   UNL     1      34.020  24.547  18.214  0.00  0.00    +0.014 A 
ATOM     18  C   UNL     1      34.727  25.649  18.706  0.00  0.00    +0.014 A 
BRANCH  13  20
ATOM     19  N   UNL     1      34.940  27.781  21.256  0.00  0.00    -0.325 N 
ATOM     20  C   UNL     1      34.807  27.830  19.896  0.00  0.00    +0.242 C 
ATOM     21  O   UNL     1      35.341  28.704  19.234  0.00  0.00    -0.270 OA
ATOM     22  H   UNL     1      35.568  28.463  21.665  0.00  0.00    +0.145 HD
ATOM     23  H   UNL     1      34.761  26.940  21.788  0.00  0.00    +0.145 HD
ENDBRANCH  13  20
ENDBRANCH   1  16
TORSDOF 2
ENDMDL
MODEL 7
REMARK VINA RESULT:      -6.2      3.275      7.298
REMARK  Name = ZINC000583127796
REMARK  2 active torsions:
REMARK  status: ('A' for Active; 'I' for Inactive)
REMARK    1  A    between atoms: C_2  and  C_4
REMARK    2  A    between atoms: C_7  and  C_8
REMARK                            x       y       z     vdW  Elec       q    Type
REMARK                         _______ _______ _______ _____ _____    ______ ____
ROOT
ATOM      1  C   UNL     1      30.414  23.809  13.104  0.00  0.00    +0.247 C 
ATOM      2  O   UNL     1      29.254  23.966  12.717  0.00  0.00    -0.270 OA
ATOM      3  N   UNL     1      30.765  23.762  14.462  0.00  0.00    -0.297 N 
ATOM      4  C   UNL     1      32.109  23.584  15.013  0.00  0.00    +0.108 C 
ATOM      5  C   UNL     1      32.192  22.426  15.990  0.00  0.00    +0.020 C 
ATOM      6  C   UNL     1      31.099  22.500  17.041  0.00  0.00    +0.011 C 
ATOM      7  C   UNL     1      29.685  22.672  16.437  0.00  0.00    -0.004 C 
ATOM      8  C   UNL     1      28.714  22.871  17.620  0.00  0.00    +0.020 C 
ATOM      9  C   UNL     1      27.316  22.457  17.217  0.00  0.00    +0.070 C 
ATOM     10  S   UNL     1      27.563  20.974  16.229  0.00  0.00    -0.160 S 
ATOM     11  C   UNL     1      29.237  21.403  15.676  0.00  0.00    +0.077 C 
ATOM     12  C   UNL     1      29.698  23.889  15.474  0.00  0.00    +0.115 C 
ENDROOT
BRANCH   1  16
ATOM     13  C   UNL     1      33.139  22.975   9.909  0.00  0.00    +0.037 A 
ATOM     14  C   UNL     1      33.251  22.261  11.106  0.00  0.00    +0.014 A 
ATOM     15  C   UNL     1      32.449  22.604  12.196  0.00  0.00    +0.014 A 
ATOM     16  C   UNL     1      31.459  23.579  12.060  0.00  0.00    +0.037 A 
ATOM     17  C   UNL     1      31.414  24.357  10.894  0.00  0.00    +0.014 A 
ATOM     18  C   UNL     1      32.264  24.061   9.824  0.00  0.00    +0.014 A 
BRANCH  13  20
ATOM     19  N   UNL     1      34.713  23.579   8.158  0.00  0.00    -0.325 N 
ATOM     20  C   UNL     1      33.939  22.598   8.712  0.00  0.00    +0.242 C 
ATOM     21  O   UNL     1      33.945  21.459   8.278  0.00  0.00    -0.270 OA
ATOM     22  H   UNL     1      35.344  23.283   7.423  0.00  0.00    +0.145 HD
ATOM     23  H   UNL     1      34.946  24.429   8.652  0.00  0.00    +0.145 HD
ENDBRANCH  13  20
ENDBRANCH   1  16
TORSDOF 2
ENDMDL
MODEL 8
REMARK VINA RESULT:      -6.1      3.544      7.869
REMARK  Name = ZINC000583127796
REMARK  2 active torsions:
REMARK  status: ('A' for Active; 'I' for Inactive)
REMARK    1  A    between atoms: C_2  and  C_4
REMARK    2  A    between atoms: C_7  and  C_8
REMARK                            x       y       z     vdW  Elec       q    Type
REMARK                         _______ _______ _______ _____ _____    ______ ____
ROOT
ATOM      1  C   UNL     1      32.579  23.906  11.991  0.00  0.00    +0.247 C 
ATOM      2  O   UNL     1      31.598  24.637  11.835  0.00  0.00    -0.270 OA
ATOM      3  N   UNL     1      32.937  23.367  13.237  0.00  0.00    -0.297 N 
ATOM      4  C   UNL     1      34.080  22.497  13.517  0.00  0.00    +0.108 C 
ATOM      5  C   UNL     1      33.677  21.207  14.207  0.00  0.00    +0.020 C 
ATOM      6  C   UNL     1      32.790  21.467  15.411  0.00  0.00    +0.011 C 
ATOM      7  C   UNL     1      31.579  22.376  15.088  0.00  0.00    -0.004 C 
ATOM      8  C   UNL     1      30.863  22.658  16.426  0.00  0.00    +0.020 C 
ATOM      9  C   UNL     1      29.411  23.000  16.173  0.00  0.00    +0.070 C 
ATOM     10  S   UNL     1      28.911  21.862  14.872  0.00  0.00    -0.160 S 
ATOM     11  C   UNL     1      30.569  21.662  14.162  0.00  0.00    +0.077 C 
ATOM     12  C   UNL     1      32.094  23.673  14.409  0.00  0.00    +0.115 C 
ENDROOT
BRANCH   1  16
ATOM     13  C   UNL     1      34.629  23.116   8.317  0.00  0.00    +0.037 A 
ATOM     14  C   UNL     1      33.605  22.258   8.725  0.00  0.00    +0.014 A 
ATOM     15  C   UNL     1      33.009  22.433   9.976  0.00  0.00    +0.014 A 
ATOM     16  C   UNL     1      33.353  23.529  10.769  0.00  0.00    +0.037 A 
ATOM     17  C   UNL     1      34.445  24.328  10.404  0.00  0.00    +0.014 A 
ATOM     18  C   UNL     1      35.091  24.113   9.182  0.00  0.00    +0.014 A 
BRANCH  13  20
ATOM     19  N   UNL     1      35.523  24.156   6.310  0.00  0.00    -0.325 N 
ATOM     20  C   UNL     1      35.246  22.991   6.969  0.00  0.00    +0.242 C 
ATOM     21  O   UNL     1      35.539  21.905   6.496  0.00  0.00    -0.270 OA
ATOM     22  H   UNL     1      36.052  24.064   5.451  0.00  0.00    +0.145 HD
ATOM     23  H   UNL     1      35.559  25.050   6.781  0.00  0.00    +0.145 HD
ENDBRANCH  13  20
ENDBRANCH   1  16
TORSDOF 2
ENDMDL
MODEL 9
REMARK VINA RESULT:      -5.8      5.699      7.196
REMARK  Name = ZINC000583127796
REMARK  2 active torsions:
REMARK  status: ('A' for Active; 'I' for Inactive)
REMARK    1  A    between atoms: C_2  and  C_4
REMARK    2  A    between atoms: C_7  and  C_8
REMARK                            x       y       z     vdW  Elec       q    Type
REMARK                         _______ _______ _______ _____ _____    ______ ____
ROOT
ATOM      1  C   UNL     1      31.958  25.067  18.194  0.00  0.00    +0.247 C 
ATOM      2  O   UNL     1      31.247  25.839  18.840  0.00  0.00    -0.270 OA
ATOM      3  N   UNL     1      33.359  25.070  18.277  0.00  0.00    -0.297 N 
ATOM      4  C   UNL     1      34.280  24.197  17.548  0.00  0.00    +0.108 C 
ATOM      5  C   UNL     1      35.234  23.457  18.468  0.00  0.00    +0.020 C 
ATOM      6  C   UNL     1      35.917  24.397  19.444  0.00  0.00    +0.011 C 
ATOM      7  C   UNL     1      34.923  25.299  20.215  0.00  0.00    -0.004 C 
ATOM      8  C   UNL     1      35.768  26.283  21.051  0.00  0.00    +0.020 C 
ATOM      9  C   UNL     1      34.969  26.771  22.240  0.00  0.00    +0.070 C 
ATOM     10  S   UNL     1      34.093  25.307  22.811  0.00  0.00    -0.160 S 
ATOM     11  C   UNL     1      34.059  24.476  21.198  0.00  0.00    +0.077 C 
ATOM     12  C   UNL     1      34.011  26.027  19.191  0.00  0.00    +0.115 C 
ENDROOT
BRANCH   1  16
ATOM     13  C   UNL     1      29.664  22.328  15.835  0.00  0.00    +0.037 A 
ATOM     14  C   UNL     1      30.058  21.955  17.122  0.00  0.00    +0.014 A 
ATOM     15  C   UNL     1      30.906  22.786  17.857  0.00  0.00    +0.014 A 
ATOM     16  C   UNL     1      31.267  24.038  17.356  0.00  0.00    +0.037 A 
ATOM     17  C   UNL     1      30.952  24.367  16.030  0.00  0.00    +0.014 A 
ATOM     18  C   UNL     1      30.160  23.504  15.266  0.00  0.00    +0.014 A 
BRANCH  13  20
ATOM     19  N   UNL     1      27.727  20.860  15.749  0.00  0.00    -0.325 N 
ATOM     20  C   UNL     1      28.717  21.491  15.048  0.00  0.00    +0.242 C 
ATOM     21  O   UNL     1      28.787  21.414  13.833  0.00  0.00    -0.270 OA
ATOM     22  H   UNL     1      27.019  20.395  15.194  0.00  0.00    +0.145 HD
ATOM     23  H   UNL     1      27.475  21.128  16.691  0.00  0.00    +0.145 HD
ENDBRANCH  13  20
ENDBRANCH   1  16
TORSDOF 2
ENDMDL
