MODEL 1
REMARK VINA RESULT:      -8.1      0.000      0.000
REMARK  Name = ZINC000583127796
REMARK  2 active torsions:
REMARK  status: ('A' for Active; 'I' for Inactive)
REMARK    1  A    between atoms: C_2  and  C_4
REMARK    2  A    between atoms: C_7  and  C_8
REMARK                            x       y       z     vdW  Elec       q    Type
REMARK                         _______ _______ _______ _____ _____    ______ ____
ROOT
ATOM      1  C   UNL     1      12.725   5.723  10.266  0.00  0.00    +0.247 C 
ATOM      2  O   UNL     1      12.936   6.932  10.150  0.00  0.00    -0.270 OA
ATOM      3  N   UNL     1      12.361   4.906   9.184  0.00  0.00    -0.297 N 
ATOM      4  C   UNL     1      12.087   3.469   9.227  0.00  0.00    +0.108 C 
ATOM      5  C   UNL     1      12.924   2.685   8.233  0.00  0.00    +0.020 C 
ATOM      6  C   UNL     1      12.852   3.286   6.841  0.00  0.00    +0.011 C 
ATOM      7  C   UNL     1      13.160   4.803   6.817  0.00  0.00    -0.004 C 
ATOM      8  C   UNL     1      12.910   5.287   5.373  0.00  0.00    +0.020 C 
ATOM      9  C   UNL     1      13.718   6.536   5.099  0.00  0.00    +0.070 C 
ATOM     10  S   UNL     1      15.298   6.222   5.900  0.00  0.00    -0.160 S 
ATOM     11  C   UNL     1      14.643   5.083   7.151  0.00  0.00    +0.077 C 
ATOM     12  C   UNL     1      12.242   5.515   7.845  0.00  0.00    +0.115 C 
ENDROOT
BRANCH   1  16
ATOM     13  C   UNL     1      13.525   4.311  14.227  0.00  0.00    +0.037 A 
ATOM     14  C   UNL     1      14.319   3.861  13.169  0.00  0.00    +0.014 A 
ATOM     15  C   UNL     1      13.996   4.218  11.859  0.00  0.00    +0.014 A 
ATOM     16  C   UNL     1      12.954   5.113  11.612  0.00  0.00    +0.037 A 
ATOM     17  C   UNL     1      12.102   5.484  12.661  0.00  0.00    +0.014 A 
ATOM     18  C   UNL     1      12.382   5.072  13.968  0.00  0.00    +0.014 A 
BRANCH  13  20
ATOM     19  N   UNL     1      12.960   3.267  16.350  0.00  0.00    -0.325 N 
ATOM     20  C   UNL     1      13.874   3.995  15.639  0.00  0.00    +0.242 C 
ATOM     21  O   UNL     1      14.945   4.321  16.123  0.00  0.00    -0.270 OA
ATOM     22  H   UNL     1      13.259   2.953  17.265  0.00  0.00    +0.145 HD
ATOM     23  H   UNL     1      12.216   2.749  15.903  0.00  0.00    +0.145 HD
ENDBRANCH  13  20
ENDBRANCH   1  16
TORSDOF 2
ENDMDL
MODEL 2
REMARK VINA RESULT:      -7.5      1.242      1.775
REMARK  Name = ZINC000583127796
REMARK  2 active torsions:
REMARK  status: ('A' for Active; 'I' for Inactive)
REMARK    1  A    between atoms: C_2  and  C_4
REMARK    2  A    between atoms: C_7  and  C_8
REMARK                            x       y       z     vdW  Elec       q    Type
REMARK                         _______ _______ _______ _____ _____    ______ ____
ROOT
ATOM      1  C   UNL     1      12.576   5.968   8.951  0.00  0.00    +0.247 C 
ATOM      2  O   UNL     1      12.751   7.108   8.515  0.00  0.00    -0.270 OA
ATOM      3  N   UNL     1      12.367   4.858   8.119  0.00  0.00    -0.297 N 
ATOM      4  C   UNL     1      12.147   3.474   8.544  0.00  0.00    +0.108 C 
ATOM      5  C   UNL     1      13.119   2.503   7.900  0.00  0.00    +0.020 C 
ATOM      6  C   UNL     1      13.178   2.684   6.394  0.00  0.00    +0.011 C 
ATOM      7  C   UNL     1      13.427   4.151   5.967  0.00  0.00    -0.004 C 
ATOM      8  C   UNL     1      13.320   4.192   4.428  0.00  0.00    +0.020 C 
ATOM      9  C   UNL     1      14.104   5.367   3.887  0.00  0.00    +0.070 C 
ATOM     10  S   UNL     1      15.597   5.401   4.890  0.00  0.00    -0.160 S 
ATOM     11  C   UNL     1      14.851   4.615   6.347  0.00  0.00    +0.077 C 
ATOM     12  C   UNL     1      12.373   5.057   6.656  0.00  0.00    +0.115 C 
ENDROOT
BRANCH   1  16
ATOM     13  C   UNL     1      12.739   5.070  13.134  0.00  0.00    +0.037 A 
ATOM     14  C   UNL     1      11.750   5.935  12.660  0.00  0.00    +0.014 A 
ATOM     15  C   UNL     1      11.757   6.331  11.321  0.00  0.00    +0.014 A 
ATOM     16  C   UNL     1      12.678   5.777  10.430  0.00  0.00    +0.037 A 
ATOM     17  C   UNL     1      13.726   4.988  10.926  0.00  0.00    +0.014 A 
ATOM     18  C   UNL     1      13.762   4.645  12.281  0.00  0.00    +0.014 A 
BRANCH  13  20
ATOM     19  N   UNL     1      11.724   5.054  15.343  0.00  0.00    -0.325 N 
ATOM     20  C   UNL     1      12.727   4.585  14.540  0.00  0.00    +0.242 C 
ATOM     21  O   UNL     1      13.538   3.769  14.944  0.00  0.00    -0.270 OA
ATOM     22  H   UNL     1      11.652   4.626  16.258  0.00  0.00    +0.145 HD
ATOM     23  H   UNL     1      10.893   5.492  14.971  0.00  0.00    +0.145 HD
ENDBRANCH  13  20
ENDBRANCH   1  16
TORSDOF 2
ENDMDL
MODEL 3
REMARK VINA RESULT:      -7.4      2.523      3.295
REMARK  Name = ZINC000583127796
REMARK  2 active torsions:
REMARK  status: ('A' for Active; 'I' for Inactive)
REMARK    1  A    between atoms: C_2  and  C_4
REMARK    2  A    between atoms: C_7  and  C_8
REMARK                            x       y       z     vdW  Elec       q    Type
REMARK                         _______ _______ _______ _____ _____    ______ ____
ROOT
ATOM      1  C   UNL     1      14.953   5.110   8.780  0.00  0.00    +0.247 C 
ATOM      2  O   UNL     1      16.140   4.814   8.935  0.00  0.00    -0.270 OA
ATOM      3  N   UNL     1      14.349   5.198   7.516  0.00  0.00    -0.297 N 
ATOM      4  C   UNL     1      12.954   5.544   7.236  0.00  0.00    +0.108 C 
ATOM      5  C   UNL     1      12.255   4.504   6.381  0.00  0.00    +0.020 C 
ATOM      6  C   UNL     1      13.064   4.154   5.146  0.00  0.00    +0.011 C 
ATOM      7  C   UNL     1      14.530   3.776   5.468  0.00  0.00    -0.004 C 
ATOM      8  C   UNL     1      15.250   3.588   4.115  0.00  0.00    +0.020 C 
ATOM      9  C   UNL     1      16.443   2.674   4.287  0.00  0.00    +0.070 C 
ATOM     10  S   UNL     1      15.861   1.398   5.414  0.00  0.00    -0.160 S 
ATOM     11  C   UNL     1      14.613   2.433   6.229  0.00  0.00    +0.077 C 
ATOM     12  C   UNL     1      15.163   4.908   6.320  0.00  0.00    +0.115 C 
ENDROOT
BRANCH   1  16
ATOM     13  C   UNL     1      12.417   5.316  12.222  0.00  0.00    +0.037 A 
ATOM     14  C   UNL     1      12.179   6.177  11.148  0.00  0.00    +0.014 A 
ATOM     15  C   UNL     1      13.068   6.205  10.071  0.00  0.00    +0.014 A 
ATOM     16  C   UNL     1      14.127   5.296  10.012  0.00  0.00    +0.037 A 
ATOM     17  C   UNL     1      14.418   4.505  11.131  0.00  0.00    +0.014 A 
ATOM     18  C   UNL     1      13.568   4.525  12.242  0.00  0.00    +0.014 A 
BRANCH  13  20
ATOM     19  N   UNL     1      11.998   5.053  14.603  0.00  0.00    -0.325 N 
ATOM     20  C   UNL     1      11.459   5.223  13.358  0.00  0.00    +0.242 C 
ATOM     21  O   UNL     1      10.257   5.344  13.194  0.00  0.00    -0.270 OA
ATOM     22  H   UNL     1      11.349   5.114  15.378  0.00  0.00    +0.145 HD
ATOM     23  H   UNL     1      12.973   5.233  14.800  0.00  0.00    +0.145 HD
ENDBRANCH  13  20
ENDBRANCH   1  16
TORSDOF 2
ENDMDL
MODEL 4
REMARK VINA RESULT:      -7.0      3.687      7.089
REMARK  Name = ZINC000583127796
REMARK  2 active torsions:
REMARK  status: ('A' for Active; 'I' for Inactive)
REMARK    1  A    between atoms: C_2  and  C_4
REMARK    2  A    between atoms: C_7  and  C_8
REMARK                            x       y       z     vdW  Elec       q    Type
REMARK                         _______ _______ _______ _____ _____    ______ ____
ROOT
ATOM      1  C   UNL     1      11.612   4.973   7.403  0.00  0.00    +0.247 C 
ATOM      2  O   UNL     1      11.848   4.275   6.415  0.00  0.00    -0.270 OA
ATOM      3  N   UNL     1      11.896   4.560   8.714  0.00  0.00    -0.297 N 
ATOM      4  C   UNL     1      11.649   5.317   9.943  0.00  0.00    +0.108 C 
ATOM      5  C   UNL     1      12.894   5.467  10.796  0.00  0.00    +0.020 C 
ATOM      6  C   UNL     1      13.586   4.136  11.020  0.00  0.00    +0.011 C 
ATOM      7  C   UNL     1      13.853   3.361   9.707  0.00  0.00    -0.004 C 
ATOM      8  C   UNL     1      14.425   1.984  10.109  0.00  0.00    +0.020 C 
ATOM      9  C   UNL     1      15.248   1.415   8.974  0.00  0.00    +0.070 C 
ATOM     10  S   UNL     1      16.141   2.835   8.323  0.00  0.00    -0.160 S 
ATOM     11  C   UNL     1      14.916   4.070   8.838  0.00  0.00    +0.077 C 
ATOM     12  C   UNL     1      12.521   3.239   8.920  0.00  0.00    +0.115 C 
ENDROOT
BRANCH   1  16
ATOM     13  C   UNL     1       9.940   8.778   6.375  0.00  0.00    +0.037 A 
ATOM     14  C   UNL     1      11.326   8.604   6.317  0.00  0.00    +0.014 A 
ATOM     15  C   UNL     1      11.894   7.409   6.764  0.00  0.00    +0.014 A 
ATOM     16  C   UNL     1      11.077   6.348   7.158  0.00  0.00    +0.037 A 
ATOM     17  C   UNL     1       9.699   6.558   7.307  0.00  0.00    +0.014 A 
ATOM     18  C   UNL     1       9.133   7.779   6.927  0.00  0.00    +0.014 A 
BRANCH  13  20
ATOM     19  N   UNL     1       9.927  11.198   6.140  0.00  0.00    -0.325 N 
ATOM     20  C   UNL     1       9.300  10.017   5.856  0.00  0.00    +0.242 C 
ATOM     21  O   UNL     1       8.295   9.978   5.166  0.00  0.00    -0.270 OA
ATOM     22  H   UNL     1       9.553  12.020   5.681  0.00  0.00    +0.145 HD
ATOM     23  H   UNL     1      10.887  11.240   6.452  0.00  0.00    +0.145 HD
ENDBRANCH  13  20
ENDBRANCH   1  16
TORSDOF 2
ENDMDL
MODEL 5
REMARK VINA RESULT:      -6.8      4.098      5.754
REMARK  Name = ZINC000583127796
REMARK  2 active torsions:
REMARK  status: ('A' for Active; 'I' for Inactive)
REMARK    1  A    between atoms: C_2  and  C_4
REMARK    2  A    between atoms: C_7  and  C_8
REMARK                            x       y       z     vdW  Elec       q    Type
REMARK                         _______ _______ _______ _____ _____    ______ ____
ROOT
ATOM      1  C   UNL     1      13.520   6.190   7.712  0.00  0.00    +0.247 C 
ATOM      2  O   UNL     1      14.248   7.168   7.529  0.00  0.00    -0.270 OA
ATOM      3  N   UNL     1      14.009   4.876   7.763  0.00  0.00    -0.297 N 
ATOM      4  C   UNL     1      13.223   3.658   7.972  0.00  0.00    +0.108 C 
ATOM      5  C   UNL     1      13.737   2.822   9.128  0.00  0.00    +0.020 C 
ATOM      6  C   UNL     1      15.232   2.581   9.027  0.00  0.00    +0.011 C 
ATOM      7  C   UNL     1      16.044   3.883   8.824  0.00  0.00    -0.004 C 
ATOM      8  C   UNL     1      17.513   3.463   8.599  0.00  0.00    +0.020 C 
ATOM      9  C   UNL     1      18.439   4.597   8.982  0.00  0.00    +0.070 C 
ATOM     10  S   UNL     1      17.702   5.283  10.473  0.00  0.00    -0.160 S 
ATOM     11  C   UNL     1      16.003   4.777  10.084  0.00  0.00    +0.077 C 
ATOM     12  C   UNL     1      15.459   4.653   7.609  0.00  0.00    +0.115 C 
ENDROOT
BRANCH   1  16
ATOM     13  C   UNL     1       9.322   6.569   8.462  0.00  0.00    +0.037 A 
ATOM     14  C   UNL     1       9.816   6.858   7.187  0.00  0.00    +0.014 A 
ATOM     15  C   UNL     1      11.194   6.855   6.960  0.00  0.00    +0.014 A 
ATOM     16  C   UNL     1      12.071   6.454   7.969  0.00  0.00    +0.037 A 
ATOM     17  C   UNL     1      11.583   6.261   9.269  0.00  0.00    +0.014 A 
ATOM     18  C   UNL     1      10.208   6.331   9.517  0.00  0.00    +0.014 A 
BRANCH  13  20
ATOM     19  N   UNL     1       7.474   6.351  10.027  0.00  0.00    -0.325 N 
ATOM     20  C   UNL     1       7.859   6.509   8.724  0.00  0.00    +0.242 C 
ATOM     21  O   UNL     1       7.041   6.647   7.830  0.00  0.00    -0.270 OA
ATOM     22  H   UNL     1       6.481   6.435  10.208  0.00  0.00    +0.145 HD
ATOM     23  H   UNL     1       8.101   6.520  10.801  0.00  0.00    +0.145 HD
ENDBRANCH  13  20
ENDBRANCH   1  16
TORSDOF 2
ENDMDL
MODEL 6
REMARK VINA RESULT:      -6.8      4.796      6.818
REMARK  Name = ZINC000583127796
REMARK  2 active torsions:
REMARK  status: ('A' for Active; 'I' for Inactive)
REMARK    1  A    between atoms: C_2  and  C_4
REMARK    2  A    between atoms: C_7  and  C_8
REMARK                            x       y       z     vdW  Elec       q    Type
REMARK                         _______ _______ _______ _____ _____    ______ ____
ROOT
ATOM      1  C   UNL     1      13.062   6.222   7.556  0.00  0.00    +0.247 C 
ATOM      2  O   UNL     1      13.377   6.290   8.745  0.00  0.00    -0.270 OA
ATOM      3  N   UNL     1      13.869   5.606   6.587  0.00  0.00    -0.297 N 
ATOM      4  C   UNL     1      13.579   5.481   5.158  0.00  0.00    +0.108 C 
ATOM      5  C   UNL     1      13.649   4.045   4.671  0.00  0.00    +0.020 C 
ATOM      6  C   UNL     1      14.938   3.369   5.101  0.00  0.00    +0.011 C 
ATOM      7  C   UNL     1      15.216   3.500   6.619  0.00  0.00    -0.004 C 
ATOM      8  C   UNL     1      16.613   2.892   6.871  0.00  0.00    +0.020 C 
ATOM      9  C   UNL     1      16.725   2.432   8.307  0.00  0.00    +0.070 C 
ATOM     10  S   UNL     1      15.121   1.697   8.660  0.00  0.00    -0.160 S 
ATOM     11  C   UNL     1      14.199   2.688   7.451  0.00  0.00    +0.077 C 
ATOM     12  C   UNL     1      15.146   5.000   7.011  0.00  0.00    +0.115 C 
ENDROOT
BRANCH   1  16
ATOM     13  C   UNL     1       9.241   7.977   6.750  0.00  0.00    +0.037 A 
ATOM     14  C   UNL     1       9.300   6.688   7.286  0.00  0.00    +0.014 A 
ATOM     15  C   UNL     1      10.536   6.057   7.442  0.00  0.00    +0.014 A 
ATOM     16  C   UNL     1      11.717   6.751   7.172  0.00  0.00    +0.037 A 
ATOM     17  C   UNL     1      11.652   8.004   6.545  0.00  0.00    +0.014 A 
ATOM     18  C   UNL     1      10.412   8.611   6.324  0.00  0.00    +0.014 A 
BRANCH  13  20
ATOM     19  N   UNL     1       7.134   8.326   5.588  0.00  0.00    -0.325 N 
ATOM     20  C   UNL     1       7.945   8.699   6.623  0.00  0.00    +0.242 C 
ATOM     21  O   UNL     1       7.600   9.543   7.433  0.00  0.00    -0.270 OA
ATOM     22  H   UNL     1       6.207   8.733   5.583  0.00  0.00    +0.145 HD
ATOM     23  H   UNL     1       7.259   7.456   5.088  0.00  0.00    +0.145 HD
ENDBRANCH  13  20
ENDBRANCH   1  16
TORSDOF 2
ENDMDL
MODEL 7
REMARK VINA RESULT:      -6.8      3.953      6.741
REMARK  Name = ZINC000583127796
REMARK  2 active torsions:
REMARK  status: ('A' for Active; 'I' for Inactive)
REMARK    1  A    between atoms: C_2  and  C_4
REMARK    2  A    between atoms: C_7  and  C_8
REMARK                            x       y       z     vdW  Elec       q    Type
REMARK                         _______ _______ _______ _____ _____    ______ ____
ROOT
ATOM      1  C   UNL     1      11.329   5.258   8.386  0.00  0.00    +0.247 C 
ATOM      2  O   UNL     1      11.142   4.138   7.906  0.00  0.00    -0.270 OA
ATOM      3  N   UNL     1      12.493   5.601   9.091  0.00  0.00    -0.297 N 
ATOM      4  C   UNL     1      12.799   6.899   9.695  0.00  0.00    +0.108 C 
ATOM      5  C   UNL     1      14.128   7.462   9.228  0.00  0.00    +0.020 C 
ATOM      6  C   UNL     1      15.246   6.444   9.354  0.00  0.00    +0.011 C 
ATOM      7  C   UNL     1      14.907   5.085   8.693  0.00  0.00    -0.004 C 
ATOM      8  C   UNL     1      16.070   4.125   9.026  0.00  0.00    +0.020 C 
ATOM      9  C   UNL     1      16.147   3.028   7.988  0.00  0.00    +0.070 C 
ATOM     10  S   UNL     1      15.822   3.871   6.432  0.00  0.00    -0.160 S 
ATOM     11  C   UNL     1      14.832   5.208   7.155  0.00  0.00    +0.077 C 
ATOM     12  C   UNL     1      13.549   4.583   9.252  0.00  0.00    +0.115 C 
ENDROOT
BRANCH   1  16
ATOM     13  C   UNL     1       8.137   7.963   7.480  0.00  0.00    +0.037 A 
ATOM     14  C   UNL     1       9.295   7.989   6.699  0.00  0.00    +0.014 A 
ATOM     15  C   UNL     1      10.390   7.198   7.055  0.00  0.00    +0.014 A 
ATOM     16  C   UNL     1      10.290   6.299   8.118  0.00  0.00    +0.037 A 
ATOM     17  C   UNL     1       9.167   6.346   8.956  0.00  0.00    +0.014 A 
ATOM     18  C   UNL     1       8.095   7.188   8.642  0.00  0.00    +0.014 A 
BRANCH  13  20
ATOM     19  N   UNL     1       6.327   8.411   5.919  0.00  0.00    -0.325 N 
ATOM     20  C   UNL     1       6.934   8.750   7.096  0.00  0.00    +0.242 C 
ATOM     21  O   UNL     1       6.479   9.620   7.821  0.00  0.00    -0.270 OA
ATOM     22  H   UNL     1       5.443   8.867   5.728  0.00  0.00    +0.145 HD
ATOM     23  H   UNL     1       6.504   7.531   5.453  0.00  0.00    +0.145 HD
ENDBRANCH  13  20
ENDBRANCH   1  16
TORSDOF 2
ENDMDL
MODEL 8
REMARK VINA RESULT:      -6.6      4.517      5.683
REMARK  Name = ZINC000583127796
REMARK  2 active torsions:
REMARK  status: ('A' for Active; 'I' for Inactive)
REMARK    1  A    between atoms: C_2  and  C_4
REMARK    2  A    between atoms: C_7  and  C_8
REMARK                            x       y       z     vdW  Elec       q    Type
REMARK                         _______ _______ _______ _____ _____    ______ ____
ROOT
ATOM      1  C   UNL     1      13.353   4.100   7.568  0.00  0.00    +0.247 C 
ATOM      2  O   UNL     1      12.629   3.168   7.922  0.00  0.00    -0.270 OA
ATOM      3  N   UNL     1      12.856   5.267   6.968  0.00  0.00    -0.297 N 
ATOM      4  C   UNL     1      13.638   6.419   6.514  0.00  0.00    +0.108 C 
ATOM      5  C   UNL     1      13.151   7.727   7.110  0.00  0.00    +0.020 C 
ATOM      6  C   UNL     1      11.651   7.895   6.945  0.00  0.00    +0.011 C 
ATOM      7  C   UNL     1      10.844   6.673   7.446  0.00  0.00    -0.004 C 
ATOM      8  C   UNL     1       9.366   6.935   7.084  0.00  0.00    +0.020 C 
ATOM      9  C   UNL     1       8.461   6.153   8.010  0.00  0.00    +0.070 C 
ATOM     10  S   UNL     1       9.246   6.301   9.622  0.00  0.00    -0.160 S 
ATOM     11  C   UNL     1      10.929   6.531   8.982  0.00  0.00    +0.077 C 
ATOM     12  C   UNL     1      11.400   5.394   6.765  0.00  0.00    +0.115 C 
ENDROOT
BRANCH   1  16
ATOM     13  C   UNL     1      17.449   3.459   8.638  0.00  0.00    +0.037 A 
ATOM     14  C   UNL     1      16.719   4.450   9.299  0.00  0.00    +0.014 A 
ATOM     15  C   UNL     1      15.421   4.752   8.880  0.00  0.00    +0.014 A 
ATOM     16  C   UNL     1      14.812   3.991   7.881  0.00  0.00    +0.037 A 
ATOM     17  C   UNL     1      15.577   3.066   7.156  0.00  0.00    +0.014 A 
ATOM     18  C   UNL     1      16.900   2.810   7.528  0.00  0.00    +0.014 A 
BRANCH  13  20
ATOM     19  N   UNL     1      18.990   1.773   9.471  0.00  0.00    -0.325 N 
ATOM     20  C   UNL     1      18.812   3.076   9.095  0.00  0.00    +0.242 C 
ATOM     21  O   UNL     1      19.739   3.869   9.084  0.00  0.00    -0.270 OA
ATOM     22  H   UNL     1      19.945   1.494   9.662  0.00  0.00    +0.145 HD
ATOM     23  H   UNL     1      18.335   1.044   9.223  0.00  0.00    +0.145 HD
ENDBRANCH  13  20
ENDBRANCH   1  16
TORSDOF 2
ENDMDL
MODEL 9
REMARK VINA RESULT:      -6.5     22.537     23.635
REMARK  Name = ZINC000583127796
REMARK  2 active torsions:
REMARK  status: ('A' for Active; 'I' for Inactive)
REMARK    1  A    between atoms: C_2  and  C_4
REMARK    2  A    between atoms: C_7  and  C_8
REMARK                            x       y       z     vdW  Elec       q    Type
REMARK                         _______ _______ _______ _____ _____    ______ ____
ROOT
ATOM      1  C   UNL     1      29.734  18.560  15.992  0.00  0.00    +0.247 C 
ATOM      2  O   UNL     1      29.447  18.287  17.159  0.00  0.00    -0.270 OA
ATOM      3  N   UNL     1      29.701  19.869  15.485  0.00  0.00    -0.297 N 
ATOM      4  C   UNL     1      30.021  20.286  14.119  0.00  0.00    +0.108 C 
ATOM      5  C   UNL     1      31.078  21.373  14.072  0.00  0.00    +0.020 C 
ATOM      6  C   UNL     1      30.745  22.521  15.006  0.00  0.00    +0.011 C 
ATOM      7  C   UNL     1      30.426  22.059  16.449  0.00  0.00    -0.004 C 
ATOM      8  C   UNL     1      29.974  23.311  17.230  0.00  0.00    +0.020 C 
ATOM      9  C   UNL     1      30.216  23.112  18.710  0.00  0.00    +0.070 C 
ATOM     10  S   UNL     1      31.807  22.277  18.788  0.00  0.00    -0.160 S 
ATOM     11  C   UNL     1      31.683  21.500  17.153  0.00  0.00    +0.077 C 
ATOM     12  C   UNL     1      29.322  20.970  16.392  0.00  0.00    +0.115 C 
ENDROOT
BRANCH   1  16
ATOM     13  C   UNL     1      30.968  15.546  13.213  0.00  0.00    +0.037 A 
ATOM     14  C   UNL     1      29.893  15.287  14.068  0.00  0.00    +0.014 A 
ATOM     15  C   UNL     1      29.556  16.211  15.059  0.00  0.00    +0.014 A 
ATOM     16  C   UNL     1      30.214  17.441  15.125  0.00  0.00    +0.037 A 
ATOM     17  C   UNL     1      31.351  17.657  14.333  0.00  0.00    +0.014 A 
ATOM     18  C   UNL     1      31.734  16.702  13.386  0.00  0.00    +0.014 A 
BRANCH  13  20
ATOM     19  N   UNL     1      30.280  14.126  11.363  0.00  0.00    -0.325 N 
ATOM     20  C   UNL     1      31.318  14.608  12.112  0.00  0.00    +0.242 C 
ATOM     21  O   UNL     1      32.476  14.325  11.855  0.00  0.00    -0.270 OA
ATOM     22  H   UNL     1      30.537  13.590  10.544  0.00  0.00    +0.145 HD
ATOM     23  H   UNL     1      29.365  14.556  11.367  0.00  0.00    +0.145 HD
ENDBRANCH  13  20
ENDBRANCH   1  16
TORSDOF 2
ENDMDL
