MODEL 1
REMARK VINA RESULT:      -7.4      0.000      0.000
REMARK  Name = ZINC000543478179
REMARK  8 active torsions:
REMARK  status: ('A' for Active; 'I' for Inactive)
REMARK    1  A    between atoms: C_1  and  C_2
REMARK    2  A    between atoms: C_2  and  N_3
REMARK    3  A    between atoms: N_9  and  C_10
REMARK    4  A    between atoms: C_10  and  C_11
REMARK    5  A    between atoms: C_10  and  C_12
REMARK    6  A    between atoms: C_15  and  O_16
REMARK    7  A    between atoms: O_16  and  C_17
REMARK    8  A    between atoms: C_17  and  C_18
REMARK                            x       y       z     vdW  Elec       q    Type
REMARK                         _______ _______ _______ _____ _____    ______ ____
ROOT
ATOM      1  C   UNL     1      28.517  21.520  16.715  0.00  0.00    +0.102 C 
ATOM      2  C   UNL     1      27.140  22.044  17.130  0.00  0.00    +0.033 C 
ENDROOT
BRANCH   1   9
ATOM      3  N   UNL     1      33.319  23.078  14.690  0.00  0.00    -0.299 N 
ATOM      4  C   UNL     1      33.772  22.727  16.035  0.00  0.00    +0.127 C 
ATOM      5  C   UNL     1      32.798  23.218  17.110  0.00  0.00    +0.129 C 
ATOM      6  N   UNL     1      31.457  22.678  16.869  0.00  0.00    -0.275 N 
ATOM      7  C   UNL     1      30.751  22.156  17.915  0.00  0.00    +0.303 C 
ATOM      8  O   UNL     1      31.226  22.110  19.055  0.00  0.00    -0.253 OA
ATOM      9  N   UNL     1      29.508  21.644  17.780  0.00  0.00    -0.293 N 
ATOM     10  C   UNL     1      31.002  22.779  15.491  0.00  0.00    +0.205 C 
ATOM     11  C   UNL     1      31.977  23.226  14.402  0.00  0.00    +0.233 C 
ATOM     12  O   UNL     1      31.554  23.570  13.295  0.00  0.00    -0.274 OA
ATOM     13  H   UNL     1      29.204  21.301  18.683  0.00  0.00    +0.151 HD
BRANCH   3  15
ATOM     14  C   UNL     1      35.239  24.390  13.929  0.00  0.00    +0.024 C 
ATOM     15  C   UNL     1      34.291  23.245  13.626  0.00  0.00    +0.104 C 
ENDBRANCH   3  15
ENDBRANCH   1   9
BRANCH   1  16
ATOM     16  C   UNL     1      28.457  20.084  16.226  0.00  0.00    -0.024 A 
ATOM     17  C   UNL     1      27.372  19.250  16.525  0.00  0.00    +0.009 A 
ATOM     18  C   UNL     1      27.344  17.926  16.084  0.00  0.00    +0.049 A 
ATOM     19  C   UNL     1      28.423  17.394  15.366  0.00  0.00    +0.156 A 
ATOM     20  C   UNL     1      29.484  18.234  15.035  0.00  0.00    +0.165 A 
ATOM     21  F   UNL     1      30.517  17.773  14.313  0.00  0.00    -0.202 F 
ATOM     22  C   UNL     1      29.515  19.559  15.465  0.00  0.00    +0.047 A 
BRANCH  19  23
ATOM     23  O   UNL     1      28.515  16.090  14.966  0.00  0.00    -0.489 OA
BRANCH  23  24
ATOM     24  C   UNL     1      27.804  15.775  13.769  0.00  0.00    +0.232 C 
BRANCH  24  25
ATOM     25  C   UNL     1      28.574  14.758  12.987  0.00  0.00    +0.027 C 
ATOM     26  C   UNL     1      29.980  15.078  12.546  0.00  0.00    +0.007 C 
ATOM     27  C   UNL     1      28.876  14.989  11.528  0.00  0.00    +0.007 C 
ENDBRANCH  24  25
ENDBRANCH  23  24
ENDBRANCH  19  23
ENDBRANCH   1  16
TORSDOF 6
ENDMDL
MODEL 2
REMARK VINA RESULT:      -7.1      1.350      1.773
REMARK  Name = ZINC000543478179
REMARK  8 active torsions:
REMARK  status: ('A' for Active; 'I' for Inactive)
REMARK    1  A    between atoms: C_1  and  C_2
REMARK    2  A    between atoms: C_2  and  N_3
REMARK    3  A    between atoms: N_9  and  C_10
REMARK    4  A    between atoms: C_10  and  C_11
REMARK    5  A    between atoms: C_10  and  C_12
REMARK    6  A    between atoms: C_15  and  O_16
REMARK    7  A    between atoms: O_16  and  C_17
REMARK    8  A    between atoms: C_17  and  C_18
REMARK                            x       y       z     vdW  Elec       q    Type
REMARK                         _______ _______ _______ _____ _____    ______ ____
ROOT
ATOM      1  C   UNL     1      27.907  20.517  16.808  0.00  0.00    +0.102 C 
ATOM      2  C   UNL     1      26.401  20.327  17.007  0.00  0.00    +0.033 C 
ENDROOT
BRANCH   1   9
ATOM      3  N   UNL     1      32.415  23.279  15.531  0.00  0.00    -0.299 N 
ATOM      4  C   UNL     1      32.647  23.169  16.970  0.00  0.00    +0.127 C 
ATOM      5  C   UNL     1      31.369  23.424  17.774  0.00  0.00    +0.129 C 
ATOM      6  N   UNL     1      30.312  22.497  17.358  0.00  0.00    -0.275 N 
ATOM      7  C   UNL     1      29.569  21.863  18.313  0.00  0.00    +0.303 C 
ATOM      8  O   UNL     1      29.782  22.037  19.517  0.00  0.00    -0.253 OA
ATOM      9  N   UNL     1      28.573  21.000  18.015  0.00  0.00    -0.293 N 
ATOM     10  C   UNL     1      30.153  22.366  15.918  0.00  0.00    +0.205 C 
ATOM     11  C   UNL     1      31.178  23.005  14.982  0.00  0.00    +0.233 C 
ATOM     12  O   UNL     1      30.925  23.133  13.781  0.00  0.00    -0.274 OA
ATOM     13  H   UNL     1      28.188  20.645  18.882  0.00  0.00    +0.151 HD
BRANCH   3  15
ATOM     14  C   UNL     1      34.332  24.775  15.256  0.00  0.00    +0.024 C 
ATOM     15  C   UNL     1      33.509  23.651  14.653  0.00  0.00    +0.104 C 
ENDBRANCH   3  15
ENDBRANCH   1   9
BRANCH   1  16
ATOM     16  C   UNL     1      28.582  19.251  16.313  0.00  0.00    -0.024 A 
ATOM     17  C   UNL     1      29.972  19.169  16.165  0.00  0.00    +0.009 A 
ATOM     18  C   UNL     1      30.573  18.003  15.689  0.00  0.00    +0.049 A 
ATOM     19  C   UNL     1      29.791  16.904  15.311  0.00  0.00    +0.156 A 
ATOM     20  C   UNL     1      28.412  16.971  15.495  0.00  0.00    +0.165 A 
ATOM     21  F   UNL     1      27.632  15.924  15.183  0.00  0.00    -0.202 F 
ATOM     22  C   UNL     1      27.805  18.129  15.977  0.00  0.00    +0.047 A 
BRANCH  19  23
ATOM     23  O   UNL     1      30.289  15.755  14.761  0.00  0.00    -0.489 OA
BRANCH  23  24
ATOM     24  C   UNL     1      30.497  15.805  13.349  0.00  0.00    +0.232 C 
BRANCH  24  25
ATOM     25  C   UNL     1      29.603  14.809  12.681  0.00  0.00    +0.027 C 
ATOM     26  C   UNL     1      29.317  14.949  11.207  0.00  0.00    +0.007 C 
ATOM     27  C   UNL     1      28.229  15.216  12.211  0.00  0.00    +0.007 C 
ENDBRANCH  24  25
ENDBRANCH  23  24
ENDBRANCH  19  23
ENDBRANCH   1  16
TORSDOF 6
ENDMDL
MODEL 3
REMARK VINA RESULT:      -7.0      3.748      7.461
REMARK  Name = ZINC000543478179
REMARK  8 active torsions:
REMARK  status: ('A' for Active; 'I' for Inactive)
REMARK    1  A    between atoms: C_1  and  C_2
REMARK    2  A    between atoms: C_2  and  N_3
REMARK    3  A    between atoms: N_9  and  C_10
REMARK    4  A    between atoms: C_10  and  C_11
REMARK    5  A    between atoms: C_10  and  C_12
REMARK    6  A    between atoms: C_15  and  O_16
REMARK    7  A    between atoms: O_16  and  C_17
REMARK    8  A    between atoms: C_17  and  C_18
REMARK                            x       y       z     vdW  Elec       q    Type
REMARK                         _______ _______ _______ _____ _____    ______ ____
ROOT
ATOM      1  C   UNL     1      28.817  17.005  16.033  0.00  0.00    +0.102 C 
ATOM      2  C   UNL     1      28.556  16.373  17.402  0.00  0.00    +0.033 C 
ENDROOT
BRANCH   1   9
ATOM      3  N   UNL     1      31.668  15.388  11.692  0.00  0.00    -0.299 N 
ATOM      4  C   UNL     1      30.336  15.325  11.093  0.00  0.00    +0.127 C 
ATOM      5  C   UNL     1      29.310  14.711  12.050  0.00  0.00    +0.129 C 
ATOM      6  N   UNL     1      29.266  15.467  13.305  0.00  0.00    -0.275 N 
ATOM      7  C   UNL     1      28.055  15.797  13.843  0.00  0.00    +0.303 C 
ATOM      8  O   UNL     1      26.997  15.490  13.285  0.00  0.00    -0.253 OA
ATOM      9  N   UNL     1      27.928  16.486  14.998  0.00  0.00    -0.293 N 
ATOM     10  C   UNL     1      30.571  15.779  13.870  0.00  0.00    +0.205 C 
ATOM     11  C   UNL     1      31.834  15.495  13.058  0.00  0.00    +0.233 C 
ATOM     12  O   UNL     1      32.938  15.502  13.609  0.00  0.00    -0.274 OA
ATOM     13  H   UNL     1      26.941  16.627  15.178  0.00  0.00    +0.151 HD
BRANCH   3  15
ATOM     14  C   UNL     1      33.045  16.712  10.163  0.00  0.00    +0.024 C 
ATOM     15  C   UNL     1      32.841  15.368  10.838  0.00  0.00    +0.104 C 
ENDBRANCH   3  15
ENDBRANCH   1   9
BRANCH   1  16
ATOM     16  C   UNL     1      28.734  18.520  16.078  0.00  0.00    -0.024 A 
ATOM     17  C   UNL     1      29.736  19.328  15.527  0.00  0.00    +0.009 A 
ATOM     18  C   UNL     1      29.652  20.719  15.596  0.00  0.00    +0.049 A 
ATOM     19  C   UNL     1      28.580  21.334  16.256  0.00  0.00    +0.156 A 
ATOM     20  C   UNL     1      27.565  20.532  16.770  0.00  0.00    +0.165 A 
ATOM     21  F   UNL     1      26.501  21.085  17.374  0.00  0.00    -0.202 F 
ATOM     22  C   UNL     1      27.638  19.142  16.698  0.00  0.00    +0.047 A 
BRANCH  19  23
ATOM     23  O   UNL     1      28.460  22.683  16.441  0.00  0.00    -0.489 OA
BRANCH  23  24
ATOM     24  C   UNL     1      29.630  23.330  16.940  0.00  0.00    +0.232 C 
BRANCH  24  25
ATOM     25  C   UNL     1      29.720  23.123  18.419  0.00  0.00    +0.027 C 
ATOM     26  C   UNL     1      31.068  23.182  19.091  0.00  0.00    +0.007 C 
ATOM     27  C   UNL     1      30.345  21.868  18.975  0.00  0.00    +0.007 C 
ENDBRANCH  24  25
ENDBRANCH  23  24
ENDBRANCH  19  23
ENDBRANCH   1  16
TORSDOF 6
ENDMDL
MODEL 4
REMARK VINA RESULT:      -6.9      1.290      1.727
REMARK  Name = ZINC000543478179
REMARK  8 active torsions:
REMARK  status: ('A' for Active; 'I' for Inactive)
REMARK    1  A    between atoms: C_1  and  C_2
REMARK    2  A    between atoms: C_2  and  N_3
REMARK    3  A    between atoms: N_9  and  C_10
REMARK    4  A    between atoms: C_10  and  C_11
REMARK    5  A    between atoms: C_10  and  C_12
REMARK    6  A    between atoms: C_15  and  O_16
REMARK    7  A    between atoms: O_16  and  C_17
REMARK    8  A    between atoms: C_17  and  C_18
REMARK                            x       y       z     vdW  Elec       q    Type
REMARK                         _______ _______ _______ _____ _____    ______ ____
ROOT
ATOM      1  C   UNL     1      27.988  20.065  16.692  0.00  0.00    +0.102 C 
ATOM      2  C   UNL     1      26.475  20.078  16.923  0.00  0.00    +0.033 C 
ENDROOT
BRANCH   1   9
ATOM      3  N   UNL     1      32.550  22.926  15.923  0.00  0.00    -0.299 N 
ATOM      4  C   UNL     1      32.857  22.412  17.256  0.00  0.00    +0.127 C 
ATOM      5  C   UNL     1      31.640  22.475  18.184  0.00  0.00    +0.129 C 
ATOM      6  N   UNL     1      30.516  21.735  17.602  0.00  0.00    -0.275 N 
ATOM      7  C   UNL     1      29.797  20.884  18.393  0.00  0.00    +0.303 C 
ATOM      8  O   UNL     1      30.087  20.709  19.581  0.00  0.00    -0.253 OA
ATOM      9  N   UNL     1      28.745  20.171  17.937  0.00  0.00    -0.293 N 
ATOM     10  C   UNL     1      30.271  22.015  16.196  0.00  0.00    +0.205 C 
ATOM     11  C   UNL     1      31.272  22.857  15.405  0.00  0.00    +0.233 C 
ATOM     12  O   UNL     1      30.958  23.322  14.306  0.00  0.00    -0.274 OA
ATOM     13  H   UNL     1      28.392  19.601  18.696  0.00  0.00    +0.151 HD
BRANCH   3  15
ATOM     14  C   UNL     1      34.343  22.410  14.339  0.00  0.00    +0.024 C 
ATOM     15  C   UNL     1      33.610  23.493  15.110  0.00  0.00    +0.104 C 
ENDBRANCH   3  15
ENDBRANCH   1   9
BRANCH   1  16
ATOM     16  C   UNL     1      28.437  18.841  15.914  0.00  0.00    -0.024 A 
ATOM     17  C   UNL     1      27.609  17.722  15.764  0.00  0.00    +0.009 A 
ATOM     18  C   UNL     1      28.047  16.598  15.062  0.00  0.00    +0.049 A 
ATOM     19  C   UNL     1      29.342  16.553  14.528  0.00  0.00    +0.156 A 
ATOM     20  C   UNL     1      30.150  17.681  14.645  0.00  0.00    +0.165 A 
ATOM     21  F   UNL     1      31.382  17.692  14.111  0.00  0.00    -0.202 F 
ATOM     22  C   UNL     1      29.717  18.810  15.337  0.00  0.00    +0.047 A 
BRANCH  19  23
ATOM     23  O   UNL     1      29.879  15.465  13.899  0.00  0.00    -0.489 OA
BRANCH  23  24
ATOM     24  C   UNL     1      29.482  15.300  12.537  0.00  0.00    +0.232 C 
BRANCH  24  25
ATOM     25  C   UNL     1      30.663  14.873  11.724  0.00  0.00    +0.027 C 
ATOM     26  C   UNL     1      32.029  14.860  12.361  0.00  0.00    +0.007 C 
ATOM     27  C   UNL     1      31.703  15.882  11.306  0.00  0.00    +0.007 C 
ENDBRANCH  24  25
ENDBRANCH  23  24
ENDBRANCH  19  23
ENDBRANCH   1  16
TORSDOF 6
ENDMDL
MODEL 5
REMARK VINA RESULT:      -6.7      3.009      5.162
REMARK  Name = ZINC000543478179
REMARK  8 active torsions:
REMARK  status: ('A' for Active; 'I' for Inactive)
REMARK    1  A    between atoms: C_1  and  C_2
REMARK    2  A    between atoms: C_2  and  N_3
REMARK    3  A    between atoms: N_9  and  C_10
REMARK    4  A    between atoms: C_10  and  C_11
REMARK    5  A    between atoms: C_10  and  C_12
REMARK    6  A    between atoms: C_15  and  O_16
REMARK    7  A    between atoms: O_16  and  C_17
REMARK    8  A    between atoms: C_17  and  C_18
REMARK                            x       y       z     vdW  Elec       q    Type
REMARK                         _______ _______ _______ _____ _____    ______ ____
ROOT
ATOM      1  C   UNL     1      28.522  16.492  14.247  0.00  0.00    +0.102 C 
ATOM      2  C   UNL     1      27.255  15.772  13.780  0.00  0.00    +0.033 C 
ENDROOT
BRANCH   1   9
ATOM      3  N   UNL     1      30.232  21.342  16.019  0.00  0.00    -0.299 N 
ATOM      4  C   UNL     1      30.414  20.598  17.264  0.00  0.00    +0.127 C 
ATOM      5  C   UNL     1      29.239  19.656  17.541  0.00  0.00    +0.129 C 
ATOM      6  N   UNL     1      29.051  18.731  16.419  0.00  0.00    -0.275 N 
ATOM      7  C   UNL     1      28.851  17.404  16.676  0.00  0.00    +0.303 C 
ATOM      8  O   UNL     1      28.846  16.964  17.830  0.00  0.00    -0.253 OA
ATOM      9  N   UNL     1      28.663  16.488  15.701  0.00  0.00    -0.293 N 
ATOM     10  C   UNL     1      29.081  19.357  15.106  0.00  0.00    +0.205 C 
ATOM     11  C   UNL     1      29.491  20.824  14.976  0.00  0.00    +0.233 C 
ATOM     12  O   UNL     1      29.270  21.438  13.929  0.00  0.00    -0.274 OA
ATOM     13  H   UNL     1      28.560  15.578  16.134  0.00  0.00    +0.151 HD
BRANCH   3  15
ATOM     14  C   UNL     1      30.506  23.565  17.004  0.00  0.00    +0.024 C 
ATOM     15  C   UNL     1      30.865  22.638  15.858  0.00  0.00    +0.104 C 
ENDBRANCH   3  15
ENDBRANCH   1   9
BRANCH   1  16
ATOM     16  C   UNL     1      29.773  15.924  13.603  0.00  0.00    -0.024 A 
ATOM     17  C   UNL     1      29.706  15.074  12.492  0.00  0.00    +0.009 A 
ATOM     18  C   UNL     1      30.866  14.544  11.925  0.00  0.00    +0.049 A 
ATOM     19  C   UNL     1      32.121  14.822  12.484  0.00  0.00    +0.156 A 
ATOM     20  C   UNL     1      32.190  15.698  13.565  0.00  0.00    +0.165 A 
ATOM     21  F   UNL     1      33.377  16.021  14.103  0.00  0.00    -0.202 F 
ATOM     22  C   UNL     1      31.037  16.236  14.131  0.00  0.00    +0.047 A 
BRANCH  19  23
ATOM     23  O   UNL     1      33.298  14.283  12.044  0.00  0.00    -0.489 OA
BRANCH  23  24
ATOM     24  C   UNL     1      33.580  14.499  10.661  0.00  0.00    +0.232 C 
BRANCH  24  25
ATOM     25  C   UNL     1      34.124  15.880  10.476  0.00  0.00    +0.027 C 
ATOM     26  C   UNL     1      33.189  16.993  10.075  0.00  0.00    +0.007 C 
ATOM     27  C   UNL     1      34.211  16.484   9.097  0.00  0.00    +0.007 C 
ENDBRANCH  24  25
ENDBRANCH  23  24
ENDBRANCH  19  23
ENDBRANCH   1  16
TORSDOF 6
ENDMDL
MODEL 6
REMARK VINA RESULT:      -6.7      1.143      1.524
REMARK  Name = ZINC000543478179
REMARK  8 active torsions:
REMARK  status: ('A' for Active; 'I' for Inactive)
REMARK    1  A    between atoms: C_1  and  C_2
REMARK    2  A    between atoms: C_2  and  N_3
REMARK    3  A    between atoms: N_9  and  C_10
REMARK    4  A    between atoms: C_10  and  C_11
REMARK    5  A    between atoms: C_10  and  C_12
REMARK    6  A    between atoms: C_15  and  O_16
REMARK    7  A    between atoms: O_16  and  C_17
REMARK    8  A    between atoms: C_17  and  C_18
REMARK                            x       y       z     vdW  Elec       q    Type
REMARK                         _______ _______ _______ _____ _____    ______ ____
ROOT
ATOM      1  C   UNL     1      29.245  21.602  16.707  0.00  0.00    +0.102 C 
ATOM      2  C   UNL     1      27.786  22.016  16.915  0.00  0.00    +0.033 C 
ENDROOT
BRANCH   1   9
ATOM      3  N   UNL     1      34.122  23.488  15.210  0.00  0.00    -0.299 N 
ATOM      4  C   UNL     1      34.424  23.247  16.620  0.00  0.00    +0.127 C 
ATOM      5  C   UNL     1      33.280  23.701  17.532  0.00  0.00    +0.129 C 
ATOM      6  N   UNL     1      32.032  23.029  17.158  0.00  0.00    -0.275 N 
ATOM      7  C   UNL     1      31.242  22.497  18.138  0.00  0.00    +0.303 C 
ATOM      8  O   UNL     1      31.566  22.552  19.328  0.00  0.00    -0.253 OA
ATOM      9  N   UNL     1      30.074  21.869  17.879  0.00  0.00    -0.293 N 
ATOM     10  C   UNL     1      31.754  23.020  15.730  0.00  0.00    +0.205 C 
ATOM     11  C   UNL     1      32.822  23.499  14.748  0.00  0.00    +0.233 C 
ATOM     12  O   UNL     1      32.519  23.748  13.578  0.00  0.00    -0.274 OA
ATOM     13  H   UNL     1      29.685  21.544  18.756  0.00  0.00    +0.151 HD
BRANCH   3  15
ATOM     14  C   UNL     1      35.863  25.043  14.474  0.00  0.00    +0.024 C 
ATOM     15  C   UNL     1      35.207  23.690  14.268  0.00  0.00    +0.104 C 
ENDBRANCH   3  15
ENDBRANCH   1   9
BRANCH   1  16
ATOM     16  C   UNL     1      29.372  20.145  16.301  0.00  0.00    -0.024 A 
ATOM     17  C   UNL     1      30.621  19.541  16.112  0.00  0.00    +0.009 A 
ATOM     18  C   UNL     1      30.718  18.206  15.718  0.00  0.00    +0.049 A 
ATOM     19  C   UNL     1      29.563  17.454  15.465  0.00  0.00    +0.156 A 
ATOM     20  C   UNL     1      28.321  18.043  15.691  0.00  0.00    +0.165 A 
ATOM     21  F   UNL     1      27.192  17.343  15.500  0.00  0.00    -0.202 F 
ATOM     22  C   UNL     1      28.217  19.373  16.091  0.00  0.00    +0.047 A 
BRANCH  19  23
ATOM     23  O   UNL     1      29.566  16.168  15.001  0.00  0.00    -0.489 OA
BRANCH  23  24
ATOM     24  C   UNL     1      29.984  16.019  13.644  0.00  0.00    +0.232 C 
BRANCH  24  25
ATOM     25  C   UNL     1      28.912  15.321  12.868  0.00  0.00    +0.027 C 
ATOM     26  C   UNL     1      29.138  13.901  12.412  0.00  0.00    +0.007 C 
ATOM     27  C   UNL     1      29.107  15.017  11.404  0.00  0.00    +0.007 C 
ENDBRANCH  24  25
ENDBRANCH  23  24
ENDBRANCH  19  23
ENDBRANCH   1  16
TORSDOF 6
ENDMDL
MODEL 7
REMARK VINA RESULT:      -6.5      2.501      3.465
REMARK  Name = ZINC000543478179
REMARK  8 active torsions:
REMARK  status: ('A' for Active; 'I' for Inactive)
REMARK    1  A    between atoms: C_1  and  C_2
REMARK    2  A    between atoms: C_2  and  N_3
REMARK    3  A    between atoms: N_9  and  C_10
REMARK    4  A    between atoms: C_10  and  C_11
REMARK    5  A    between atoms: C_10  and  C_12
REMARK    6  A    between atoms: C_15  and  O_16
REMARK    7  A    between atoms: O_16  and  C_17
REMARK    8  A    between atoms: C_17  and  C_18
REMARK                            x       y       z     vdW  Elec       q    Type
REMARK                         _______ _______ _______ _____ _____    ______ ____
ROOT
ATOM      1  C   UNL     1      30.470  20.970  15.947  0.00  0.00    +0.102 C 
ATOM      2  C   UNL     1      30.144  21.948  14.816  0.00  0.00    +0.033 C 
ENDROOT
BRANCH   1   9
ATOM      3  N   UNL     1      34.458  21.544  19.602  0.00  0.00    -0.299 N 
ATOM      4  C   UNL     1      33.326  21.647  20.521  0.00  0.00    +0.127 C 
ATOM      5  C   UNL     1      32.202  22.514  19.946  0.00  0.00    +0.129 C 
ATOM      6  N   UNL     1      31.759  21.983  18.653  0.00  0.00    -0.275 N 
ATOM      7  C   UNL     1      30.421  21.875  18.400  0.00  0.00    +0.303 C 
ATOM      8  O   UNL     1      29.578  22.195  19.244  0.00  0.00    -0.253 OA
ATOM      9  N   UNL     1      29.930  21.402  17.234  0.00  0.00    -0.293 N 
ATOM     10  C   UNL     1      32.837  21.633  17.740  0.00  0.00    +0.205 C 
ATOM     11  C   UNL     1      34.283  21.645  18.236  0.00  0.00    +0.233 C 
ATOM     12  O   UNL     1      35.215  21.614  17.428  0.00  0.00    -0.274 OA
ATOM     13  H   UNL     1      28.919  21.397  17.292  0.00  0.00    +0.151 HD
BRANCH   3  15
ATOM     14  C   UNL     1      35.991  19.828  20.433  0.00  0.00    +0.024 C 
ATOM     15  C   UNL     1      35.789  21.300  20.125  0.00  0.00    +0.104 C 
ENDBRANCH   3  15
ENDBRANCH   1   9
BRANCH   1  16
ATOM     16  C   UNL     1      30.003  19.559  15.636  0.00  0.00    -0.024 A 
ATOM     17  C   UNL     1      30.866  18.604  15.086  0.00  0.00    +0.009 A 
ATOM     18  C   UNL     1      30.413  17.318  14.787  0.00  0.00    +0.049 A 
ATOM     19  C   UNL     1      29.071  16.971  14.994  0.00  0.00    +0.156 A 
ATOM     20  C   UNL     1      28.223  17.909  15.577  0.00  0.00    +0.165 A 
ATOM     21  F   UNL     1      26.941  17.602  15.830  0.00  0.00    -0.202 F 
ATOM     22  C   UNL     1      28.670  19.193  15.885  0.00  0.00    +0.047 A 
BRANCH  19  23
ATOM     23  O   UNL     1      28.525  15.765  14.656  0.00  0.00    -0.489 OA
BRANCH  23  24
ATOM     24  C   UNL     1      27.898  15.726  13.374  0.00  0.00    +0.232 C 
BRANCH  24  25
ATOM     25  C   UNL     1      28.536  14.658  12.542  0.00  0.00    +0.027 C 
ATOM     26  C   UNL     1      30.033  14.661  12.363  0.00  0.00    +0.007 C 
ATOM     27  C   UNL     1      29.138  14.997  11.201  0.00  0.00    +0.007 C 
ENDBRANCH  24  25
ENDBRANCH  23  24
ENDBRANCH  19  23
ENDBRANCH   1  16
TORSDOF 6
ENDMDL
MODEL 8
REMARK VINA RESULT:      -6.5      2.414      3.661
REMARK  Name = ZINC000543478179
REMARK  8 active torsions:
REMARK  status: ('A' for Active; 'I' for Inactive)
REMARK    1  A    between atoms: C_1  and  C_2
REMARK    2  A    between atoms: C_2  and  N_3
REMARK    3  A    between atoms: N_9  and  C_10
REMARK    4  A    between atoms: C_10  and  C_11
REMARK    5  A    between atoms: C_10  and  C_12
REMARK    6  A    between atoms: C_15  and  O_16
REMARK    7  A    between atoms: O_16  and  C_17
REMARK    8  A    between atoms: C_17  and  C_18
REMARK                            x       y       z     vdW  Elec       q    Type
REMARK                         _______ _______ _______ _____ _____    ______ ____
ROOT
ATOM      1  C   UNL     1      31.591  22.436  16.168  0.00  0.00    +0.102 C 
ATOM      2  C   UNL     1      31.636  23.435  17.326  0.00  0.00    +0.033 C 
ENDROOT
BRANCH   1   9
ATOM      3  N   UNL     1      32.901  23.993  11.123  0.00  0.00    -0.299 N 
ATOM      4  C   UNL     1      33.984  23.032  11.325  0.00  0.00    +0.127 C 
ATOM      5  C   UNL     1      34.593  23.147  12.725  0.00  0.00    +0.129 C 
ATOM      6  N   UNL     1      33.558  22.967  13.748  0.00  0.00    -0.275 N 
ATOM      7  C   UNL     1      33.811  22.154  14.816  0.00  0.00    +0.303 C 
ATOM      8  O   UNL     1      34.884  21.551  14.928  0.00  0.00    -0.253 OA
ATOM      9  N   UNL     1      32.916  21.940  15.804  0.00  0.00    -0.293 N 
ATOM     10  C   UNL     1      32.336  23.720  13.512  0.00  0.00    +0.205 C 
ATOM     11  C   UNL     1      32.139  24.446  12.181  0.00  0.00    +0.233 C 
ATOM     12  O   UNL     1      31.249  25.292  12.064  0.00  0.00    -0.274 OA
ATOM     13  H   UNL     1      33.320  21.289  16.466  0.00  0.00    +0.151 HD
BRANCH   3  15
ATOM     14  C   UNL     1      33.643  25.441   9.296  0.00  0.00    +0.024 C 
ATOM     15  C   UNL     1      32.594  24.459   9.784  0.00  0.00    +0.104 C 
ENDBRANCH   3  15
ENDBRANCH   1   9
BRANCH   1  16
ATOM     16  C   UNL     1      30.661  21.271  16.455  0.00  0.00    -0.024 A 
ATOM     17  C   UNL     1      31.151  20.014  16.829  0.00  0.00    +0.009 A 
ATOM     18  C   UNL     1      30.282  18.949  17.069  0.00  0.00    +0.049 A 
ATOM     19  C   UNL     1      28.900  19.108  16.900  0.00  0.00    +0.156 A 
ATOM     20  C   UNL     1      28.410  20.368  16.567  0.00  0.00    +0.165 A 
ATOM     21  F   UNL     1      27.089  20.572  16.436  0.00  0.00    -0.202 F 
ATOM     22  C   UNL     1      29.271  21.438  16.333  0.00  0.00    +0.047 A 
BRANCH  19  23
ATOM     23  O   UNL     1      27.985  18.101  17.035  0.00  0.00    -0.489 OA
BRANCH  23  24
ATOM     24  C   UNL     1      28.345  16.872  16.406  0.00  0.00    +0.232 C 
BRANCH  24  25
ATOM     25  C   UNL     1      28.100  16.978  14.934  0.00  0.00    +0.027 C 
ATOM     26  C   UNL     1      27.745  15.737  14.155  0.00  0.00    +0.007 C 
ATOM     27  C   UNL     1      29.085  16.390  13.954  0.00  0.00    +0.007 C 
ENDBRANCH  24  25
ENDBRANCH  23  24
ENDBRANCH  19  23
ENDBRANCH   1  16
TORSDOF 6
ENDMDL
MODEL 9
REMARK VINA RESULT:      -6.4      2.599      3.216
REMARK  Name = ZINC000543478179
REMARK  8 active torsions:
REMARK  status: ('A' for Active; 'I' for Inactive)
REMARK    1  A    between atoms: C_1  and  C_2
REMARK    2  A    between atoms: C_2  and  N_3
REMARK    3  A    between atoms: N_9  and  C_10
REMARK    4  A    between atoms: C_10  and  C_11
REMARK    5  A    between atoms: C_10  and  C_12
REMARK    6  A    between atoms: C_15  and  O_16
REMARK    7  A    between atoms: O_16  and  C_17
REMARK    8  A    between atoms: C_17  and  C_18
REMARK                            x       y       z     vdW  Elec       q    Type
REMARK                         _______ _______ _______ _____ _____    ______ ____
ROOT
ATOM      1  C   UNL     1      30.653  22.501  18.248  0.00  0.00    +0.102 C 
ATOM      2  C   UNL     1      29.634  23.621  18.467  0.00  0.00    +0.033 C 
ENDROOT
BRANCH   1   9
ATOM      3  N   UNL     1      35.793  24.144  17.564  0.00  0.00    -0.299 N 
ATOM      4  C   UNL     1      35.988  23.381  18.795  0.00  0.00    +0.127 C 
ATOM      5  C   UNL     1      34.860  23.626  19.801  0.00  0.00    +0.129 C 
ATOM      6  N   UNL     1      33.562  23.299  19.202  0.00  0.00    -0.275 N 
ATOM      7  C   UNL     1      32.663  22.562  19.919  0.00  0.00    +0.303 C 
ATOM      8  O   UNL     1      32.928  22.147  21.052  0.00  0.00    -0.253 OA
ATOM      9  N   UNL     1      31.445  22.224  19.443  0.00  0.00    -0.293 N 
ATOM     10  C   UNL     1      33.361  23.834  17.864  0.00  0.00    +0.205 C 
ATOM     11  C   UNL     1      34.530  24.488  17.127  0.00  0.00    +0.233 C 
ATOM     12  O   UNL     1      34.322  25.173  16.122  0.00  0.00    -0.274 OA
ATOM     13  H   UNL     1      30.974  21.662  20.142  0.00  0.00    +0.151 HD
BRANCH   3  15
ATOM     14  C   UNL     1      37.653  25.722  17.368  0.00  0.00    +0.024 C 
ATOM     15  C   UNL     1      36.943  24.525  16.765  0.00  0.00    +0.104 C 
ENDBRANCH   3  15
ENDBRANCH   1   9
BRANCH   1  16
ATOM     16  C   UNL     1      30.001  21.224  17.749  0.00  0.00    -0.024 A 
ATOM     17  C   UNL     1      29.260  21.193  16.562  0.00  0.00    +0.009 A 
ATOM     18  C   UNL     1      28.650  20.014  16.129  0.00  0.00    +0.049 A 
ATOM     19  C   UNL     1      28.735  18.847  16.899  0.00  0.00    +0.156 A 
ATOM     20  C   UNL     1      29.504  18.868  18.060  0.00  0.00    +0.165 A 
ATOM     21  F   UNL     1      29.645  17.759  18.803  0.00  0.00    -0.202 F 
ATOM     22  C   UNL     1      30.123  20.039  18.494  0.00  0.00    +0.047 A 
BRANCH  19  23
ATOM     23  O   UNL     1      28.104  17.673  16.594  0.00  0.00    -0.489 OA
BRANCH  23  24
ATOM     24  C   UNL     1      28.876  16.758  15.817  0.00  0.00    +0.232 C 
BRANCH  24  25
ATOM     25  C   UNL     1      28.414  16.801  14.395  0.00  0.00    +0.027 C 
ATOM     26  C   UNL     1      27.494  15.720  13.886  0.00  0.00    +0.007 C 
ATOM     27  C   UNL     1      28.916  15.784  13.401  0.00  0.00    +0.007 C 
ENDBRANCH  24  25
ENDBRANCH  23  24
ENDBRANCH  19  23
ENDBRANCH   1  16
TORSDOF 6
ENDMDL
