MODEL 1
REMARK VINA RESULT:      -6.2      0.000      0.000
REMARK  Name = ZINC001228612316
REMARK  5 active torsions:
REMARK  status: ('A' for Active; 'I' for Inactive)
REMARK    1  A    between atoms: C_2  and  C_4
REMARK    2  A    between atoms: C_8  and  O_9
REMARK    3  A    between atoms: O_9  and  C_10
REMARK    4  A    between atoms: C_10  and  C_11
REMARK    5  A    between atoms: C_10  and  C_17
REMARK                            x       y       z     vdW  Elec       q    Type
REMARK                         _______ _______ _______ _____ _____    ______ ____
ROOT
ATOM      1  C   UNL     1      29.732  18.059  14.886  0.00  0.00    +0.040 A 
ATOM      2  C   UNL     1      30.652  17.322  14.137  0.00  0.00    +0.013 A 
ATOM      3  C   UNL     1      31.481  17.978  13.224  0.00  0.00    +0.004 A 
ATOM      4  C   UNL     1      31.395  19.366  13.070  0.00  0.00    +0.046 A 
ATOM      5  C   UNL     1      30.482  20.107  13.824  0.00  0.00    +0.122 A 
ATOM      6  C   UNL     1      29.635  19.442  14.704  0.00  0.00    +0.058 A 
ENDROOT
BRANCH   1   8
ATOM      7  N   UNL     1      28.710  16.087  15.889  0.00  0.00    -0.325 N 
ATOM      8  C   UNL     1      28.828  17.447  15.892  0.00  0.00    +0.242 C 
ATOM      9  O   UNL     1      28.257  18.123  16.740  0.00  0.00    -0.270 OA
ATOM     10  H   UNL     1      28.207  15.689  16.673  0.00  0.00    +0.145 HD
ATOM     11  H   UNL     1      29.365  15.491  15.403  0.00  0.00    +0.145 HD
ENDBRANCH   1   8
BRANCH   5  12
ATOM     12  O   UNL     1      30.482  21.458  13.608  0.00  0.00    -0.484 OA
BRANCH  12  13
ATOM     13  C   UNL     1      31.742  22.149  13.695  0.00  0.00    +0.208 C 
BRANCH  13  14
ATOM     14  C   UNL     1      31.733  23.310  12.723  0.00  0.00    +0.011 A 
ATOM     15  C   UNL     1      30.793  24.340  12.866  0.00  0.00    +0.010 A 
ATOM     16  C   UNL     1      30.780  25.403  11.971  0.00  0.00    +0.020 A 
ATOM     17  C   UNL     1      31.715  25.405  10.952  0.00  0.00    +0.111 A 
ATOM     18  N   UNL     1      32.635  24.433  10.773  0.00  0.00    -0.263 NA
ATOM     19  C   UNL     1      32.622  23.408  11.659  0.00  0.00    +0.118 A 
ENDBRANCH  13  14
BRANCH  13  20
ATOM     20  C   UNL     1      31.951  22.647  15.108  0.00  0.00    +0.034 C 
ATOM     21  C   UNL     1      33.216  23.367  15.528  0.00  0.00    +0.008 C 
ATOM     22  C   UNL     1      32.957  21.978  16.025  0.00  0.00    +0.008 C 
ENDBRANCH  13  20
ENDBRANCH  12  13
ENDBRANCH   5  12
TORSDOF 5
ENDMDL
MODEL 2
REMARK VINA RESULT:      -6.0      1.683      1.927
REMARK  Name = ZINC001228612316
REMARK  5 active torsions:
REMARK  status: ('A' for Active; 'I' for Inactive)
REMARK    1  A    between atoms: C_2  and  C_4
REMARK    2  A    between atoms: C_8  and  O_9
REMARK    3  A    between atoms: O_9  and  C_10
REMARK    4  A    between atoms: C_10  and  C_11
REMARK    5  A    between atoms: C_10  and  C_17
REMARK                            x       y       z     vdW  Elec       q    Type
REMARK                         _______ _______ _______ _____ _____    ______ ____
ROOT
ATOM      1  C   UNL     1      28.472  20.180  15.976  0.00  0.00    +0.040 A 
ATOM      2  C   UNL     1      29.057  18.981  15.566  0.00  0.00    +0.013 A 
ATOM      3  C   UNL     1      29.927  18.978  14.471  0.00  0.00    +0.004 A 
ATOM      4  C   UNL     1      30.214  20.170  13.800  0.00  0.00    +0.046 A 
ATOM      5  C   UNL     1      29.637  21.373  14.214  0.00  0.00    +0.122 A 
ATOM      6  C   UNL     1      28.745  21.363  15.281  0.00  0.00    +0.058 A 
ENDROOT
BRANCH   1   8
ATOM      7  N   UNL     1      27.013  19.120  17.615  0.00  0.00    -0.325 N 
ATOM      8  C   UNL     1      27.554  20.279  17.140  0.00  0.00    +0.242 C 
ATOM      9  O   UNL     1      27.337  21.347  17.698  0.00  0.00    -0.270 OA
ATOM     10  H   UNL     1      26.512  19.198  18.492  0.00  0.00    +0.145 HD
ATOM     11  H   UNL     1      27.379  18.213  17.366  0.00  0.00    +0.145 HD
ENDBRANCH   1   8
BRANCH   5  12
ATOM     12  O   UNL     1      29.989  22.486  13.500  0.00  0.00    -0.484 OA
BRANCH  12  13
ATOM     13  C   UNL     1      31.387  22.828  13.443  0.00  0.00    +0.208 C 
BRANCH  13  14
ATOM     14  C   UNL     1      31.593  23.866  12.359  0.00  0.00    +0.011 A 
ATOM     15  C   UNL     1      30.779  25.005  12.312  0.00  0.00    +0.010 A 
ATOM     16  C   UNL     1      30.963  25.955  11.315  0.00  0.00    +0.020 A 
ATOM     17  C   UNL     1      31.965  25.736  10.386  0.00  0.00    +0.111 A 
ATOM     18  N   UNL     1      32.770  24.651  10.390  0.00  0.00    -0.263 NA
ATOM     19  C   UNL     1      32.564  23.740  11.372  0.00  0.00    +0.118 A 
ENDBRANCH  13  14
BRANCH  13  20
ATOM     20  C   UNL     1      31.831  23.371  14.783  0.00  0.00    +0.034 C 
ATOM     21  C   UNL     1      33.255  23.822  15.036  0.00  0.00    +0.008 C 
ATOM     22  C   UNL     1      32.753  22.566  15.678  0.00  0.00    +0.008 C 
ENDBRANCH  13  20
ENDBRANCH  12  13
ENDBRANCH   5  12
TORSDOF 5
ENDMDL
MODEL 3
REMARK VINA RESULT:      -6.0      2.082      2.850
REMARK  Name = ZINC001228612316
REMARK  5 active torsions:
REMARK  status: ('A' for Active; 'I' for Inactive)
REMARK    1  A    between atoms: C_2  and  C_4
REMARK    2  A    between atoms: C_8  and  O_9
REMARK    3  A    between atoms: O_9  and  C_10
REMARK    4  A    between atoms: C_10  and  C_11
REMARK    5  A    between atoms: C_10  and  C_17
REMARK                            x       y       z     vdW  Elec       q    Type
REMARK                         _______ _______ _______ _____ _____    ______ ____
ROOT
ATOM      1  C   UNL     1      29.564  17.706  14.983  0.00  0.00    +0.040 A 
ATOM      2  C   UNL     1      30.431  17.077  14.086  0.00  0.00    +0.013 A 
ATOM      3  C   UNL     1      31.227  17.853  13.239  0.00  0.00    +0.004 A 
ATOM      4  C   UNL     1      31.162  19.249  13.298  0.00  0.00    +0.046 A 
ATOM      5  C   UNL     1      30.302  19.880  14.200  0.00  0.00    +0.122 A 
ATOM      6  C   UNL     1      29.487  19.102  15.014  0.00  0.00    +0.058 A 
ENDROOT
BRANCH   1   8
ATOM      7  N   UNL     1      28.170  17.656  16.981  0.00  0.00    -0.325 N 
ATOM      8  C   UNL     1      28.699  16.961  15.932  0.00  0.00    +0.242 C 
ATOM      9  O   UNL     1      28.411  15.784  15.752  0.00  0.00    -0.270 OA
ATOM     10  H   UNL     1      27.472  17.164  17.525  0.00  0.00    +0.145 HD
ATOM     11  H   UNL     1      28.155  18.665  17.006  0.00  0.00    +0.145 HD
ENDBRANCH   1   8
BRANCH   5  12
ATOM     12  O   UNL     1      30.319  21.248  14.189  0.00  0.00    -0.484 OA
BRANCH  12  13
ATOM     13  C   UNL     1      30.570  21.924  15.435  0.00  0.00    +0.208 C 
BRANCH  13  14
ATOM     14  C   UNL     1      31.763  22.842  15.264  0.00  0.00    +0.011 A 
ATOM     15  C   UNL     1      32.074  23.363  14.001  0.00  0.00    +0.010 A 
ATOM     16  C   UNL     1      33.172  24.199  13.842  0.00  0.00    +0.020 A 
ATOM     17  C   UNL     1      33.932  24.494  14.959  0.00  0.00    +0.111 A 
ATOM     18  N   UNL     1      33.673  24.011  16.194  0.00  0.00    -0.263 NA
ATOM     19  C   UNL     1      32.598  23.195  16.318  0.00  0.00    +0.118 A 
ENDBRANCH  13  14
BRANCH  13  20
ATOM     20  C   UNL     1      29.347  22.720  15.835  0.00  0.00    +0.034 C 
ATOM     21  C   UNL     1      29.066  23.091  17.276  0.00  0.00    +0.008 C 
ATOM     22  C   UNL     1      28.212  22.065  16.598  0.00  0.00    +0.008 C 
ENDBRANCH  13  20
ENDBRANCH  12  13
ENDBRANCH   5  12
TORSDOF 5
ENDMDL
MODEL 4
REMARK VINA RESULT:      -6.0      2.126      3.045
REMARK  Name = ZINC001228612316
REMARK  5 active torsions:
REMARK  status: ('A' for Active; 'I' for Inactive)
REMARK    1  A    between atoms: C_2  and  C_4
REMARK    2  A    between atoms: C_8  and  O_9
REMARK    3  A    between atoms: O_9  and  C_10
REMARK    4  A    between atoms: C_10  and  C_11
REMARK    5  A    between atoms: C_10  and  C_17
REMARK                            x       y       z     vdW  Elec       q    Type
REMARK                         _______ _______ _______ _____ _____    ______ ____
ROOT
ATOM      1  C   UNL     1      28.551  18.292  16.165  0.00  0.00    +0.040 A 
ATOM      2  C   UNL     1      27.535  18.403  17.117  0.00  0.00    +0.013 A 
ATOM      3  C   UNL     1      27.051  19.667  17.464  0.00  0.00    +0.004 A 
ATOM      4  C   UNL     1      27.574  20.811  16.852  0.00  0.00    +0.046 A 
ATOM      5  C   UNL     1      28.585  20.703  15.894  0.00  0.00    +0.122 A 
ATOM      6  C   UNL     1      29.087  19.444  15.580  0.00  0.00    +0.058 A 
ENDROOT
BRANCH   1   8
ATOM      7  N   UNL     1      28.441  15.859  16.092  0.00  0.00    -0.325 N 
ATOM      8  C   UNL     1      29.110  16.990  15.723  0.00  0.00    +0.242 C 
ATOM      9  O   UNL     1      30.096  16.926  14.999  0.00  0.00    -0.270 OA
ATOM     10  H   UNL     1      28.758  15.001  15.657  0.00  0.00    +0.145 HD
ATOM     11  H   UNL     1      27.493  15.883  16.440  0.00  0.00    +0.145 HD
ENDBRANCH   1   8
BRANCH   5  12
ATOM     12  O   UNL     1      29.022  21.878  15.347  0.00  0.00    -0.484 OA
BRANCH  12  13
ATOM     13  C   UNL     1      30.315  22.364  15.753  0.00  0.00    +0.208 C 
BRANCH  13  14
ATOM     14  C   UNL     1      31.101  22.760  14.520  0.00  0.00    +0.011 A 
ATOM     15  C   UNL     1      30.559  23.671  13.604  0.00  0.00    +0.010 A 
ATOM     16  C   UNL     1      31.275  24.031  12.470  0.00  0.00    +0.020 A 
ATOM     17  C   UNL     1      32.523  23.464  12.283  0.00  0.00    +0.111 A 
ATOM     18  N   UNL     1      33.083  22.578  13.136  0.00  0.00    -0.263 NA
ATOM     19  C   UNL     1      32.359  22.244  14.232  0.00  0.00    +0.118 A 
ENDBRANCH  13  14
BRANCH  13  20
ATOM     20  C   UNL     1      30.145  23.552  16.673  0.00  0.00    +0.034 C 
ATOM     21  C   UNL     1      31.216  23.967  17.660  0.00  0.00    +0.008 C 
ATOM     22  C   UNL     1      29.945  23.357  18.163  0.00  0.00    +0.008 C 
ENDBRANCH  13  20
ENDBRANCH  12  13
ENDBRANCH   5  12
TORSDOF 5
ENDMDL
MODEL 5
REMARK VINA RESULT:      -6.0      2.454      3.590
REMARK  Name = ZINC001228612316
REMARK  5 active torsions:
REMARK  status: ('A' for Active; 'I' for Inactive)
REMARK    1  A    between atoms: C_2  and  C_4
REMARK    2  A    between atoms: C_8  and  O_9
REMARK    3  A    between atoms: O_9  and  C_10
REMARK    4  A    between atoms: C_10  and  C_11
REMARK    5  A    between atoms: C_10  and  C_17
REMARK                            x       y       z     vdW  Elec       q    Type
REMARK                         _______ _______ _______ _____ _____    ______ ____
ROOT
ATOM      1  C   UNL     1      29.891  17.388  14.704  0.00  0.00    +0.040 A 
ATOM      2  C   UNL     1      30.450  16.755  13.592  0.00  0.00    +0.013 A 
ATOM      3  C   UNL     1      31.423  17.416  12.839  0.00  0.00    +0.004 A 
ATOM      4  C   UNL     1      31.841  18.700  13.204  0.00  0.00    +0.046 A 
ATOM      5  C   UNL     1      31.290  19.333  14.321  0.00  0.00    +0.122 A 
ATOM      6  C   UNL     1      30.296  18.683  15.045  0.00  0.00    +0.058 A 
ENDROOT
BRANCH   1   8
ATOM      7  N   UNL     1      28.456  17.445  16.673  0.00  0.00    -0.325 N 
ATOM      8  C   UNL     1      28.868  16.752  15.572  0.00  0.00    +0.242 C 
ATOM      9  O   UNL     1      28.360  15.675  15.283  0.00  0.00    -0.270 OA
ATOM     10  H   UNL     1      27.658  17.057  17.162  0.00  0.00    +0.145 HD
ATOM     11  H   UNL     1      28.639  18.432  16.787  0.00  0.00    +0.145 HD
ENDBRANCH   1   8
BRANCH   5  12
ATOM     12  O   UNL     1      31.771  20.582  14.602  0.00  0.00    -0.484 OA
BRANCH  12  13
ATOM     13  C   UNL     1      30.955  21.711  14.238  0.00  0.00    +0.208 C 
BRANCH  13  14
ATOM     14  C   UNL     1      30.175  22.166  15.453  0.00  0.00    +0.011 A 
ATOM     15  C   UNL     1      28.830  21.803  15.603  0.00  0.00    +0.010 A 
ATOM     16  C   UNL     1      28.112  22.225  16.714  0.00  0.00    +0.020 A 
ATOM     17  C   UNL     1      28.765  23.003  17.653  0.00  0.00    +0.111 A 
ATOM     18  N   UNL     1      30.058  23.380  17.549  0.00  0.00    -0.263 NA
ATOM     19  C   UNL     1      30.732  22.957  16.452  0.00  0.00    +0.118 A 
ENDBRANCH  13  14
BRANCH  13  20
ATOM     20  C   UNL     1      31.836  22.831  13.728  0.00  0.00    +0.034 C 
ATOM     21  C   UNL     1      31.326  23.879  12.762  0.00  0.00    +0.008 C 
ATOM     22  C   UNL     1      32.306  22.852  12.287  0.00  0.00    +0.008 C 
ENDBRANCH  13  20
ENDBRANCH  12  13
ENDBRANCH   5  12
TORSDOF 5
ENDMDL
MODEL 6
REMARK VINA RESULT:      -5.9      2.606      3.892
REMARK  Name = ZINC001228612316
REMARK  5 active torsions:
REMARK  status: ('A' for Active; 'I' for Inactive)
REMARK    1  A    between atoms: C_2  and  C_4
REMARK    2  A    between atoms: C_8  and  O_9
REMARK    3  A    between atoms: O_9  and  C_10
REMARK    4  A    between atoms: C_10  and  C_11
REMARK    5  A    between atoms: C_10  and  C_17
REMARK                            x       y       z     vdW  Elec       q    Type
REMARK                         _______ _______ _______ _____ _____    ______ ____
ROOT
ATOM      1  C   UNL     1      30.883  17.751  13.503  0.00  0.00    +0.040 A 
ATOM      2  C   UNL     1      31.806  17.496  12.486  0.00  0.00    +0.013 A 
ATOM      3  C   UNL     1      32.696  18.499  12.096  0.00  0.00    +0.004 A 
ATOM      4  C   UNL     1      32.669  19.746  12.729  0.00  0.00    +0.046 A 
ATOM      5  C   UNL     1      31.754  20.001  13.753  0.00  0.00    +0.122 A 
ATOM      6  C   UNL     1      30.846  19.010  14.110  0.00  0.00    +0.058 A 
ENDROOT
BRANCH   1   8
ATOM      7  N   UNL     1      29.459  16.869  15.274  0.00  0.00    -0.325 N 
ATOM      8  C   UNL     1      29.915  16.737  13.994  0.00  0.00    +0.242 C 
ATOM      9  O   UNL     1      29.486  15.851  13.264  0.00  0.00    -0.270 OA
ATOM     10  H   UNL     1      28.696  16.255  15.532  0.00  0.00    +0.145 HD
ATOM     11  H   UNL     1      29.570  17.724  15.799  0.00  0.00    +0.145 HD
ENDBRANCH   1   8
BRANCH   5  12
ATOM     12  O   UNL     1      31.813  21.247  14.315  0.00  0.00    -0.484 OA
BRANCH  12  13
ATOM     13  C   UNL     1      30.726  22.152  14.052  0.00  0.00    +0.208 C 
BRANCH  13  14
ATOM     14  C   UNL     1      29.896  22.302  15.310  0.00  0.00    +0.011 A 
ATOM     15  C   UNL     1      28.742  21.527  15.488  0.00  0.00    +0.010 A 
ATOM     16  C   UNL     1      27.976  21.667  16.638  0.00  0.00    +0.020 A 
ATOM     17  C   UNL     1      28.391  22.585  17.587  0.00  0.00    +0.111 A 
ATOM     18  N   UNL     1      29.492  23.356  17.456  0.00  0.00    -0.263 NA
ATOM     19  C   UNL     1      30.217  23.200  16.321  0.00  0.00    +0.118 A 
ENDBRANCH  13  14
BRANCH  13  20
ATOM     20  C   UNL     1      31.276  23.494  13.622  0.00  0.00    +0.034 C 
ATOM     21  C   UNL     1      30.629  24.315  12.526  0.00  0.00    +0.008 C 
ATOM     22  C   UNL     1      31.952  23.659  12.275  0.00  0.00    +0.008 C 
ENDBRANCH  13  20
ENDBRANCH  12  13
ENDBRANCH   5  12
TORSDOF 5
ENDMDL
MODEL 7
REMARK VINA RESULT:      -5.9      1.936      2.435
REMARK  Name = ZINC001228612316
REMARK  5 active torsions:
REMARK  status: ('A' for Active; 'I' for Inactive)
REMARK    1  A    between atoms: C_2  and  C_4
REMARK    2  A    between atoms: C_8  and  O_9
REMARK    3  A    between atoms: O_9  and  C_10
REMARK    4  A    between atoms: C_10  and  C_11
REMARK    5  A    between atoms: C_10  and  C_17
REMARK                            x       y       z     vdW  Elec       q    Type
REMARK                         _______ _______ _______ _____ _____    ______ ____
ROOT
ATOM      1  C   UNL     1      31.162  18.256  13.424  0.00  0.00    +0.040 A 
ATOM      2  C   UNL     1      30.281  17.845  14.428  0.00  0.00    +0.013 A 
ATOM      3  C   UNL     1      29.501  18.796  15.091  0.00  0.00    +0.004 A 
ATOM      4  C   UNL     1      29.595  20.147  14.744  0.00  0.00    +0.046 A 
ATOM      5  C   UNL     1      30.469  20.560  13.735  0.00  0.00    +0.122 A 
ATOM      6  C   UNL     1      31.268  19.613  13.104  0.00  0.00    +0.058 A 
ENDROOT
BRANCH   1   8
ATOM      7  N   UNL     1      32.869  17.845  11.735  0.00  0.00    -0.325 N 
ATOM      8  C   UNL     1      32.012  17.313  12.655  0.00  0.00    +0.242 C 
ATOM      9  O   UNL     1      31.998  16.108  12.876  0.00  0.00    -0.270 OA
ATOM     10  H   UNL     1      33.536  17.197  11.332  0.00  0.00    +0.145 HD
ATOM     11  H   UNL     1      33.106  18.826  11.723  0.00  0.00    +0.145 HD
ENDBRANCH   1   8
BRANCH   5  12
ATOM     12  O   UNL     1      30.481  21.901  13.463  0.00  0.00    -0.484 OA
BRANCH  12  13
ATOM     13  C   UNL     1      31.751  22.578  13.491  0.00  0.00    +0.208 C 
BRANCH  13  14
ATOM     14  C   UNL     1      31.724  23.714  12.491  0.00  0.00    +0.011 A 
ATOM     15  C   UNL     1      30.808  24.764  12.643  0.00  0.00    +0.010 A 
ATOM     16  C   UNL     1      30.778  25.804  11.723  0.00  0.00    +0.020 A 
ATOM     17  C   UNL     1      31.673  25.765  10.669  0.00  0.00    +0.111 A 
ATOM     18  N   UNL     1      32.569  24.772  10.480  0.00  0.00    -0.263 NA
ATOM     19  C   UNL     1      32.573  23.770  11.391  0.00  0.00    +0.118 A 
ENDBRANCH  13  14
BRANCH  13  20
ATOM     20  C   UNL     1      32.012  23.108  14.884  0.00  0.00    +0.034 C 
ATOM     21  C   UNL     1      33.338  23.726  15.274  0.00  0.00    +0.008 C 
ATOM     22  C   UNL     1      32.958  22.386  15.823  0.00  0.00    +0.008 C 
ENDBRANCH  13  20
ENDBRANCH  12  13
ENDBRANCH   5  12
TORSDOF 5
ENDMDL
MODEL 8
REMARK VINA RESULT:      -5.9      2.970      6.971
REMARK  Name = ZINC001228612316
REMARK  5 active torsions:
REMARK  status: ('A' for Active; 'I' for Inactive)
REMARK    1  A    between atoms: C_2  and  C_4
REMARK    2  A    between atoms: C_8  and  O_9
REMARK    3  A    between atoms: O_9  and  C_10
REMARK    4  A    between atoms: C_10  and  C_11
REMARK    5  A    between atoms: C_10  and  C_17
REMARK                            x       y       z     vdW  Elec       q    Type
REMARK                         _______ _______ _______ _____ _____    ______ ____
ROOT
ATOM      1  C   UNL     1      32.363  24.932  10.194  0.00  0.00    +0.040 A 
ATOM      2  C   UNL     1      31.551  26.043  10.429  0.00  0.00    +0.013 A 
ATOM      3  C   UNL     1      30.776  26.097  11.591  0.00  0.00    +0.004 A 
ATOM      4  C   UNL     1      30.825  25.048  12.516  0.00  0.00    +0.046 A 
ATOM      5  C   UNL     1      31.643  23.939  12.287  0.00  0.00    +0.122 A 
ATOM      6  C   UNL     1      32.383  23.876  11.111  0.00  0.00    +0.058 A 
ENDROOT
BRANCH   1   8
ATOM      7  N   UNL     1      33.487  25.932   8.276  0.00  0.00    -0.325 N 
ATOM      8  C   UNL     1      33.233  24.801   8.998  0.00  0.00    +0.242 C 
ATOM      9  O   UNL     1      33.760  23.736   8.699  0.00  0.00    -0.270 OA
ATOM     10  H   UNL     1      34.195  25.843   7.558  0.00  0.00    +0.145 HD
ATOM     11  H   UNL     1      33.305  26.855   8.642  0.00  0.00    +0.145 HD
ENDBRANCH   1   8
BRANCH   5  12
ATOM     12  O   UNL     1      31.628  22.972  13.255  0.00  0.00    -0.484 OA
BRANCH  12  13
ATOM     13  C   UNL     1      31.465  23.396  14.621  0.00  0.00    +0.208 C 
BRANCH  13  14
ATOM     14  C   UNL     1      30.289  22.660  15.227  0.00  0.00    +0.011 A 
ATOM     15  C   UNL     1      29.977  21.362  14.800  0.00  0.00    +0.010 A 
ATOM     16  C   UNL     1      28.894  20.687  15.350  0.00  0.00    +0.020 A 
ATOM     17  C   UNL     1      28.149  21.335  16.320  0.00  0.00    +0.111 A 
ATOM     18  N   UNL     1      28.410  22.586  16.757  0.00  0.00    -0.263 NA
ATOM     19  C   UNL     1      29.470  23.220  16.200  0.00  0.00    +0.118 A 
ENDBRANCH  13  14
BRANCH  13  20
ATOM     20  C   UNL     1      32.729  23.099  15.398  0.00  0.00    +0.034 C 
ATOM     21  C   UNL     1      32.983  23.679  16.774  0.00  0.00    +0.008 C 
ATOM     22  C   UNL     1      33.781  24.171  15.606  0.00  0.00    +0.008 C 
ENDBRANCH  13  20
ENDBRANCH  12  13
ENDBRANCH   5  12
TORSDOF 5
ENDMDL
MODEL 9
REMARK VINA RESULT:      -5.8      2.830      3.996
REMARK  Name = ZINC001228612316
REMARK  5 active torsions:
REMARK  status: ('A' for Active; 'I' for Inactive)
REMARK    1  A    between atoms: C_2  and  C_4
REMARK    2  A    between atoms: C_8  and  O_9
REMARK    3  A    between atoms: O_9  and  C_10
REMARK    4  A    between atoms: C_10  and  C_11
REMARK    5  A    between atoms: C_10  and  C_17
REMARK                            x       y       z     vdW  Elec       q    Type
REMARK                         _______ _______ _______ _____ _____    ______ ____
ROOT
ATOM      1  C   UNL     1      28.332  22.378  17.370  0.00  0.00    +0.040 A 
ATOM      2  C   UNL     1      28.822  22.683  18.643  0.00  0.00    +0.013 A 
ATOM      3  C   UNL     1      30.109  23.211  18.777  0.00  0.00    +0.004 A 
ATOM      4  C   UNL     1      30.895  23.440  17.644  0.00  0.00    +0.046 A 
ATOM      5  C   UNL     1      30.405  23.144  16.369  0.00  0.00    +0.122 A 
ATOM      6  C   UNL     1      29.137  22.585  16.246  0.00  0.00    +0.058 A 
ENDROOT
BRANCH   1   8
ATOM      7  N   UNL     1      26.824  20.477  17.145  0.00  0.00    -0.325 N 
ATOM      8  C   UNL     1      26.971  21.834  17.134  0.00  0.00    +0.242 C 
ATOM      9  O   UNL     1      26.000  22.569  16.997  0.00  0.00    -0.270 OA
ATOM     10  H   UNL     1      25.869  20.140  17.128  0.00  0.00    +0.145 HD
ATOM     11  H   UNL     1      27.529  19.862  17.525  0.00  0.00    +0.145 HD
ENDBRANCH   1   8
BRANCH   5  12
ATOM     12  O   UNL     1      31.246  23.415  15.325  0.00  0.00    -0.484 OA
BRANCH  12  13
ATOM     13  C   UNL     1      31.048  22.683  14.100  0.00  0.00    +0.208 C 
BRANCH  13  14
ATOM     14  C   UNL     1      31.524  23.531  12.940  0.00  0.00    +0.011 A 
ATOM     15  C   UNL     1      30.685  24.511  12.393  0.00  0.00    +0.010 A 
ATOM     16  C   UNL     1      31.118  25.285  11.324  0.00  0.00    +0.020 A 
ATOM     17  C   UNL     1      32.389  25.056  10.830  0.00  0.00    +0.111 A 
ATOM     18  N   UNL     1      33.230  24.120  11.321  0.00  0.00    -0.263 NA
ATOM     19  C   UNL     1      32.779  23.378  12.361  0.00  0.00    +0.118 A 
ENDBRANCH  13  14
BRANCH  13  20
ATOM     20  C   UNL     1      31.821  21.384  14.155  0.00  0.00    +0.034 C 
ATOM     21  C   UNL     1      31.637  20.294  13.120  0.00  0.00    +0.008 C 
ATOM     22  C   UNL     1      31.126  20.084  14.512  0.00  0.00    +0.008 C 
ENDBRANCH  13  20
ENDBRANCH  12  13
ENDBRANCH   5  12
TORSDOF 5
ENDMDL
