MODEL 1
REMARK VINA RESULT:      -6.8      0.000      0.000
REMARK  Name = ZINC000560333501
REMARK  5 active torsions:
REMARK  status: ('A' for Active; 'I' for Inactive)
REMARK    1  A    between atoms: C_2  and  C_3
REMARK    2  A    between atoms: C_7  and  C_8
REMARK    3  A    between atoms: C_8  and  C_9
REMARK    4  A    between atoms: N_11  and  C_12
REMARK    5  A    between atoms: C_12  and  C_13
REMARK                            x       y       z     vdW  Elec       q    Type
REMARK                         _______ _______ _______ _____ _____    ______ ____
ROOT
ATOM      1  C   UNL     1      28.945  22.680  17.925  0.00  0.00    +0.217 C 
ATOM      2  O   UNL     1      29.066  22.160  19.037  0.00  0.00    -0.275 OA
ATOM      3  N   UNL     1      29.801  23.659  17.450  0.00  0.00    -0.315 N 
ATOM      4  H   UNL     1      29.802  23.796  16.446  0.00  0.00    +0.149 HD
ENDROOT
BRANCH   1   5
ATOM      5  C   UNL     1      27.826  22.272  16.996  0.00  0.00    +0.131 C 
BRANCH   5  10
ATOM      6  C   UNL     1      29.033  18.919  15.580  0.00  0.00    +0.052 A 
ATOM      7  C   UNL     1      27.935  18.100  15.863  0.00  0.00    +0.019 A 
ATOM      8  C   UNL     1      26.808  18.637  16.483  0.00  0.00    +0.002 A 
ATOM      9  C   UNL     1      26.770  19.992  16.819  0.00  0.00    +0.004 A 
ATOM     10  C   UNL     1      27.858  20.830  16.537  0.00  0.00    -0.037 A 
ATOM     11  C   UNL     1      28.995  20.278  15.922  0.00  0.00    +0.023 A 
BRANCH   6  13
ATOM     12  N   UNL     1      31.140  17.902  14.459  0.00  0.00    -0.191 NA
ATOM     13  C   UNL     1      30.199  18.362  14.960  0.00  0.00    +0.099 C 
ENDBRANCH   6  13
ENDBRANCH   5  10
ENDBRANCH   1   5
BRANCH   3  14
ATOM     14  C   UNL     1      31.066  23.855  18.136  0.00  0.00    +0.108 C 
BRANCH  14  15
ATOM     15  C   UNL     1      32.340  23.705  17.284  0.00  0.00    +0.011 C 
ATOM     16  C   UNL     1      32.307  22.503  16.344  0.00  0.00    +0.033 C 
ATOM     17  C   UNL     1      32.171  21.209  17.133  0.00  0.00    +0.161 C 
ATOM     18  O   UNL     1      33.086  21.101  18.221  0.00  0.00    -0.373 OA
ATOM     19  C   UNL     1      33.445  22.255  19.035  0.00  0.00    +0.070 C 
ATOM     20  C   UNL     1      32.674  22.484  20.381  0.00  0.00    +0.035 C 
ATOM     21  C   UNL     1      33.701  21.590  21.076  0.00  0.00    +0.006 C 
ATOM     22  C   UNL     1      34.683  21.943  19.943  0.00  0.00    +0.035 C 
ATOM     23  C   UNL     1      33.582  23.522  18.182  0.00  0.00    +0.040 C 
ENDBRANCH  14  15
ENDBRANCH   3  14
TORSDOF 5
ENDMDL
MODEL 2
REMARK VINA RESULT:      -6.8      2.192      3.450
REMARK  Name = ZINC000560333501
REMARK  5 active torsions:
REMARK  status: ('A' for Active; 'I' for Inactive)
REMARK    1  A    between atoms: C_2  and  C_3
REMARK    2  A    between atoms: C_7  and  C_8
REMARK    3  A    between atoms: C_8  and  C_9
REMARK    4  A    between atoms: N_11  and  C_12
REMARK    5  A    between atoms: C_12  and  C_13
REMARK                            x       y       z     vdW  Elec       q    Type
REMARK                         _______ _______ _______ _____ _____    ______ ____
ROOT
ATOM      1  C   UNL     1      27.139  20.185  16.687  0.00  0.00    +0.217 C 
ATOM      2  O   UNL     1      26.272  20.786  17.328  0.00  0.00    -0.275 OA
ATOM      3  N   UNL     1      28.262  20.805  16.167  0.00  0.00    -0.315 N 
ATOM      4  H   UNL     1      29.035  20.195  15.931  0.00  0.00    +0.149 HD
ENDROOT
BRANCH   1   5
ATOM      5  C   UNL     1      27.020  18.702  16.424  0.00  0.00    +0.131 C 
BRANCH   5  10
ATOM      6  C   UNL     1      30.079  16.803  15.106  0.00  0.00    +0.052 A 
ATOM      7  C   UNL     1      30.855  16.709  16.267  0.00  0.00    +0.019 A 
ATOM      8  C   UNL     1      30.377  17.234  17.467  0.00  0.00    +0.002 A 
ATOM      9  C   UNL     1      29.125  17.850  17.514  0.00  0.00    +0.004 A 
ATOM     10  C   UNL     1      28.331  17.948  16.363  0.00  0.00    -0.037 A 
ATOM     11  C   UNL     1      28.824  17.426  15.156  0.00  0.00    +0.023 A 
BRANCH   6  13
ATOM     12  N   UNL     1      30.980  15.850  12.868  0.00  0.00    -0.191 NA
ATOM     13  C   UNL     1      30.580  16.280  13.869  0.00  0.00    +0.099 C 
ENDBRANCH   6  13
ENDBRANCH   5  10
ENDBRANCH   1   5
BRANCH   3  14
ATOM     14  C   UNL     1      28.601  22.129  16.655  0.00  0.00    +0.108 C 
BRANCH  14  15
ATOM     15  C   UNL     1      29.161  22.210  18.088  0.00  0.00    +0.011 C 
ATOM     16  C   UNL     1      29.795  23.558  18.420  0.00  0.00    +0.033 C 
ATOM     17  C   UNL     1      30.966  23.844  17.492  0.00  0.00    +0.161 C 
ATOM     18  O   UNL     1      31.882  22.758  17.374  0.00  0.00    -0.373 OA
ATOM     19  C   UNL     1      31.428  21.374  17.343  0.00  0.00    +0.070 C 
ATOM     20  C   UNL     1      31.233  20.686  15.948  0.00  0.00    +0.035 C 
ATOM     21  C   UNL     1      32.704  20.272  15.990  0.00  0.00    +0.006 C 
ATOM     22  C   UNL     1      32.626  20.382  17.525  0.00  0.00    +0.035 C 
ATOM     23  C   UNL     1      30.258  21.147  18.309  0.00  0.00    +0.040 C 
ENDBRANCH  14  15
ENDBRANCH   3  14
TORSDOF 5
ENDMDL
MODEL 3
REMARK VINA RESULT:      -6.8      2.941      4.757
REMARK  Name = ZINC000560333501
REMARK  5 active torsions:
REMARK  status: ('A' for Active; 'I' for Inactive)
REMARK    1  A    between atoms: C_2  and  C_3
REMARK    2  A    between atoms: C_7  and  C_8
REMARK    3  A    between atoms: C_8  and  C_9
REMARK    4  A    between atoms: N_11  and  C_12
REMARK    5  A    between atoms: C_12  and  C_13
REMARK                            x       y       z     vdW  Elec       q    Type
REMARK                         _______ _______ _______ _____ _____    ______ ____
ROOT
ATOM      1  C   UNL     1      28.229  17.364  16.017  0.00  0.00    +0.217 C 
ATOM      2  O   UNL     1      29.218  17.059  16.689  0.00  0.00    -0.275 OA
ATOM      3  N   UNL     1      27.581  18.582  16.132  0.00  0.00    -0.315 N 
ATOM      4  H   UNL     1      26.992  18.845  15.352  0.00  0.00    +0.149 HD
ENDROOT
BRANCH   1   5
ATOM      5  C   UNL     1      27.652  16.401  15.007  0.00  0.00    +0.131 C 
BRANCH   5  10
ATOM      6  C   UNL     1      30.802  15.765  12.915  0.00  0.00    +0.052 A 
ATOM      7  C   UNL     1      30.248  15.183  11.768  0.00  0.00    +0.019 A 
ATOM      8  C   UNL     1      28.867  15.023  11.668  0.00  0.00    +0.002 A 
ATOM      9  C   UNL     1      28.034  15.446  12.707  0.00  0.00    +0.004 A 
ATOM     10  C   UNL     1      28.570  16.037  13.859  0.00  0.00    -0.037 A 
ATOM     11  C   UNL     1      29.964  16.185  13.957  0.00  0.00    +0.023 A 
BRANCH   6  13
ATOM     12  N   UNL     1      33.376  16.021  13.112  0.00  0.00    -0.191 NA
ATOM     13  C   UNL     1      32.224  15.911  13.025  0.00  0.00    +0.099 C 
ENDBRANCH   6  13
ENDBRANCH   5  10
ENDBRANCH   1   5
BRANCH   3  14
ATOM     14  C   UNL     1      28.265  19.659  16.826  0.00  0.00    +0.108 C 
BRANCH  14  15
ATOM     15  C   UNL     1      28.275  21.030  16.124  0.00  0.00    +0.011 C 
ATOM     16  C   UNL     1      29.210  21.092  14.919  0.00  0.00    +0.033 C 
ATOM     17  C   UNL     1      30.647  20.821  15.339  0.00  0.00    +0.161 C 
ATOM     18  O   UNL     1      31.066  21.582  16.469  0.00  0.00    -0.373 OA
ATOM     19  C   UNL     1      30.167  21.859  17.581  0.00  0.00    +0.070 C 
ATOM     20  C   UNL     1      30.229  20.924  18.839  0.00  0.00    +0.035 C 
ATOM     21  C   UNL     1      31.321  21.828  19.410  0.00  0.00    +0.006 C 
ATOM     22  C   UNL     1      30.759  22.959  18.527  0.00  0.00    +0.035 C 
ATOM     23  C   UNL     1      28.740  22.138  17.092  0.00  0.00    +0.040 C 
ENDBRANCH  14  15
ENDBRANCH   3  14
TORSDOF 5
ENDMDL
MODEL 4
REMARK VINA RESULT:      -6.7      2.454      4.002
REMARK  Name = ZINC000560333501
REMARK  5 active torsions:
REMARK  status: ('A' for Active; 'I' for Inactive)
REMARK    1  A    between atoms: C_2  and  C_3
REMARK    2  A    between atoms: C_7  and  C_8
REMARK    3  A    between atoms: C_8  and  C_9
REMARK    4  A    between atoms: N_11  and  C_12
REMARK    5  A    between atoms: C_12  and  C_13
REMARK                            x       y       z     vdW  Elec       q    Type
REMARK                         _______ _______ _______ _____ _____    ______ ____
ROOT
ATOM      1  C   UNL     1      28.439  18.339  16.548  0.00  0.00    +0.217 C 
ATOM      2  O   UNL     1      29.144  18.013  17.507  0.00  0.00    -0.275 OA
ATOM      3  N   UNL     1      28.284  19.651  16.134  0.00  0.00    -0.315 N 
ATOM      4  H   UNL     1      27.945  19.779  15.188  0.00  0.00    +0.149 HD
ENDROOT
BRANCH   1   5
ATOM      5  C   UNL     1      27.683  17.301  15.754  0.00  0.00    +0.131 C 
BRANCH   5  10
ATOM      6  C   UNL     1      30.580  15.999  13.607  0.00  0.00    +0.052 A 
ATOM      7  C   UNL     1      29.888  15.239  12.657  0.00  0.00    +0.019 A 
ATOM      8  C   UNL     1      28.496  15.172  12.701  0.00  0.00    +0.002 A 
ATOM      9  C   UNL     1      27.791  15.865  13.687  0.00  0.00    +0.004 A 
ATOM     10  C   UNL     1      28.467  16.637  14.642  0.00  0.00    -0.037 A 
ATOM     11  C   UNL     1      29.870  16.691  14.598  0.00  0.00    +0.023 A 
BRANCH   6  13
ATOM     12  N   UNL     1      33.173  16.087  13.547  0.00  0.00    -0.191 NA
ATOM     13  C   UNL     1      32.012  16.052  13.572  0.00  0.00    +0.099 C 
ENDBRANCH   6  13
ENDBRANCH   5  10
ENDBRANCH   1   5
BRANCH   3  14
ATOM     14  C   UNL     1      29.223  20.641  16.629  0.00  0.00    +0.108 C 
BRANCH  14  15
ATOM     15  C   UNL     1      28.770  21.468  17.847  0.00  0.00    +0.011 C 
ATOM     16  C   UNL     1      28.627  22.959  17.553  0.00  0.00    +0.033 C 
ATOM     17  C   UNL     1      29.959  23.549  17.113  0.00  0.00    +0.161 C 
ATOM     18  O   UNL     1      31.048  23.203  17.964  0.00  0.00    -0.373 OA
ATOM     19  C   UNL     1      31.158  21.881  18.566  0.00  0.00    +0.070 C 
ATOM     20  C   UNL     1      32.051  20.809  17.850  0.00  0.00    +0.035 C 
ATOM     21  C   UNL     1      33.250  21.339  18.635  0.00  0.00    +0.006 C 
ATOM     22  C   UNL     1      32.252  21.859  19.687  0.00  0.00    +0.035 C 
ATOM     23  C   UNL     1      29.787  21.348  19.001  0.00  0.00    +0.040 C 
ENDBRANCH  14  15
ENDBRANCH   3  14
TORSDOF 5
ENDMDL
MODEL 5
REMARK VINA RESULT:      -6.7      4.302      6.965
REMARK  Name = ZINC000560333501
REMARK  5 active torsions:
REMARK  status: ('A' for Active; 'I' for Inactive)
REMARK    1  A    between atoms: C_2  and  C_3
REMARK    2  A    between atoms: C_7  and  C_8
REMARK    3  A    between atoms: C_8  and  C_9
REMARK    4  A    between atoms: N_11  and  C_12
REMARK    5  A    between atoms: C_12  and  C_13
REMARK                            x       y       z     vdW  Elec       q    Type
REMARK                         _______ _______ _______ _____ _____    ______ ____
ROOT
ATOM      1  C   UNL     1      31.339  22.177  13.898  0.00  0.00    +0.217 C 
ATOM      2  O   UNL     1      31.671  21.036  13.565  0.00  0.00    -0.275 OA
ATOM      3  N   UNL     1      30.073  22.492  14.361  0.00  0.00    -0.315 N 
ATOM      4  H   UNL     1      29.995  23.359  14.879  0.00  0.00    +0.149 HD
ENDROOT
BRANCH   1   5
ATOM      5  C   UNL     1      32.318  23.324  13.813  0.00  0.00    +0.131 C 
BRANCH   5  10
ATOM      6  C   UNL     1      33.387  24.012  10.196  0.00  0.00    +0.052 A 
ATOM      7  C   UNL     1      32.536  25.072   9.863  0.00  0.00    +0.019 A 
ATOM      8  C   UNL     1      31.644  25.571  10.811  0.00  0.00    +0.002 A 
ATOM      9  C   UNL     1      31.601  25.020  12.093  0.00  0.00    +0.004 A 
ATOM     10  C   UNL     1      32.451  23.962  12.447  0.00  0.00    -0.037 A 
ATOM     11  C   UNL     1      33.340  23.458  11.483  0.00  0.00    +0.023 A 
BRANCH   6  13
ATOM     12  N   UNL     1      35.019  23.067   8.414  0.00  0.00    -0.191 NA
ATOM     13  C   UNL     1      34.290  23.487   9.215  0.00  0.00    +0.099 C 
ENDBRANCH   6  13
ENDBRANCH   5  10
ENDBRANCH   1   5
BRANCH   3  14
ATOM     14  C   UNL     1      29.205  21.405  14.776  0.00  0.00    +0.108 C 
BRANCH  14  15
ATOM     15  C   UNL     1      28.595  21.512  16.186  0.00  0.00    +0.011 C 
ATOM     16  C   UNL     1      29.636  21.674  17.290  0.00  0.00    +0.033 C 
ATOM     17  C   UNL     1      30.572  20.476  17.325  0.00  0.00    +0.161 C 
ATOM     18  O   UNL     1      29.897  19.220  17.310  0.00  0.00    -0.373 OA
ATOM     19  C   UNL     1      28.694  19.008  16.515  0.00  0.00    +0.070 C 
ATOM     20  C   UNL     1      28.846  18.359  15.096  0.00  0.00    +0.035 C 
ATOM     21  C   UNL     1      28.733  16.984  15.755  0.00  0.00    +0.006 C 
ATOM     22  C   UNL     1      27.983  17.670  16.913  0.00  0.00    +0.035 C 
ATOM     23  C   UNL     1      27.786  20.244  16.532  0.00  0.00    +0.040 C 
ENDBRANCH  14  15
ENDBRANCH   3  14
TORSDOF 5
ENDMDL
MODEL 6
REMARK VINA RESULT:      -6.7      3.003      4.730
REMARK  Name = ZINC000560333501
REMARK  5 active torsions:
REMARK  status: ('A' for Active; 'I' for Inactive)
REMARK    1  A    between atoms: C_2  and  C_3
REMARK    2  A    between atoms: C_7  and  C_8
REMARK    3  A    between atoms: C_8  and  C_9
REMARK    4  A    between atoms: N_11  and  C_12
REMARK    5  A    between atoms: C_12  and  C_13
REMARK                            x       y       z     vdW  Elec       q    Type
REMARK                         _______ _______ _______ _____ _____    ______ ____
ROOT
ATOM      1  C   UNL     1      28.555  17.185  16.131  0.00  0.00    +0.217 C 
ATOM      2  O   UNL     1      28.974  16.453  17.032  0.00  0.00    -0.275 OA
ATOM      3  N   UNL     1      28.743  18.556  16.121  0.00  0.00    -0.315 N 
ATOM      4  H   UNL     1      28.634  19.011  15.223  0.00  0.00    +0.149 HD
ENDROOT
BRANCH   1   5
ATOM      5  C   UNL     1      27.790  16.613  14.961  0.00  0.00    +0.131 C 
BRANCH   5  10
ATOM      6  C   UNL     1      30.809  15.526  12.862  0.00  0.00    +0.052 A 
ATOM      7  C   UNL     1      30.172  14.977  11.743  0.00  0.00    +0.019 A 
ATOM      8  C   UNL     1      28.780  14.984  11.663  0.00  0.00    +0.002 A 
ATOM      9  C   UNL     1      28.020  15.540  12.693  0.00  0.00    +0.004 A 
ATOM     10  C   UNL     1      28.641  16.101  13.819  0.00  0.00    -0.037 A 
ATOM     11  C   UNL     1      30.043  16.081  13.897  0.00  0.00    +0.023 A 
BRANCH   6  13
ATOM     12  N   UNL     1      33.398  15.490  13.022  0.00  0.00    -0.191 NA
ATOM     13  C   UNL     1      32.239  15.502  12.952  0.00  0.00    +0.099 C 
ENDBRANCH   6  13
ENDBRANCH   5  10
ENDBRANCH   1   5
BRANCH   3  14
ATOM     14  C   UNL     1      29.735  19.119  17.020  0.00  0.00    +0.108 C 
BRANCH  14  15
ATOM     15  C   UNL     1      29.208  20.055  18.124  0.00  0.00    +0.011 C 
ATOM     16  C   UNL     1      28.424  21.249  17.589  0.00  0.00    +0.033 C 
ATOM     17  C   UNL     1      29.300  22.107  16.689  0.00  0.00    +0.161 C 
ATOM     18  O   UNL     1      30.569  22.423  17.258  0.00  0.00    -0.373 OA
ATOM     19  C   UNL     1      31.310  21.457  18.059  0.00  0.00    +0.070 C 
ATOM     20  C   UNL     1      32.418  20.601  17.354  0.00  0.00    +0.035 C 
ATOM     21  C   UNL     1      33.418  21.717  17.655  0.00  0.00    +0.006 C 
ATOM     22  C   UNL     1      32.498  22.143  18.815  0.00  0.00    +0.035 C 
ATOM     23  C   UNL     1      30.373  20.635  18.953  0.00  0.00    +0.040 C 
ENDBRANCH  14  15
ENDBRANCH   3  14
TORSDOF 5
ENDMDL
MODEL 7
REMARK VINA RESULT:      -6.7      2.710      4.658
REMARK  Name = ZINC000560333501
REMARK  5 active torsions:
REMARK  status: ('A' for Active; 'I' for Inactive)
REMARK    1  A    between atoms: C_2  and  C_3
REMARK    2  A    between atoms: C_7  and  C_8
REMARK    3  A    between atoms: C_8  and  C_9
REMARK    4  A    between atoms: N_11  and  C_12
REMARK    5  A    between atoms: C_12  and  C_13
REMARK                            x       y       z     vdW  Elec       q    Type
REMARK                         _______ _______ _______ _____ _____    ______ ____
ROOT
ATOM      1  C   UNL     1      27.982  18.290  16.489  0.00  0.00    +0.217 C 
ATOM      2  O   UNL     1      26.843  18.763  16.456  0.00  0.00    -0.275 OA
ATOM      3  N   UNL     1      29.116  19.059  16.686  0.00  0.00    -0.315 N 
ATOM      4  H   UNL     1      29.942  18.559  16.992  0.00  0.00    +0.149 HD
ENDROOT
BRANCH   1   5
ATOM      5  C   UNL     1      28.212  16.808  16.307  0.00  0.00    +0.131 C 
BRANCH   5  10
ATOM      6  C   UNL     1      30.241  15.861  13.194  0.00  0.00    +0.052 A 
ATOM      7  C   UNL     1      29.229  15.401  12.345  0.00  0.00    +0.019 A 
ATOM      8  C   UNL     1      27.901  15.422  12.771  0.00  0.00    +0.002 A 
ATOM      9  C   UNL     1      27.580  15.905  14.041  0.00  0.00    +0.004 A 
ATOM     10  C   UNL     1      28.580  16.377  14.903  0.00  0.00    -0.037 A 
ATOM     11  C   UNL     1      29.916  16.343  14.470  0.00  0.00    +0.023 A 
BRANCH   6  13
ATOM     12  N   UNL     1      32.714  15.797  12.413  0.00  0.00    -0.191 NA
ATOM     13  C   UNL     1      31.608  15.821  12.762  0.00  0.00    +0.099 C 
ENDBRANCH   6  13
ENDBRANCH   5  10
ENDBRANCH   1   5
BRANCH   3  14
ATOM     14  C   UNL     1      28.948  20.410  17.191  0.00  0.00    +0.108 C 
BRANCH  14  15
ATOM     15  C   UNL     1      30.108  20.979  18.030  0.00  0.00    +0.011 C 
ATOM     16  C   UNL     1      29.737  22.238  18.808  0.00  0.00    +0.033 C 
ATOM     17  C   UNL     1      29.314  23.351  17.861  0.00  0.00    +0.161 C 
ATOM     18  O   UNL     1      30.218  23.555  16.778  0.00  0.00    -0.373 OA
ATOM     19  C   UNL     1      30.888  22.440  16.120  0.00  0.00    +0.070 C 
ATOM     20  C   UNL     1      30.255  21.864  14.806  0.00  0.00    +0.035 C 
ATOM     21  C   UNL     1      31.054  22.898  14.013  0.00  0.00    +0.006 C 
ATOM     22  C   UNL     1      32.045  22.944  15.192  0.00  0.00    +0.035 C 
ATOM     23  C   UNL     1      31.301  21.361  17.128  0.00  0.00    +0.040 C 
ENDBRANCH  14  15
ENDBRANCH   3  14
TORSDOF 5
ENDMDL
MODEL 8
REMARK VINA RESULT:      -6.6      3.051      5.424
REMARK  Name = ZINC000560333501
REMARK  5 active torsions:
REMARK  status: ('A' for Active; 'I' for Inactive)
REMARK    1  A    between atoms: C_2  and  C_3
REMARK    2  A    between atoms: C_7  and  C_8
REMARK    3  A    between atoms: C_8  and  C_9
REMARK    4  A    between atoms: N_11  and  C_12
REMARK    5  A    between atoms: C_12  and  C_13
REMARK                            x       y       z     vdW  Elec       q    Type
REMARK                         _______ _______ _______ _____ _____    ______ ____
ROOT
ATOM      1  C   UNL     1      28.713  17.026  15.969  0.00  0.00    +0.217 C 
ATOM      2  O   UNL     1      28.864  16.269  16.932  0.00  0.00    -0.275 OA
ATOM      3  N   UNL     1      29.214  18.316  15.935  0.00  0.00    -0.315 N 
ATOM      4  H   UNL     1      29.299  18.733  15.016  0.00  0.00    +0.149 HD
ENDROOT
BRANCH   1   5
ATOM      5  C   UNL     1      27.951  16.579  14.744  0.00  0.00    +0.131 C 
BRANCH   5  10
ATOM      6  C   UNL     1      30.956  15.326  12.718  0.00  0.00    +0.052 A 
ATOM      7  C   UNL     1      30.314  14.772  11.605  0.00  0.00    +0.019 A 
ATOM      8  C   UNL     1      28.925  14.827  11.504  0.00  0.00    +0.002 A 
ATOM      9  C   UNL     1      28.172  15.438  12.509  0.00  0.00    +0.004 A 
ATOM     10  C   UNL     1      28.798  16.006  13.628  0.00  0.00    -0.037 A 
ATOM     11  C   UNL     1      30.198  15.937  13.727  0.00  0.00    +0.023 A 
BRANCH   6  13
ATOM     12  N   UNL     1      33.539  15.197  12.915  0.00  0.00    -0.191 NA
ATOM     13  C   UNL     1      32.383  15.252  12.830  0.00  0.00    +0.099 C 
ENDBRANCH   6  13
ENDBRANCH   5  10
ENDBRANCH   1   5
BRANCH   3  14
ATOM     14  C   UNL     1      30.219  18.688  16.915  0.00  0.00    +0.108 C 
BRANCH  14  15
ATOM     15  C   UNL     1      31.018  19.973  16.626  0.00  0.00    +0.011 C 
ATOM     16  C   UNL     1      31.749  20.524  17.847  0.00  0.00    +0.033 C 
ATOM     17  C   UNL     1      30.762  20.878  18.949  0.00  0.00    +0.161 C 
ATOM     18  O   UNL     1      29.659  21.662  18.501  0.00  0.00    -0.373 OA
ATOM     19  C   UNL     1      29.039  21.437  17.202  0.00  0.00    +0.070 C 
ATOM     20  C   UNL     1      27.758  20.534  17.136  0.00  0.00    +0.035 C 
ATOM     21  C   UNL     1      26.913  21.781  17.398  0.00  0.00    +0.006 C 
ATOM     22  C   UNL     1      28.075  22.613  16.824  0.00  0.00    +0.035 C 
ATOM     23  C   UNL     1      30.085  21.099  16.132  0.00  0.00    +0.040 C 
ENDBRANCH  14  15
ENDBRANCH   3  14
TORSDOF 5
ENDMDL
MODEL 9
REMARK VINA RESULT:      -6.6      2.997      4.607
REMARK  Name = ZINC000560333501
REMARK  5 active torsions:
REMARK  status: ('A' for Active; 'I' for Inactive)
REMARK    1  A    between atoms: C_2  and  C_3
REMARK    2  A    between atoms: C_7  and  C_8
REMARK    3  A    between atoms: C_8  and  C_9
REMARK    4  A    between atoms: N_11  and  C_12
REMARK    5  A    between atoms: C_12  and  C_13
REMARK                            x       y       z     vdW  Elec       q    Type
REMARK                         _______ _______ _______ _____ _____    ______ ____
ROOT
ATOM      1  C   UNL     1      29.030  21.991  16.564  0.00  0.00    +0.217 C 
ATOM      2  O   UNL     1      29.341  22.676  17.541  0.00  0.00    -0.275 OA
ATOM      3  N   UNL     1      29.628  22.127  15.322  0.00  0.00    -0.315 N 
ATOM      4  H   UNL     1      29.523  21.341  14.692  0.00  0.00    +0.149 HD
ENDROOT
BRANCH   1   5
ATOM      5  C   UNL     1      27.950  20.941  16.666  0.00  0.00    +0.131 C 
BRANCH   5  10
ATOM      6  C   UNL     1      28.488  17.230  15.864  0.00  0.00    +0.052 A 
ATOM      7  C   UNL     1      29.512  16.908  16.762  0.00  0.00    +0.019 A 
ATOM      8  C   UNL     1      30.003  17.880  17.633  0.00  0.00    +0.002 A 
ATOM      9  C   UNL     1      29.472  19.172  17.615  0.00  0.00    +0.004 A 
ATOM     10  C   UNL     1      28.441  19.510  16.727  0.00  0.00    -0.037 A 
ATOM     11  C   UNL     1      27.959  18.528  15.845  0.00  0.00    +0.023 A 
BRANCH   6  13
ATOM     12  N   UNL     1      27.600  15.435  14.215  0.00  0.00    -0.191 NA
ATOM     13  C   UNL     1      27.997  16.235  14.956  0.00  0.00    +0.099 C 
ENDBRANCH   6  13
ENDBRANCH   5  10
ENDBRANCH   1   5
BRANCH   3  14
ATOM     14  C   UNL     1      30.875  22.867  15.240  0.00  0.00    +0.108 C 
BRANCH  14  15
ATOM     15  C   UNL     1      32.112  22.077  14.773  0.00  0.00    +0.011 C 
ATOM     16  C   UNL     1      33.412  22.538  15.426  0.00  0.00    +0.033 C 
ATOM     17  C   UNL     1      33.692  23.996  15.095  0.00  0.00    +0.161 C 
ATOM     18  O   UNL     1      33.570  24.303  13.708  0.00  0.00    -0.373 OA
ATOM     19  C   UNL     1      32.538  23.695  12.878  0.00  0.00    +0.070 C 
ATOM     20  C   UNL     1      31.209  24.493  12.641  0.00  0.00    +0.035 C 
ATOM     21  C   UNL     1      31.872  25.165  11.439  0.00  0.00    +0.006 C 
ATOM     22  C   UNL     1      32.814  23.948  11.356  0.00  0.00    +0.035 C 
ATOM     23  C   UNL     1      32.314  22.223  13.250  0.00  0.00    +0.040 C 
ENDBRANCH  14  15
ENDBRANCH   3  14
TORSDOF 5
ENDMDL
