MODEL 1
REMARK VINA RESULT:      -7.1      0.000      0.000
REMARK  Name = ZINC000583127796
REMARK  2 active torsions:
REMARK  status: ('A' for Active; 'I' for Inactive)
REMARK    1  A    between atoms: C_2  and  C_4
REMARK    2  A    between atoms: C_7  and  C_8
REMARK                            x       y       z     vdW  Elec       q    Type
REMARK                         _______ _______ _______ _____ _____    ______ ____
ROOT
ATOM      1  C   UNL     1      33.732  17.757  13.660  0.00  0.00    +0.247 C 
ATOM      2  O   UNL     1      34.588  17.845  12.781  0.00  0.00    -0.270 OA
ATOM      3  N   UNL     1      33.571  18.727  14.663  0.00  0.00    -0.297 N 
ATOM      4  C   UNL     1      32.580  18.709  15.741  0.00  0.00    +0.108 C 
ATOM      5  C   UNL     1      31.744  19.976  15.780  0.00  0.00    +0.020 C 
ATOM      6  C   UNL     1      32.615  21.219  15.770  0.00  0.00    +0.011 C 
ATOM      7  C   UNL     1      33.643  21.226  14.612  0.00  0.00    -0.004 C 
ATOM      8  C   UNL     1      34.535  22.471  14.808  0.00  0.00    +0.020 C 
ATOM      9  C   UNL     1      35.142  22.881  13.483  0.00  0.00    +0.070 C 
ATOM     10  S   UNL     1      33.802  22.664  12.301  0.00  0.00    -0.160 S 
ATOM     11  C   UNL     1      32.943  21.371  13.240  0.00  0.00    +0.077 C 
ATOM     12  C   UNL     1      34.457  19.903  14.660  0.00  0.00    +0.115 C 
ENDROOT
BRANCH   1  16
ATOM     13  C   UNL     1      31.303  14.244  13.418  0.00  0.00    +0.037 A 
ATOM     14  C   UNL     1      31.503  15.016  12.269  0.00  0.00    +0.014 A 
ATOM     15  C   UNL     1      32.196  16.226  12.355  0.00  0.00    +0.014 A 
ATOM     16  C   UNL     1      32.779  16.616  13.565  0.00  0.00    +0.037 A 
ATOM     17  C   UNL     1      32.489  15.896  14.733  0.00  0.00    +0.014 A 
ATOM     18  C   UNL     1      31.742  14.718  14.660  0.00  0.00    +0.014 A 
BRANCH  13  20
ATOM     19  N   UNL     1      30.242  12.488  12.114  0.00  0.00    -0.325 N 
ATOM     20  C   UNL     1      30.633  12.920  13.350  0.00  0.00    +0.242 C 
ATOM     21  O   UNL     1      30.487  12.227  14.345  0.00  0.00    -0.270 OA
ATOM     22  H   UNL     1      29.906  11.533  12.066  0.00  0.00    +0.145 HD
ATOM     23  H   UNL     1      30.595  12.900  11.262  0.00  0.00    +0.145 HD
ENDBRANCH  13  20
ENDBRANCH   1  16
TORSDOF 2
ENDMDL
MODEL 2
REMARK VINA RESULT:      -6.9      2.148      2.436
REMARK  Name = ZINC000583127796
REMARK  2 active torsions:
REMARK  status: ('A' for Active; 'I' for Inactive)
REMARK    1  A    between atoms: C_2  and  C_4
REMARK    2  A    between atoms: C_7  and  C_8
REMARK                            x       y       z     vdW  Elec       q    Type
REMARK                         _______ _______ _______ _____ _____    ______ ____
ROOT
ATOM      1  C   UNL     1      33.830  17.534  15.707  0.00  0.00    +0.247 C 
ATOM      2  O   UNL     1      34.927  17.071  16.015  0.00  0.00    -0.270 OA
ATOM      3  N   UNL     1      33.358  18.760  16.202  0.00  0.00    -0.297 N 
ATOM      4  C   UNL     1      32.074  19.391  15.886  0.00  0.00    +0.108 C 
ATOM      5  C   UNL     1      32.238  20.808  15.365  0.00  0.00    +0.020 C 
ATOM      6  C   UNL     1      33.120  21.639  16.278  0.00  0.00    +0.011 C 
ATOM      7  C   UNL     1      34.479  20.963  16.584  0.00  0.00    -0.004 C 
ATOM      8  C   UNL     1      35.202  21.852  17.618  0.00  0.00    +0.020 C 
ATOM      9  C   UNL     1      36.696  21.621  17.537  0.00  0.00    +0.070 C 
ATOM     10  S   UNL     1      37.025  21.498  15.772  0.00  0.00    -0.160 S 
ATOM     11  C   UNL     1      35.371  20.900  15.324  0.00  0.00    +0.077 C 
ATOM     12  C   UNL     1      34.212  19.529  17.122  0.00  0.00    +0.115 C 
ENDROOT
BRANCH   1  16
ATOM     13  C   UNL     1      31.800  15.086  12.846  0.00  0.00    +0.037 A 
ATOM     14  C   UNL     1      32.637  16.112  12.394  0.00  0.00    +0.014 A 
ATOM     15  C   UNL     1      33.215  16.992  13.312  0.00  0.00    +0.014 A 
ATOM     16  C   UNL     1      33.043  16.789  14.684  0.00  0.00    +0.037 A 
ATOM     17  C   UNL     1      32.123  15.828  15.128  0.00  0.00    +0.014 A 
ATOM     18  C   UNL     1      31.494  14.985  14.208  0.00  0.00    +0.014 A 
BRANCH  13  20
ATOM     19  N   UNL     1      31.516  12.776  12.141  0.00  0.00    -0.325 N 
ATOM     20  C   UNL     1      31.226  14.090  11.904  0.00  0.00    +0.242 C 
ATOM     21  O   UNL     1      30.486  14.427  10.993  0.00  0.00    -0.270 OA
ATOM     22  H   UNL     1      31.015  12.104  11.572  0.00  0.00    +0.145 HD
ATOM     23  H   UNL     1      31.880  12.456  13.028  0.00  0.00    +0.145 HD
ENDBRANCH  13  20
ENDBRANCH   1  16
TORSDOF 2
ENDMDL
MODEL 3
REMARK VINA RESULT:      -6.9      1.580      2.097
REMARK  Name = ZINC000583127796
REMARK  2 active torsions:
REMARK  status: ('A' for Active; 'I' for Inactive)
REMARK    1  A    between atoms: C_2  and  C_4
REMARK    2  A    between atoms: C_7  and  C_8
REMARK                            x       y       z     vdW  Elec       q    Type
REMARK                         _______ _______ _______ _____ _____    ______ ____
ROOT
ATOM      1  C   UNL     1      33.668  18.174  13.924  0.00  0.00    +0.247 C 
ATOM      2  O   UNL     1      33.532  18.936  12.968  0.00  0.00    -0.270 OA
ATOM      3  N   UNL     1      34.244  18.577  15.139  0.00  0.00    -0.297 N 
ATOM      4  C   UNL     1      34.440  17.744  16.329  0.00  0.00    +0.108 C 
ATOM      5  C   UNL     1      33.822  18.358  17.572  0.00  0.00    +0.020 C 
ATOM      6  C   UNL     1      34.255  19.800  17.757  0.00  0.00    +0.011 C 
ATOM      7  C   UNL     1      34.023  20.667  16.494  0.00  0.00    -0.004 C 
ATOM      8  C   UNL     1      34.628  22.057  16.784  0.00  0.00    +0.020 C 
ATOM      9  C   UNL     1      33.963  23.098  15.908  0.00  0.00    +0.070 C 
ATOM     10  S   UNL     1      32.225  22.632  15.917  0.00  0.00    -0.160 S 
ATOM     11  C   UNL     1      32.515  20.867  16.220  0.00  0.00    +0.077 C 
ATOM     12  C   UNL     1      34.699  19.970  15.281  0.00  0.00    +0.115 C 
ENDROOT
BRANCH   1  16
ATOM     13  C   UNL     1      31.740  14.406  13.300  0.00  0.00    +0.037 A 
ATOM     14  C   UNL     1      31.623  15.035  14.544  0.00  0.00    +0.014 A 
ATOM     15  C   UNL     1      32.340  16.206  14.802  0.00  0.00    +0.014 A 
ATOM     16  C   UNL     1      33.091  16.807  13.787  0.00  0.00    +0.037 A 
ATOM     17  C   UNL     1      33.290  16.122  12.580  0.00  0.00    +0.014 A 
ATOM     18  C   UNL     1      32.624  14.917  12.342  0.00  0.00    +0.014 A 
BRANCH  13  20
ATOM     19  N   UNL     1      30.207  13.241  11.815  0.00  0.00    -0.325 N 
ATOM     20  C   UNL     1      30.939  13.200  12.968  0.00  0.00    +0.242 C 
ATOM     21  O   UNL     1      30.975  12.199  13.667  0.00  0.00    -0.270 OA
ATOM     22  H   UNL     1      29.772  12.369  11.537  0.00  0.00    +0.145 HD
ATOM     23  H   UNL     1      30.377  13.927  11.093  0.00  0.00    +0.145 HD
ENDBRANCH  13  20
ENDBRANCH   1  16
TORSDOF 2
ENDMDL
MODEL 4
REMARK VINA RESULT:      -6.7      3.580      6.397
REMARK  Name = ZINC000583127796
REMARK  2 active torsions:
REMARK  status: ('A' for Active; 'I' for Inactive)
REMARK    1  A    between atoms: C_2  and  C_4
REMARK    2  A    between atoms: C_7  and  C_8
REMARK                            x       y       z     vdW  Elec       q    Type
REMARK                         _______ _______ _______ _____ _____    ______ ____
ROOT
ATOM      1  C   UNL     1      33.289  18.090  14.161  0.00  0.00    +0.247 C 
ATOM      2  O   UNL     1      32.498  17.270  13.699  0.00  0.00    -0.270 OA
ATOM      3  N   UNL     1      34.681  17.958  14.032  0.00  0.00    -0.297 N 
ATOM      4  C   UNL     1      35.695  18.885  14.542  0.00  0.00    +0.108 C 
ATOM      5  C   UNL     1      36.647  19.355  13.456  0.00  0.00    +0.020 C 
ATOM      6  C   UNL     1      37.222  18.188  12.675  0.00  0.00    +0.011 C 
ATOM      7  C   UNL     1      36.133  17.231  12.131  0.00  0.00    -0.004 C 
ATOM      8  C   UNL     1      36.866  16.037  11.482  0.00  0.00    +0.020 C 
ATOM      9  C   UNL     1      35.970  15.385  10.451  0.00  0.00    +0.070 C 
ATOM     10  S   UNL     1      35.177  16.770   9.619  0.00  0.00    -0.160 S 
ATOM     11  C   UNL     1      35.290  17.910  11.027  0.00  0.00    +0.077 C 
ATOM     12  C   UNL     1      35.220  16.794  13.309  0.00  0.00    +0.115 C 
ENDROOT
BRANCH   1  16
ATOM     13  C   UNL     1      31.284  21.410  15.965  0.00  0.00    +0.037 A 
ATOM     14  C   UNL     1      31.637  21.479  14.613  0.00  0.00    +0.014 A 
ATOM     15  C   UNL     1      32.393  20.454  14.038  0.00  0.00    +0.014 A 
ATOM     16  C   UNL     1      32.709  19.314  14.783  0.00  0.00    +0.037 A 
ATOM     17  C   UNL     1      32.446  19.295  16.160  0.00  0.00    +0.014 A 
ATOM     18  C   UNL     1      31.744  20.348  16.752  0.00  0.00    +0.014 A 
BRANCH  13  20
ATOM     19  N   UNL     1      30.864  23.738  16.529  0.00  0.00    -0.325 N 
ATOM     20  C   UNL     1      30.422  22.447  16.590  0.00  0.00    +0.242 C 
ATOM     21  O   UNL     1      29.342  22.163  17.087  0.00  0.00    -0.270 OA
ATOM     22  H   UNL     1      30.208  24.444  16.842  0.00  0.00    +0.145 HD
ATOM     23  H   UNL     1      31.593  24.029  15.892  0.00  0.00    +0.145 HD
ENDBRANCH  13  20
ENDBRANCH   1  16
TORSDOF 2
ENDMDL
MODEL 5
REMARK VINA RESULT:      -6.5      1.915      2.692
REMARK  Name = ZINC000583127796
REMARK  2 active torsions:
REMARK  status: ('A' for Active; 'I' for Inactive)
REMARK    1  A    between atoms: C_2  and  C_4
REMARK    2  A    between atoms: C_7  and  C_8
REMARK                            x       y       z     vdW  Elec       q    Type
REMARK                         _______ _______ _______ _____ _____    ______ ____
ROOT
ATOM      1  C   UNL     1      34.253  19.356  15.269  0.00  0.00    +0.247 C 
ATOM      2  O   UNL     1      35.387  19.404  15.741  0.00  0.00    -0.270 OA
ATOM      3  N   UNL     1      33.387  20.462  15.262  0.00  0.00    -0.297 N 
ATOM      4  C   UNL     1      32.027  20.501  14.718  0.00  0.00    +0.108 C 
ATOM      5  C   UNL     1      31.840  21.616  13.705  0.00  0.00    +0.020 C 
ATOM      6  C   UNL     1      32.319  22.949  14.249  0.00  0.00    +0.011 C 
ATOM      7  C   UNL     1      33.765  22.891  14.803  0.00  0.00    -0.004 C 
ATOM      8  C   UNL     1      34.061  24.268  15.435  0.00  0.00    +0.020 C 
ATOM      9  C   UNL     1      35.555  24.508  15.464  0.00  0.00    +0.070 C 
ATOM     10  S   UNL     1      36.130  23.881  13.878  0.00  0.00    -0.160 S 
ATOM     11  C   UNL     1      34.792  22.674  13.668  0.00  0.00    +0.077 C 
ATOM     12  C   UNL     1      33.856  21.734  15.836  0.00  0.00    +0.115 C 
ENDROOT
BRANCH   1  16
ATOM     13  C   UNL     1      32.868  15.938  13.101  0.00  0.00    +0.037 A 
ATOM     14  C   UNL     1      32.453  16.121  14.424  0.00  0.00    +0.014 A 
ATOM     15  C   UNL     1      32.986  17.167  15.183  0.00  0.00    +0.014 A 
ATOM     16  C   UNL     1      33.853  18.091  14.592  0.00  0.00    +0.037 A 
ATOM     17  C   UNL     1      34.347  17.846  13.302  0.00  0.00    +0.014 A 
ATOM     18  C   UNL     1      33.863  16.763  12.563  0.00  0.00    +0.014 A 
BRANCH  13  20
ATOM     19  N   UNL     1      32.688  13.599  12.464  0.00  0.00    -0.325 N 
ATOM     20  C   UNL     1      32.270  14.881  12.245  0.00  0.00    +0.242 C 
ATOM     21  O   UNL     1      31.406  15.141  11.421  0.00  0.00    -0.270 OA
ATOM     22  H   UNL     1      32.180  12.878  11.965  0.00  0.00    +0.145 HD
ATOM     23  H   UNL     1      33.176  13.327  13.306  0.00  0.00    +0.145 HD
ENDBRANCH  13  20
ENDBRANCH   1  16
TORSDOF 2
ENDMDL
MODEL 6
REMARK VINA RESULT:      -6.3      4.983      9.535
REMARK  Name = ZINC000583127796
REMARK  2 active torsions:
REMARK  status: ('A' for Active; 'I' for Inactive)
REMARK    1  A    between atoms: C_2  and  C_4
REMARK    2  A    between atoms: C_7  and  C_8
REMARK                            x       y       z     vdW  Elec       q    Type
REMARK                         _______ _______ _______ _____ _____    ______ ____
ROOT
ATOM      1  C   UNL     1      35.053  22.914  15.903  0.00  0.00    +0.247 C 
ATOM      2  O   UNL     1      36.119  22.340  15.689  0.00  0.00    -0.270 OA
ATOM      3  N   UNL     1      33.823  22.434  15.423  0.00  0.00    -0.297 N 
ATOM      4  C   UNL     1      32.508  23.044  15.632  0.00  0.00    +0.108 C 
ATOM      5  C   UNL     1      31.510  22.074  16.239  0.00  0.00    +0.020 C 
ATOM      6  C   UNL     1      31.462  20.768  15.467  0.00  0.00    +0.011 C 
ATOM      7  C   UNL     1      32.860  20.131  15.273  0.00  0.00    -0.004 C 
ATOM      8  C   UNL     1      32.671  18.895  14.368  0.00  0.00    +0.020 C 
ATOM      9  C   UNL     1      33.801  17.914  14.595  0.00  0.00    +0.070 C 
ATOM     10  S   UNL     1      34.055  17.943  16.377  0.00  0.00    -0.160 S 
ATOM     11  C   UNL     1      33.443  19.635  16.617  0.00  0.00    +0.077 C 
ATOM     12  C   UNL     1      33.806  21.188  14.638  0.00  0.00    +0.115 C 
ENDROOT
BRANCH   1  16
ATOM     13  C   UNL     1      35.544  26.367  18.380  0.00  0.00    +0.037 A 
ATOM     14  C   UNL     1      35.379  25.114  18.980  0.00  0.00    +0.014 A 
ATOM     15  C   UNL     1      35.102  23.995  18.191  0.00  0.00    +0.014 A 
ATOM     16  C   UNL     1      35.092  24.105  16.797  0.00  0.00    +0.037 A 
ATOM     17  C   UNL     1      35.153  25.375  16.206  0.00  0.00    +0.014 A 
ATOM     18  C   UNL     1      35.367  26.506  16.999  0.00  0.00    +0.014 A 
BRANCH  13  20
ATOM     19  N   UNL     1      35.117  27.851  20.258  0.00  0.00    -0.325 N 
ATOM     20  C   UNL     1      35.909  27.563  19.182  0.00  0.00    +0.242 C 
ATOM     21  O   UNL     1      36.901  28.226  18.922  0.00  0.00    -0.270 OA
ATOM     22  H   UNL     1      35.452  28.589  20.867  0.00  0.00    +0.145 HD
ATOM     23  H   UNL     1      34.477  27.176  20.652  0.00  0.00    +0.145 HD
ENDBRANCH  13  20
ENDBRANCH   1  16
TORSDOF 2
ENDMDL
MODEL 7
REMARK VINA RESULT:      -6.3      4.390      7.002
REMARK  Name = ZINC000583127796
REMARK  2 active torsions:
REMARK  status: ('A' for Active; 'I' for Inactive)
REMARK    1  A    between atoms: C_2  and  C_4
REMARK    2  A    between atoms: C_7  and  C_8
REMARK                            x       y       z     vdW  Elec       q    Type
REMARK                         _______ _______ _______ _____ _____    ______ ____
ROOT
ATOM      1  C   UNL     1      34.099  20.354  12.706  0.00  0.00    +0.247 C 
ATOM      2  O   UNL     1      35.075  19.667  13.003  0.00  0.00    -0.270 OA
ATOM      3  N   UNL     1      32.962  20.451  13.526  0.00  0.00    -0.297 N 
ATOM      4  C   UNL     1      31.761  21.247  13.259  0.00  0.00    +0.108 C 
ATOM      5  C   UNL     1      31.430  22.195  14.398  0.00  0.00    +0.020 C 
ATOM      6  C   UNL     1      31.402  21.474  15.733  0.00  0.00    +0.011 C 
ATOM      7  C   UNL     1      32.688  20.654  16.003  0.00  0.00    -0.004 C 
ATOM      8  C   UNL     1      32.461  19.879  17.319  0.00  0.00    +0.020 C 
ATOM      9  C   UNL     1      33.794  19.543  17.953  0.00  0.00    +0.070 C 
ATOM     10  S   UNL     1      34.783  21.026  17.708  0.00  0.00    -0.160 S 
ATOM     11  C   UNL     1      33.909  21.579  16.217  0.00  0.00    +0.077 C 
ATOM     12  C   UNL     1      32.938  19.708  14.797  0.00  0.00    +0.115 C 
ENDROOT
BRANCH   1  16
ATOM     13  C   UNL     1      34.032  22.851   9.234  0.00  0.00    +0.037 A 
ATOM     14  C   UNL     1      34.004  21.462   9.076  0.00  0.00    +0.014 A 
ATOM     15  C   UNL     1      34.142  20.631  10.191  0.00  0.00    +0.014 A 
ATOM     16  C   UNL     1      34.204  21.184  11.474  0.00  0.00    +0.037 A 
ATOM     17  C   UNL     1      34.336  22.572  11.620  0.00  0.00    +0.014 A 
ATOM     18  C   UNL     1      34.262  23.404  10.499  0.00  0.00    +0.014 A 
BRANCH  13  20
ATOM     19  N   UNL     1      32.536  24.177   7.850  0.00  0.00    -0.325 N 
ATOM     20  C   UNL     1      33.817  23.762   8.080  0.00  0.00    +0.242 C 
ATOM     21  O   UNL     1      34.751  24.163   7.403  0.00  0.00    -0.270 OA
ATOM     22  H   UNL     1      32.425  24.896   7.144  0.00  0.00    +0.145 HD
ATOM     23  H   UNL     1      31.808  24.092   8.545  0.00  0.00    +0.145 HD
ENDBRANCH  13  20
ENDBRANCH   1  16
TORSDOF 2
ENDMDL
MODEL 8
REMARK VINA RESULT:      -6.1      4.651      7.657
REMARK  Name = ZINC000583127796
REMARK  2 active torsions:
REMARK  status: ('A' for Active; 'I' for Inactive)
REMARK    1  A    between atoms: C_2  and  C_4
REMARK    2  A    between atoms: C_7  and  C_8
REMARK                            x       y       z     vdW  Elec       q    Type
REMARK                         _______ _______ _______ _____ _____    ______ ____
ROOT
ATOM      1  C   UNL     1      34.125  20.938  12.446  0.00  0.00    +0.247 C 
ATOM      2  O   UNL     1      34.940  20.030  12.601  0.00  0.00    -0.270 OA
ATOM      3  N   UNL     1      33.032  21.132  13.307  0.00  0.00    -0.297 N 
ATOM      4  C   UNL     1      32.019  22.186  13.204  0.00  0.00    +0.108 C 
ATOM      5  C   UNL     1      31.888  22.989  14.486  0.00  0.00    +0.020 C 
ATOM      6  C   UNL     1      31.713  22.087  15.694  0.00  0.00    +0.011 C 
ATOM      7  C   UNL     1      32.805  20.993  15.793  0.00  0.00    -0.004 C 
ATOM      8  C   UNL     1      32.424  20.082  16.980  0.00  0.00    +0.020 C 
ATOM      9  C   UNL     1      33.659  19.387  17.511  0.00  0.00    +0.070 C 
ATOM     10  S   UNL     1      34.931  20.660  17.466  0.00  0.00    -0.160 S 
ATOM     11  C   UNL     1      34.189  21.606  16.107  0.00  0.00    +0.077 C 
ATOM     12  C   UNL     1      32.856  20.217  14.447  0.00  0.00    +0.115 C 
ENDROOT
BRANCH   1  16
ATOM     13  C   UNL     1      34.623  23.960   9.460  0.00  0.00    +0.037 A 
ATOM     14  C   UNL     1      34.042  22.739   9.104  0.00  0.00    +0.014 A 
ATOM     15  C   UNL     1      33.978  21.700  10.037  0.00  0.00    +0.014 A 
ATOM     16  C   UNL     1      34.398  21.913  11.353  0.00  0.00    +0.037 A 
ATOM     17  C   UNL     1      35.072  23.099  11.678  0.00  0.00    +0.014 A 
ATOM     18  C   UNL     1      35.195  24.116  10.728  0.00  0.00    +0.014 A 
BRANCH  13  20
ATOM     19  N   UNL     1      35.185  24.883   7.282  0.00  0.00    -0.325 N 
ATOM     20  C   UNL     1      34.644  25.107   8.516  0.00  0.00    +0.242 C 
ATOM     21  O   UNL     1      34.152  26.186   8.812  0.00  0.00    -0.270 OA
ATOM     22  H   UNL     1      35.076  25.632   6.609  0.00  0.00    +0.145 HD
ATOM     23  H   UNL     1      35.336  23.951   6.921  0.00  0.00    +0.145 HD
ENDBRANCH  13  20
ENDBRANCH   1  16
TORSDOF 2
ENDMDL
MODEL 9
REMARK VINA RESULT:      -6.1      3.596      5.457
REMARK  Name = ZINC000583127796
REMARK  2 active torsions:
REMARK  status: ('A' for Active; 'I' for Inactive)
REMARK    1  A    between atoms: C_2  and  C_4
REMARK    2  A    between atoms: C_7  and  C_8
REMARK                            x       y       z     vdW  Elec       q    Type
REMARK                         _______ _______ _______ _____ _____    ______ ____
ROOT
ATOM      1  C   UNL     1      32.927  22.820  15.771  0.00  0.00    +0.247 C 
ATOM      2  O   UNL     1      31.995  23.427  16.295  0.00  0.00    -0.270 OA
ATOM      3  N   UNL     1      34.169  23.421  15.505  0.00  0.00    -0.297 N 
ATOM      4  C   UNL     1      35.335  22.777  14.894  0.00  0.00    +0.108 C 
ATOM      5  C   UNL     1      36.583  22.910  15.748  0.00  0.00    +0.020 C 
ATOM      6  C   UNL     1      36.825  24.350  16.160  0.00  0.00    +0.011 C 
ATOM      7  C   UNL     1      35.587  25.005  16.820  0.00  0.00    -0.004 C 
ATOM      8  C   UNL     1      35.936  26.490  17.061  0.00  0.00    +0.020 C 
ATOM      9  C   UNL     1      35.080  27.043  18.180  0.00  0.00    +0.070 C 
ATOM     10  S   UNL     1      35.032  25.715  19.393  0.00  0.00    -0.160 S 
ATOM     11  C   UNL     1      35.284  24.373  18.198  0.00  0.00    +0.077 C 
ATOM     12  C   UNL     1      34.367  24.832  15.873  0.00  0.00    +0.115 C 
ENDROOT
BRANCH   1  16
ATOM     13  C   UNL     1      32.757  18.603  15.076  0.00  0.00    +0.037 A 
ATOM     14  C   UNL     1      32.508  19.480  14.015  0.00  0.00    +0.014 A 
ATOM     15  C   UNL     1      32.445  20.856  14.250  0.00  0.00    +0.014 A 
ATOM     16  C   UNL     1      32.733  21.365  15.520  0.00  0.00    +0.037 A 
ATOM     17  C   UNL     1      32.878  20.481  16.599  0.00  0.00    +0.014 A 
ATOM     18  C   UNL     1      32.877  19.101  16.378  0.00  0.00    +0.014 A 
BRANCH  13  20
ATOM     19  N   UNL     1      32.632  16.681  13.591  0.00  0.00    -0.325 N 
ATOM     20  C   UNL     1      32.899  17.141  14.850  0.00  0.00    +0.242 C 
ATOM     21  O   UNL     1      33.290  16.394  15.734  0.00  0.00    -0.270 OA
ATOM     22  H   UNL     1      32.858  15.708  13.420  0.00  0.00    +0.145 HD
ATOM     23  H   UNL     1      32.585  17.296  12.791  0.00  0.00    +0.145 HD
ENDBRANCH  13  20
ENDBRANCH   1  16
TORSDOF 2
ENDMDL
