MODEL 1
REMARK VINA RESULT:      -7.0      0.000      0.000
REMARK  Name = ZINC000329563636
REMARK  3 active torsions:
REMARK  status: ('A' for Active; 'I' for Inactive)
REMARK    1  A    between atoms: C_1  and  C_2
REMARK    2  A    between atoms: C_2  and  N_3
REMARK    3  A    between atoms: N_9  and  C_10
REMARK                            x       y       z     vdW  Elec       q    Type
REMARK                         _______ _______ _______ _____ _____    ______ ____
ROOT
ATOM      1  C   UNL     1      33.425  23.088  17.151  0.00  0.00    +0.112 C 
ATOM      2  C   UNL     1      33.679  24.599  17.104  0.00  0.00    +0.075 C 
ATOM      3  C   UNL     1      34.313  25.188  18.372  0.00  0.00    +0.113 C 
ATOM      4  C   UNL     1      35.859  25.073  18.440  0.00  0.00    +0.048 C 
ATOM      5  C   UNL     1      36.399  26.493  18.315  0.00  0.00    +0.004 C 
ATOM      6  C   UNL     1      35.310  27.353  18.926  0.00  0.00    +0.004 C 
ATOM      7  C   UNL     1      34.038  26.714  18.396  0.00  0.00    +0.048 C 
ATOM      8  O   UNL     1      33.730  24.637  19.570  0.00  0.00    -0.485 OA
ATOM      9  C   UNL     1      33.818  23.271  19.627  0.00  0.00    +0.126 A 
ATOM     10  C   UNL     1      34.020  22.694  20.880  0.00  0.00    +0.046 A 
ATOM     11  C   UNL     1      34.159  21.309  20.997  0.00  0.00    +0.004 A 
ATOM     12  C   UNL     1      34.070  20.503  19.865  0.00  0.00    +0.001 A 
ATOM     13  C   UNL     1      33.834  21.082  18.617  0.00  0.00    +0.009 A 
ATOM     14  C   UNL     1      33.707  22.475  18.490  0.00  0.00    +0.015 A 
ENDROOT
BRANCH   1  21
ATOM     15  N   UNL     1      27.899  20.432  15.629  0.00  0.00    -0.299 N 
ATOM     16  C   UNL     1      29.079  19.861  14.981  0.00  0.00    +0.127 C 
ATOM     17  C   UNL     1      29.977  20.945  14.395  0.00  0.00    +0.129 C 
ATOM     18  N   UNL     1      30.383  21.845  15.464  0.00  0.00    -0.275 N 
ATOM     19  C   UNL     1      31.723  21.973  15.754  0.00  0.00    +0.303 C 
ATOM     20  O   UNL     1      32.593  21.351  15.145  0.00  0.00    -0.253 OA
ATOM     21  N   UNL     1      32.035  22.810  16.783  0.00  0.00    -0.292 N 
ATOM     22  C   UNL     1      29.269  22.473  16.181  0.00  0.00    +0.205 C 
ATOM     23  C   UNL     1      27.964  21.656  16.292  0.00  0.00    +0.233 C 
ATOM     24  O   UNL     1      27.008  22.110  16.926  0.00  0.00    -0.274 OA
ATOM     25  H   UNL     1      31.384  23.545  17.011  0.00  0.00    +0.151 HD
BRANCH  15  27
ATOM     26  C   UNL     1      27.037  18.526  16.961  0.00  0.00    +0.024 C 
ATOM     27  C   UNL     1      26.759  19.556  15.875  0.00  0.00    +0.104 C 
ENDBRANCH  15  27
ENDBRANCH   1  21
TORSDOF 2
ENDMDL
MODEL 2
REMARK VINA RESULT:      -6.7      5.157      8.046
REMARK  Name = ZINC000329563636
REMARK  3 active torsions:
REMARK  status: ('A' for Active; 'I' for Inactive)
REMARK    1  A    between atoms: C_1  and  C_2
REMARK    2  A    between atoms: C_2  and  N_3
REMARK    3  A    between atoms: N_9  and  C_10
REMARK                            x       y       z     vdW  Elec       q    Type
REMARK                         _______ _______ _______ _____ _____    ______ ____
ROOT
ATOM      1  C   UNL     1      31.557  23.445  13.571  0.00  0.00    +0.112 C 
ATOM      2  C   UNL     1      30.244  22.656  13.575  0.00  0.00    +0.075 C 
ATOM      3  C   UNL     1      30.053  21.724  14.780  0.00  0.00    +0.113 C 
ATOM      4  C   UNL     1      29.479  22.409  16.048  0.00  0.00    +0.048 C 
ATOM      5  C   UNL     1      28.074  21.850  16.238  0.00  0.00    +0.004 C 
ATOM      6  C   UNL     1      28.157  20.451  15.661  0.00  0.00    +0.004 C 
ATOM      7  C   UNL     1      28.994  20.652  14.409  0.00  0.00    +0.048 C 
ATOM      8  O   UNL     1      31.265  21.020  15.113  0.00  0.00    -0.485 OA
ATOM      9  C   UNL     1      32.318  21.860  15.368  0.00  0.00    +0.126 A 
ATOM     10  C   UNL     1      33.223  21.471  16.354  0.00  0.00    +0.046 A 
ATOM     11  C   UNL     1      34.293  22.304  16.688  0.00  0.00    +0.004 A 
ATOM     12  C   UNL     1      34.469  23.512  16.017  0.00  0.00    +0.001 A 
ATOM     13  C   UNL     1      33.579  23.882  15.008  0.00  0.00    +0.009 A 
ATOM     14  C   UNL     1      32.493  23.056  14.676  0.00  0.00    +0.015 A 
ENDROOT
BRANCH   1  21
ATOM     15  N   UNL     1      34.938  24.116   8.277  0.00  0.00    -0.299 N 
ATOM     16  C   UNL     1      34.089  25.250   8.638  0.00  0.00    +0.127 C 
ATOM     17  C   UNL     1      32.674  24.803   8.990  0.00  0.00    +0.129 C 
ATOM     18  N   UNL     1      32.744  23.862  10.098  0.00  0.00    -0.275 N 
ATOM     19  C   UNL     1      32.110  24.176  11.280  0.00  0.00    +0.303 C 
ATOM     20  O   UNL     1      31.489  25.226  11.437  0.00  0.00    -0.253 OA
ATOM     21  N   UNL     1      32.237  23.266  12.287  0.00  0.00    -0.292 N 
ATOM     22  C   UNL     1      33.576  22.683   9.839  0.00  0.00    +0.205 C 
ATOM     23  C   UNL     1      34.780  22.875   8.891  0.00  0.00    +0.233 C 
ATOM     24  O   UNL     1      35.545  21.932   8.674  0.00  0.00    -0.274 OA
ATOM     25  H   UNL     1      32.423  22.307  12.039  0.00  0.00    +0.151 HD
BRANCH  15  27
ATOM     26  C   UNL     1      35.933  24.473   6.035  0.00  0.00    +0.024 C 
ATOM     27  C   UNL     1      36.166  24.385   7.536  0.00  0.00    +0.104 C 
ENDBRANCH  15  27
ENDBRANCH   1  21
TORSDOF 2
ENDMDL
MODEL 3
REMARK VINA RESULT:      -6.7      3.370      7.703
REMARK  Name = ZINC000329563636
REMARK  3 active torsions:
REMARK  status: ('A' for Active; 'I' for Inactive)
REMARK    1  A    between atoms: C_1  and  C_2
REMARK    2  A    between atoms: C_2  and  N_3
REMARK    3  A    between atoms: N_9  and  C_10
REMARK                            x       y       z     vdW  Elec       q    Type
REMARK                         _______ _______ _______ _____ _____    ______ ____
ROOT
ATOM      1  C   UNL     1      32.484  19.900  14.426  0.00  0.00    +0.112 C 
ATOM      2  C   UNL     1      33.571  18.933  13.944  0.00  0.00    +0.075 C 
ATOM      3  C   UNL     1      33.065  17.541  13.540  0.00  0.00    +0.113 C 
ATOM      4  C   UNL     1      32.529  17.439  12.088  0.00  0.00    +0.048 C 
ATOM      5  C   UNL     1      33.521  16.568  11.326  0.00  0.00    +0.004 C 
ATOM      6  C   UNL     1      34.075  15.634  12.384  0.00  0.00    +0.004 C 
ATOM      7  C   UNL     1      34.261  16.554  13.580  0.00  0.00    +0.048 C 
ATOM      8  O   UNL     1      32.076  17.041  14.461  0.00  0.00    -0.485 OA
ATOM      9  C   UNL     1      30.999  17.878  14.597  0.00  0.00    +0.126 A 
ATOM     10  C   UNL     1      29.749  17.289  14.780  0.00  0.00    +0.046 A 
ATOM     11  C   UNL     1      28.609  18.089  14.883  0.00  0.00    +0.004 A 
ATOM     12  C   UNL     1      28.725  19.476  14.827  0.00  0.00    +0.001 A 
ATOM     13  C   UNL     1      29.983  20.062  14.676  0.00  0.00    +0.009 A 
ATOM     14  C   UNL     1      31.132  19.264  14.559  0.00  0.00    +0.015 A 
ENDROOT
BRANCH   1  21
ATOM     15  N   UNL     1      32.786  23.056  19.890  0.00  0.00    -0.299 N 
ATOM     16  C   UNL     1      32.275  23.811  18.747  0.00  0.00    +0.127 C 
ATOM     17  C   UNL     1      33.167  23.646  17.521  0.00  0.00    +0.129 C 
ATOM     18  N   UNL     1      33.247  22.231  17.188  0.00  0.00    -0.275 N 
ATOM     19  C   UNL     1      32.792  21.810  15.958  0.00  0.00    +0.303 C 
ATOM     20  O   UNL     1      32.318  22.585  15.129  0.00  0.00    -0.253 OA
ATOM     21  N   UNL     1      32.870  20.470  15.718  0.00  0.00    -0.292 N 
ATOM     22  C   UNL     1      33.749  21.382  18.272  0.00  0.00    +0.205 C 
ATOM     23  C   UNL     1      33.435  21.835  19.714  0.00  0.00    +0.233 C 
ATOM     24  O   UNL     1      33.788  21.136  20.667  0.00  0.00    -0.274 OA
ATOM     25  H   UNL     1      33.557  19.937  16.226  0.00  0.00    +0.151 HD
BRANCH  15  27
ATOM     26  C   UNL     1      30.953  22.796  21.539  0.00  0.00    +0.024 C 
ATOM     27  C   UNL     1      32.306  23.414  21.221  0.00  0.00    +0.104 C 
ENDBRANCH  15  27
ENDBRANCH   1  21
TORSDOF 2
ENDMDL
MODEL 4
REMARK VINA RESULT:      -6.2      1.701      1.940
REMARK  Name = ZINC000329563636
REMARK  3 active torsions:
REMARK  status: ('A' for Active; 'I' for Inactive)
REMARK    1  A    between atoms: C_1  and  C_2
REMARK    2  A    between atoms: C_2  and  N_3
REMARK    3  A    between atoms: N_9  and  C_10
REMARK                            x       y       z     vdW  Elec       q    Type
REMARK                         _______ _______ _______ _____ _____    ______ ____
ROOT
ATOM      1  C   UNL     1      34.052  22.496  17.406  0.00  0.00    +0.112 C 
ATOM      2  C   UNL     1      34.141  24.004  17.145  0.00  0.00    +0.075 C 
ATOM      3  C   UNL     1      34.116  24.881  18.405  0.00  0.00    +0.113 C 
ATOM      4  C   UNL     1      35.491  25.064  19.098  0.00  0.00    +0.048 C 
ATOM      5  C   UNL     1      35.880  26.524  18.898  0.00  0.00    +0.004 C 
ATOM      6  C   UNL     1      34.552  27.251  18.835  0.00  0.00    +0.004 C 
ATOM      7  C   UNL     1      33.696  26.317  17.994  0.00  0.00    +0.048 C 
ATOM      8  O   UNL     1      33.144  24.417  19.363  0.00  0.00    -0.485 OA
ATOM      9  C   UNL     1      33.343  23.114  19.738  0.00  0.00    +0.126 A 
ATOM     10  C   UNL     1      33.059  22.778  21.060  0.00  0.00    +0.046 A 
ATOM     11  C   UNL     1      33.281  21.475  21.512  0.00  0.00    +0.004 A 
ATOM     12  C   UNL     1      33.763  20.507  20.635  0.00  0.00    +0.001 A 
ATOM     13  C   UNL     1      34.015  20.841  19.303  0.00  0.00    +0.009 A 
ATOM     14  C   UNL     1      33.807  22.151  18.845  0.00  0.00    +0.015 A 
ENDROOT
BRANCH   1  21
ATOM     15  N   UNL     1      29.882  18.694  14.566  0.00  0.00    -0.299 N 
ATOM     16  C   UNL     1      31.245  18.175  14.676  0.00  0.00    +0.127 C 
ATOM     17  C   UNL     1      32.276  19.205  14.230  0.00  0.00    +0.129 C 
ATOM     18  N   UNL     1      32.131  20.398  15.050  0.00  0.00    -0.275 N 
ATOM     19  C   UNL     1      33.194  20.808  15.824  0.00  0.00    +0.303 C 
ATOM     20  O   UNL     1      34.263  20.200  15.852  0.00  0.00    -0.253 OA
ATOM     21  N   UNL     1      32.984  21.916  16.589  0.00  0.00    -0.292 N 
ATOM     22  C   UNL     1      30.795  21.000  15.010  0.00  0.00    +0.205 C 
ATOM     23  C   UNL     1      29.605  20.040  14.799  0.00  0.00    +0.233 C 
ATOM     24  O   UNL     1      28.453  20.481  14.806  0.00  0.00    -0.274 OA
ATOM     25  H   UNL     1      32.278  22.571  16.292  0.00  0.00    +0.151 HD
BRANCH  15  27
ATOM     26  C   UNL     1      29.059  16.535  13.668  0.00  0.00    +0.024 C 
ATOM     27  C   UNL     1      28.781  17.738  14.558  0.00  0.00    +0.104 C 
ENDBRANCH  15  27
ENDBRANCH   1  21
TORSDOF 2
ENDMDL
MODEL 5
REMARK VINA RESULT:      -6.2      3.269      7.246
REMARK  Name = ZINC000329563636
REMARK  3 active torsions:
REMARK  status: ('A' for Active; 'I' for Inactive)
REMARK    1  A    between atoms: C_1  and  C_2
REMARK    2  A    between atoms: C_2  and  N_3
REMARK    3  A    between atoms: N_9  and  C_10
REMARK                            x       y       z     vdW  Elec       q    Type
REMARK                         _______ _______ _______ _____ _____    ______ ____
ROOT
ATOM      1  C   UNL     1      32.207  20.858  14.412  0.00  0.00    +0.112 C 
ATOM      2  C   UNL     1      33.502  20.739  13.600  0.00  0.00    +0.075 C 
ATOM      3  C   UNL     1      33.631  19.451  12.774  0.00  0.00    +0.113 C 
ATOM      4  C   UNL     1      32.934  19.493  11.390  0.00  0.00    +0.048 C 
ATOM      5  C   UNL     1      34.048  19.481  10.349  0.00  0.00    +0.004 C 
ATOM      6  C   UNL     1      35.164  18.705  11.019  0.00  0.00    +0.004 C 
ATOM      7  C   UNL     1      35.131  19.228  12.445  0.00  0.00    +0.048 C 
ATOM      8  O   UNL     1      33.186  18.294  13.509  0.00  0.00    -0.485 OA
ATOM      9  C   UNL     1      31.893  18.407  13.951  0.00  0.00    +0.126 A 
ATOM     10  C   UNL     1      31.120  17.247  13.969  0.00  0.00    +0.046 A 
ATOM     11  C   UNL     1      29.783  17.305  14.369  0.00  0.00    +0.004 A 
ATOM     12  C   UNL     1      29.230  18.519  14.773  0.00  0.00    +0.001 A 
ATOM     13  C   UNL     1      30.018  19.671  14.784  0.00  0.00    +0.009 A 
ATOM     14  C   UNL     1      31.359  19.623  14.371  0.00  0.00    +0.015 A 
ENDROOT
BRANCH   1  21
ATOM     15  N   UNL     1      32.060  22.204  20.583  0.00  0.00    -0.299 N 
ATOM     16  C   UNL     1      31.095  22.923  19.751  0.00  0.00    +0.127 C 
ATOM     17  C   UNL     1      31.755  23.516  18.512  0.00  0.00    +0.129 C 
ATOM     18  N   UNL     1      32.366  22.440  17.746  0.00  0.00    -0.275 N 
ATOM     19  C   UNL     1      31.933  22.209  16.459  0.00  0.00    +0.303 C 
ATOM     20  O   UNL     1      31.045  22.876  15.932  0.00  0.00    -0.253 OA
ATOM     21  N   UNL     1      32.527  21.169  15.807  0.00  0.00    -0.292 N 
ATOM     22  C   UNL     1      33.353  21.653  18.492  0.00  0.00    +0.205 C 
ATOM     23  C   UNL     1      33.123  21.507  20.011  0.00  0.00    +0.233 C 
ATOM     24  O   UNL     1      33.892  20.816  20.684  0.00  0.00    -0.274 OA
ATOM     25  H   UNL     1      33.449  20.889  16.100  0.00  0.00    +0.151 HD
BRANCH  15  27
ATOM     26  C   UNL     1      32.595  22.672  22.958  0.00  0.00    +0.024 C 
ATOM     27  C   UNL     1      31.703  21.933  21.971  0.00  0.00    +0.104 C 
ENDBRANCH  15  27
ENDBRANCH   1  21
TORSDOF 2
ENDMDL
MODEL 6
REMARK VINA RESULT:      -6.1      5.471      7.448
REMARK  Name = ZINC000329563636
REMARK  3 active torsions:
REMARK  status: ('A' for Active; 'I' for Inactive)
REMARK    1  A    between atoms: C_1  and  C_2
REMARK    2  A    between atoms: C_2  and  N_3
REMARK    3  A    between atoms: N_9  and  C_10
REMARK                            x       y       z     vdW  Elec       q    Type
REMARK                         _______ _______ _______ _____ _____    ______ ____
ROOT
ATOM      1  C   UNL     1      33.000  24.149  10.921  0.00  0.00    +0.112 C 
ATOM      2  C   UNL     1      34.070  25.059  11.534  0.00  0.00    +0.075 C 
ATOM      3  C   UNL     1      35.333  25.240  10.679  0.00  0.00    +0.113 C 
ATOM      4  C   UNL     1      35.228  26.338   9.588  0.00  0.00    +0.048 C 
ATOM      5  C   UNL     1      36.166  27.460  10.019  0.00  0.00    +0.004 C 
ATOM      6  C   UNL     1      37.259  26.747  10.790  0.00  0.00    +0.004 C 
ATOM      7  C   UNL     1      36.485  25.721  11.601  0.00  0.00    +0.048 C 
ATOM      8  O   UNL     1      35.761  24.000  10.083  0.00  0.00    -0.485 OA
ATOM      9  C   UNL     1      34.790  23.413   9.315  0.00  0.00    +0.126 A 
ATOM     10  C   UNL     1      35.202  22.736   8.169  0.00  0.00    +0.046 A 
ATOM     11  C   UNL     1      34.255  22.152   7.324  0.00  0.00    +0.004 A 
ATOM     12  C   UNL     1      32.901  22.226   7.641  0.00  0.00    +0.001 A 
ATOM     13  C   UNL     1      32.495  22.877   8.807  0.00  0.00    +0.009 A 
ATOM     14  C   UNL     1      33.440  23.477   9.654  0.00  0.00    +0.015 A 
ENDROOT
BRANCH   1  21
ATOM     15  N   UNL     1      29.891  20.114  14.656  0.00  0.00    -0.299 N 
ATOM     16  C   UNL     1      29.330  21.461  14.568  0.00  0.00    +0.127 C 
ATOM     17  C   UNL     1      30.402  22.529  14.754  0.00  0.00    +0.129 C 
ATOM     18  N   UNL     1      31.424  22.349  13.734  0.00  0.00    -0.275 N 
ATOM     19  C   UNL     1      31.657  23.368  12.838  0.00  0.00    +0.303 C 
ATOM     20  O   UNL     1      31.031  24.427  12.864  0.00  0.00    -0.253 OA
ATOM     21  N   UNL     1      32.608  23.126  11.891  0.00  0.00    -0.292 N 
ATOM     22  C   UNL     1      32.052  21.025  13.736  0.00  0.00    +0.205 C 
ATOM     23  C   UNL     1      31.175  19.838  14.191  0.00  0.00    +0.233 C 
ATOM     24  O   UNL     1      31.633  18.693  14.166  0.00  0.00    -0.274 OA
ATOM     25  H   UNL     1      33.322  22.446  12.099  0.00  0.00    +0.151 HD
BRANCH  15  27
ATOM     26  C   UNL     1      27.758  19.422  15.714  0.00  0.00    +0.024 C 
ATOM     27  C   UNL     1      28.978  19.004  14.906  0.00  0.00    +0.104 C 
ENDBRANCH  15  27
ENDBRANCH   1  21
TORSDOF 2
ENDMDL
MODEL 7
REMARK VINA RESULT:      -5.9      3.044      6.993
REMARK  Name = ZINC000329563636
REMARK  3 active torsions:
REMARK  status: ('A' for Active; 'I' for Inactive)
REMARK    1  A    between atoms: C_1  and  C_2
REMARK    2  A    between atoms: C_2  and  N_3
REMARK    3  A    between atoms: N_9  and  C_10
REMARK                            x       y       z     vdW  Elec       q    Type
REMARK                         _______ _______ _______ _____ _____    ______ ____
ROOT
ATOM      1  C   UNL     1      32.275  23.274  15.446  0.00  0.00    +0.112 C 
ATOM      2  C   UNL     1      32.883  23.787  14.136  0.00  0.00    +0.075 C 
ATOM      3  C   UNL     1      31.996  23.603  12.896  0.00  0.00    +0.113 C 
ATOM      4  C   UNL     1      30.943  24.721  12.679  0.00  0.00    +0.048 C 
ATOM      5  C   UNL     1      31.379  25.483  11.432  0.00  0.00    +0.004 C 
ATOM      6  C   UNL     1      32.094  24.439  10.598  0.00  0.00    +0.004 C 
ATOM      7  C   UNL     1      32.897  23.670  11.635  0.00  0.00    +0.048 C 
ATOM      8  O   UNL     1      31.350  22.315  12.884  0.00  0.00    -0.485 OA
ATOM      9  C   UNL     1      30.595  22.085  14.004  0.00  0.00    +0.126 A 
ATOM     10  C   UNL     1      29.416  21.358  13.843  0.00  0.00    +0.046 A 
ATOM     11  C   UNL     1      28.583  21.127  14.940  0.00  0.00    +0.004 A 
ATOM     12  C   UNL     1      28.944  21.602  16.199  0.00  0.00    +0.001 A 
ATOM     13  C   UNL     1      30.141  22.301  16.361  0.00  0.00    +0.009 A 
ATOM     14  C   UNL     1      30.977  22.548  15.260  0.00  0.00    +0.015 A 
ENDROOT
BRANCH   1  21
ATOM     15  N   UNL     1      35.276  19.370  19.404  0.00  0.00    -0.299 N 
ATOM     16  C   UNL     1      34.585  20.499  20.026  0.00  0.00    +0.127 C 
ATOM     17  C   UNL     1      34.908  21.812  19.320  0.00  0.00    +0.129 C 
ATOM     18  N   UNL     1      34.519  21.700  17.922  0.00  0.00    -0.275 N 
ATOM     19  C   UNL     1      33.565  22.560  17.425  0.00  0.00    +0.303 C 
ATOM     20  O   UNL     1      33.025  23.420  18.120  0.00  0.00    -0.253 OA
ATOM     21  N   UNL     1      33.226  22.385  16.117  0.00  0.00    -0.292 N 
ATOM     22  C   UNL     1      35.158  20.593  17.204  0.00  0.00    +0.205 C 
ATOM     23  C   UNL     1      35.503  19.335  18.029  0.00  0.00    +0.233 C 
ATOM     24  O   UNL     1      35.997  18.352  17.471  0.00  0.00    -0.274 OA
ATOM     25  H   UNL     1      33.900  21.951  15.506  0.00  0.00    +0.151 HD
BRANCH  15  27
ATOM     26  C   UNL     1      36.736  18.051  20.912  0.00  0.00    +0.024 C 
ATOM     27  C   UNL     1      35.408  18.137  20.173  0.00  0.00    +0.104 C 
ENDBRANCH  15  27
ENDBRANCH   1  21
TORSDOF 2
ENDMDL
MODEL 8
REMARK VINA RESULT:      -5.9      3.179      6.303
REMARK  Name = ZINC000329563636
REMARK  3 active torsions:
REMARK  status: ('A' for Active; 'I' for Inactive)
REMARK    1  A    between atoms: C_1  and  C_2
REMARK    2  A    between atoms: C_2  and  N_3
REMARK    3  A    between atoms: N_9  and  C_10
REMARK                            x       y       z     vdW  Elec       q    Type
REMARK                         _______ _______ _______ _____ _____    ______ ____
ROOT
ATOM      1  C   UNL     1      31.833  22.937  14.871  0.00  0.00    +0.112 C 
ATOM      2  C   UNL     1      32.731  23.923  14.116  0.00  0.00    +0.075 C 
ATOM      3  C   UNL     1      33.546  23.309  12.969  0.00  0.00    +0.113 C 
ATOM      4  C   UNL     1      32.786  23.190  11.622  0.00  0.00    +0.048 C 
ATOM      5  C   UNL     1      33.444  24.182  10.670  0.00  0.00    +0.004 C 
ATOM      6  C   UNL     1      34.883  24.242  11.144  0.00  0.00    +0.004 C 
ATOM      7  C   UNL     1      34.740  24.249  12.657  0.00  0.00    +0.048 C 
ATOM      8  O   UNL     1      34.102  22.029  13.330  0.00  0.00    -0.485 OA
ATOM      9  C   UNL     1      33.151  21.126  13.727  0.00  0.00    +0.126 A 
ATOM     10  C   UNL     1      33.354  19.790  13.386  0.00  0.00    +0.046 A 
ATOM     11  C   UNL     1      32.399  18.829  13.727  0.00  0.00    +0.004 A 
ATOM     12  C   UNL     1      31.257  19.203  14.430  0.00  0.00    +0.001 A 
ATOM     13  C   UNL     1      31.073  20.537  14.798  0.00  0.00    +0.009 A 
ATOM     14  C   UNL     1      32.022  21.511  14.447  0.00  0.00    +0.015 A 
ENDROOT
BRANCH   1  21
ATOM     15  N   UNL     1      31.899  22.250  21.150  0.00  0.00    -0.299 N 
ATOM     16  C   UNL     1      30.580  22.206  20.519  0.00  0.00    +0.127 C 
ATOM     17  C   UNL     1      30.387  23.359  19.541  0.00  0.00    +0.129 C 
ATOM     18  N   UNL     1      31.427  23.290  18.525  0.00  0.00    -0.275 N 
ATOM     19  C   UNL     1      31.062  23.127  17.207  0.00  0.00    +0.303 C 
ATOM     20  O   UNL     1      29.887  23.034  16.855  0.00  0.00    -0.253 OA
ATOM     21  N   UNL     1      32.085  23.043  16.309  0.00  0.00    -0.292 N 
ATOM     22  C   UNL     1      32.794  23.327  19.056  0.00  0.00    +0.205 C 
ATOM     23  C   UNL     1      33.014  22.709  20.453  0.00  0.00    +0.233 C 
ATOM     24  O   UNL     1      34.151  22.666  20.932  0.00  0.00    -0.274 OA
ATOM     25  H   UNL     1      32.966  23.465  16.553  0.00  0.00    +0.151 HD
BRANCH  15  27
ATOM     26  C   UNL     1      32.403  22.382  23.574  0.00  0.00    +0.024 C 
ATOM     27  C   UNL     1      32.098  21.490  22.380  0.00  0.00    +0.104 C 
ENDBRANCH  15  27
ENDBRANCH   1  21
TORSDOF 2
ENDMDL
MODEL 9
REMARK VINA RESULT:      -5.9      4.252      6.463
REMARK  Name = ZINC000329563636
REMARK  3 active torsions:
REMARK  status: ('A' for Active; 'I' for Inactive)
REMARK    1  A    between atoms: C_1  and  C_2
REMARK    2  A    between atoms: C_2  and  N_3
REMARK    3  A    between atoms: N_9  and  C_10
REMARK                            x       y       z     vdW  Elec       q    Type
REMARK                         _______ _______ _______ _____ _____    ______ ____
ROOT
ATOM      1  C   UNL     1      32.601  21.916  15.148  0.00  0.00    +0.112 C 
ATOM      2  C   UNL     1      33.304  22.762  16.215  0.00  0.00    +0.075 C 
ATOM      3  C   UNL     1      32.427  23.148  17.415  0.00  0.00    +0.113 C 
ATOM      4  C   UNL     1      32.339  22.072  18.529  0.00  0.00    +0.048 C 
ATOM      5  C   UNL     1      33.078  22.643  19.734  0.00  0.00    +0.004 C 
ATOM      6  C   UNL     1      32.885  24.141  19.605  0.00  0.00    +0.004 C 
ATOM      7  C   UNL     1      33.066  24.376  18.115  0.00  0.00    +0.048 C 
ATOM      8  O   UNL     1      31.101  23.538  17.008  0.00  0.00    -0.485 OA
ATOM      9  C   UNL     1      30.456  22.568  16.286  0.00  0.00    +0.126 A 
ATOM     10  C   UNL     1      29.081  22.440  16.470  0.00  0.00    +0.046 A 
ATOM     11  C   UNL     1      28.375  21.443  15.793  0.00  0.00    +0.004 A 
ATOM     12  C   UNL     1      29.043  20.592  14.915  0.00  0.00    +0.001 A 
ATOM     13  C   UNL     1      30.415  20.746  14.709  0.00  0.00    +0.009 A 
ATOM     14  C   UNL     1      31.133  21.737  15.396  0.00  0.00    +0.015 A 
ENDROOT
BRANCH   1  21
ATOM     15  N   UNL     1      33.761  23.114   9.055  0.00  0.00    -0.299 N 
ATOM     16  C   UNL     1      34.703  22.212   9.716  0.00  0.00    +0.127 C 
ATOM     17  C   UNL     1      35.169  22.772  11.056  0.00  0.00    +0.129 C 
ATOM     18  N   UNL     1      34.007  22.986  11.904  0.00  0.00    -0.275 N 
ATOM     19  C   UNL     1      33.917  22.302  13.096  0.00  0.00    +0.303 C 
ATOM     20  O   UNL     1      34.783  21.513  13.471  0.00  0.00    -0.253 OA
ATOM     21  N   UNL     1      32.791  22.526  13.831  0.00  0.00    -0.292 N 
ATOM     22  C   UNL     1      32.996  23.880  11.330  0.00  0.00    +0.205 C 
ATOM     23  C   UNL     1      32.860  23.880   9.792  0.00  0.00    +0.233 C 
ATOM     24  O   UNL     1      31.993  24.574   9.254  0.00  0.00    -0.274 OA
ATOM     25  H   UNL     1      32.302  23.397  13.696  0.00  0.00    +0.151 HD
BRANCH  15  27
ATOM     26  C   UNL     1      34.747  23.337   6.791  0.00  0.00    +0.024 C 
ATOM     27  C   UNL     1      33.535  22.943   7.624  0.00  0.00    +0.104 C 
ENDBRANCH  15  27
ENDBRANCH   1  21
TORSDOF 2
ENDMDL
