MODEL 1
REMARK VINA RESULT:      -6.7      0.000      0.000
REMARK  Name = ZINC000543478179
REMARK  8 active torsions:
REMARK  status: ('A' for Active; 'I' for Inactive)
REMARK    1  A    between atoms: C_1  and  C_2
REMARK    2  A    between atoms: C_2  and  N_3
REMARK    3  A    between atoms: N_9  and  C_10
REMARK    4  A    between atoms: C_10  and  C_11
REMARK    5  A    between atoms: C_10  and  C_12
REMARK    6  A    between atoms: C_15  and  O_16
REMARK    7  A    between atoms: O_16  and  C_17
REMARK    8  A    between atoms: C_17  and  C_18
REMARK                            x       y       z     vdW  Elec       q    Type
REMARK                         _______ _______ _______ _____ _____    ______ ____
ROOT
ATOM      1  C   UNL     1      30.130  21.886  14.598  0.00  0.00    +0.102 C 
ATOM      2  C   UNL     1      30.263  20.371  14.392  0.00  0.00    +0.033 C 
ENDROOT
BRANCH   1   9
ATOM      3  N   UNL     1      31.657  23.309  20.640  0.00  0.00    -0.299 N 
ATOM      4  C   UNL     1      30.312  22.754  20.482  0.00  0.00    +0.127 C 
ATOM      5  C   UNL     1      29.569  23.384  19.299  0.00  0.00    +0.129 C 
ATOM      6  N   UNL     1      30.338  23.168  18.078  0.00  0.00    -0.275 N 
ATOM      7  C   UNL     1      29.731  22.602  16.965  0.00  0.00    +0.303 C 
ATOM      8  O   UNL     1      28.545  22.302  16.931  0.00  0.00    -0.253 OA
ATOM      9  N   UNL     1      30.576  22.368  15.908  0.00  0.00    -0.293 N 
ATOM     10  C   UNL     1      31.744  23.569  18.158  0.00  0.00    +0.205 C 
ATOM     11  C   UNL     1      32.341  23.843  19.551  0.00  0.00    +0.233 C 
ATOM     12  O   UNL     1      33.441  24.386  19.661  0.00  0.00    -0.274 OA
ATOM     13  H   UNL     1      31.356  23.001  15.854  0.00  0.00    +0.151 HD
BRANCH   3  15
ATOM     14  C   UNL     1      31.776  21.845  22.626  0.00  0.00    +0.024 C 
ATOM     15  C   UNL     1      32.417  22.986  21.847  0.00  0.00    +0.104 C 
ENDBRANCH   3  15
ENDBRANCH   1   9
BRANCH   1  16
ATOM     16  C   UNL     1      30.939  22.622  13.536  0.00  0.00    -0.024 A 
ATOM     17  C   UNL     1      32.110  22.034  13.021  0.00  0.00    +0.009 A 
ATOM     18  C   UNL     1      32.919  22.712  12.114  0.00  0.00    +0.049 A 
ATOM     19  C   UNL     1      32.604  24.016  11.734  0.00  0.00    +0.156 A 
ATOM     20  C   UNL     1      31.410  24.583  12.189  0.00  0.00    +0.165 A 
ATOM     21  F   UNL     1      31.056  25.818  11.803  0.00  0.00    -0.202 F 
ATOM     22  C   UNL     1      30.582  23.900  13.085  0.00  0.00    +0.047 A 
BRANCH  19  23
ATOM     23  O   UNL     1      33.415  24.792  10.949  0.00  0.00    -0.489 OA
BRANCH  23  24
ATOM     24  C   UNL     1      33.755  24.206   9.689  0.00  0.00    +0.232 C 
BRANCH  24  25
ATOM     25  C   UNL     1      32.504  23.978   8.906  0.00  0.00    +0.027 C 
ATOM     26  C   UNL     1      32.376  22.770   8.014  0.00  0.00    +0.007 C 
ATOM     27  C   UNL     1      32.491  24.142   7.405  0.00  0.00    +0.007 C 
ENDBRANCH  24  25
ENDBRANCH  23  24
ENDBRANCH  19  23
ENDBRANCH   1  16
TORSDOF 6
ENDMDL
MODEL 2
REMARK VINA RESULT:      -6.2      5.109      9.094
REMARK  Name = ZINC000543478179
REMARK  8 active torsions:
REMARK  status: ('A' for Active; 'I' for Inactive)
REMARK    1  A    between atoms: C_1  and  C_2
REMARK    2  A    between atoms: C_2  and  N_3
REMARK    3  A    between atoms: N_9  and  C_10
REMARK    4  A    between atoms: C_10  and  C_11
REMARK    5  A    between atoms: C_10  and  C_12
REMARK    6  A    between atoms: C_15  and  O_16
REMARK    7  A    between atoms: O_16  and  C_17
REMARK    8  A    between atoms: C_17  and  C_18
REMARK                            x       y       z     vdW  Elec       q    Type
REMARK                         _______ _______ _______ _____ _____    ______ ____
ROOT
ATOM      1  C   UNL     1      29.516  16.817  14.257  0.00  0.00    +0.102 C 
ATOM      2  C   UNL     1      28.459  16.091  13.414  0.00  0.00    +0.033 C 
ENDROOT
BRANCH   1   9
ATOM      3  N   UNL     1      34.584  17.806  10.487  0.00  0.00    -0.299 N 
ATOM      4  C   UNL     1      33.732  16.696  10.059  0.00  0.00    +0.127 C 
ATOM      5  C   UNL     1      33.324  15.802  11.235  0.00  0.00    +0.129 C 
ATOM      6  N   UNL     1      32.621  16.607  12.230  0.00  0.00    -0.275 N 
ATOM      7  C   UNL     1      31.376  16.207  12.692  0.00  0.00    +0.303 C 
ATOM      8  O   UNL     1      30.832  15.169  12.338  0.00  0.00    -0.253 OA
ATOM      9  N   UNL     1      30.776  17.089  13.559  0.00  0.00    -0.293 N 
ATOM     10  C   UNL     1      33.323  17.824  12.644  0.00  0.00    +0.205 C 
ATOM     11  C   UNL     1      34.511  18.301  11.787  0.00  0.00    +0.233 C 
ATOM     12  O   UNL     1      35.263  19.183  12.203  0.00  0.00    -0.274 OA
ATOM     13  H   UNL     1      31.420  17.639  14.100  0.00  0.00    +0.151 HD
BRANCH   3  15
ATOM     14  C   UNL     1      36.613  18.066   9.103  0.00  0.00    +0.024 C 
ATOM     15  C   UNL     1      35.244  18.623   9.470  0.00  0.00    +0.104 C 
ENDBRANCH   3  15
ENDBRANCH   1   9
BRANCH   1  16
ATOM     16  C   UNL     1      28.960  18.152  14.740  0.00  0.00    -0.024 A 
ATOM     17  C   UNL     1      29.591  19.350  14.354  0.00  0.00    +0.009 A 
ATOM     18  C   UNL     1      29.163  20.580  14.844  0.00  0.00    +0.049 A 
ATOM     19  C   UNL     1      28.122  20.641  15.770  0.00  0.00    +0.156 A 
ATOM     20  C   UNL     1      27.447  19.465  16.108  0.00  0.00    +0.165 A 
ATOM     21  F   UNL     1      26.411  19.498  16.959  0.00  0.00    -0.202 F 
ATOM     22  C   UNL     1      27.860  18.226  15.604  0.00  0.00    +0.047 A 
BRANCH  19  23
ATOM     23  O   UNL     1      27.730  21.797  16.392  0.00  0.00    -0.489 OA
BRANCH  23  24
ATOM     24  C   UNL     1      28.465  22.108  17.580  0.00  0.00    +0.232 C 
BRANCH  24  25
ATOM     25  C   UNL     1      29.504  23.130  17.253  0.00  0.00    +0.027 C 
ATOM     26  C   UNL     1      30.965  22.763  17.283  0.00  0.00    +0.007 C 
ATOM     27  C   UNL     1      30.404  23.687  18.330  0.00  0.00    +0.007 C 
ENDBRANCH  24  25
ENDBRANCH  23  24
ENDBRANCH  19  23
ENDBRANCH   1  16
TORSDOF 6
ENDMDL
MODEL 3
REMARK VINA RESULT:      -6.1      3.779      8.654
REMARK  Name = ZINC000543478179
REMARK  8 active torsions:
REMARK  status: ('A' for Active; 'I' for Inactive)
REMARK    1  A    between atoms: C_1  and  C_2
REMARK    2  A    between atoms: C_2  and  N_3
REMARK    3  A    between atoms: N_9  and  C_10
REMARK    4  A    between atoms: C_10  and  C_11
REMARK    5  A    between atoms: C_10  and  C_12
REMARK    6  A    between atoms: C_15  and  O_16
REMARK    7  A    between atoms: O_16  and  C_17
REMARK    8  A    between atoms: C_17  and  C_18
REMARK                            x       y       z     vdW  Elec       q    Type
REMARK                         _______ _______ _______ _____ _____    ______ ____
ROOT
ATOM      1  C   UNL     1      30.763  22.360  14.528  0.00  0.00    +0.102 C 
ATOM      2  C   UNL     1      31.531  23.430  13.740  0.00  0.00    +0.033 C 
ENDROOT
BRANCH   1   9
ATOM      3  N   UNL     1      32.621  16.338  13.454  0.00  0.00    -0.299 N 
ATOM      4  C   UNL     1      31.182  16.553  13.298  0.00  0.00    +0.127 C 
ATOM      5  C   UNL     1      30.603  17.397  14.438  0.00  0.00    +0.129 C 
ATOM      6  N   UNL     1      31.291  18.684  14.481  0.00  0.00    -0.275 N 
ATOM      7  C   UNL     1      30.560  19.864  14.473  0.00  0.00    +0.303 C 
ATOM      8  O   UNL     1      29.336  19.892  14.473  0.00  0.00    -0.253 OA
ATOM      9  N   UNL     1      31.319  21.008  14.428  0.00  0.00    -0.293 N 
ATOM     10  C   UNL     1      32.752  18.599  14.509  0.00  0.00    +0.205 C 
ATOM     11  C   UNL     1      33.405  17.249  14.158  0.00  0.00    +0.233 C 
ATOM     12  O   UNL     1      34.604  17.062  14.373  0.00  0.00    -0.274 OA
ATOM     13  H   UNL     1      32.226  20.919  14.852  0.00  0.00    +0.151 HD
BRANCH   3  15
ATOM     14  C   UNL     1      32.463  15.071  11.340  0.00  0.00    +0.024 C 
ATOM     15  C   UNL     1      33.289  15.373  12.583  0.00  0.00    +0.104 C 
ENDBRANCH   3  15
ENDBRANCH   1   9
BRANCH   1  16
ATOM     16  C   UNL     1      30.727  22.736  16.005  0.00  0.00    -0.024 A 
ATOM     17  C   UNL     1      31.923  23.069  16.668  0.00  0.00    +0.009 A 
ATOM     18  C   UNL     1      31.941  23.335  18.034  0.00  0.00    +0.049 A 
ATOM     19  C   UNL     1      30.769  23.228  18.783  0.00  0.00    +0.156 A 
ATOM     20  C   UNL     1      29.566  22.962  18.123  0.00  0.00    +0.165 A 
ATOM     21  F   UNL     1      28.416  22.900  18.809  0.00  0.00    -0.202 F 
ATOM     22  C   UNL     1      29.538  22.713  16.746  0.00  0.00    +0.047 A 
BRANCH  19  23
ATOM     23  O   UNL     1      30.730  23.348  20.147  0.00  0.00    -0.489 OA
BRANCH  23  24
ATOM     24  C   UNL     1      31.086  22.157  20.856  0.00  0.00    +0.232 C 
BRANCH  24  25
ATOM     25  C   UNL     1      31.701  22.537  22.163  0.00  0.00    +0.027 C 
ATOM     26  C   UNL     1      33.174  22.323  22.400  0.00  0.00    +0.007 C 
ATOM     27  C   UNL     1      32.167  21.479  23.133  0.00  0.00    +0.007 C 
ENDBRANCH  24  25
ENDBRANCH  23  24
ENDBRANCH  19  23
ENDBRANCH   1  16
TORSDOF 6
ENDMDL
MODEL 4
REMARK VINA RESULT:      -6.1      4.007      8.846
REMARK  Name = ZINC000543478179
REMARK  8 active torsions:
REMARK  status: ('A' for Active; 'I' for Inactive)
REMARK    1  A    between atoms: C_1  and  C_2
REMARK    2  A    between atoms: C_2  and  N_3
REMARK    3  A    between atoms: N_9  and  C_10
REMARK    4  A    between atoms: C_10  and  C_11
REMARK    5  A    between atoms: C_10  and  C_12
REMARK    6  A    between atoms: C_15  and  O_16
REMARK    7  A    between atoms: O_16  and  C_17
REMARK    8  A    between atoms: C_17  and  C_18
REMARK                            x       y       z     vdW  Elec       q    Type
REMARK                         _______ _______ _______ _____ _____    ______ ____
ROOT
ATOM      1  C   UNL     1      33.337  24.026  16.735  0.00  0.00    +0.102 C 
ATOM      2  C   UNL     1      34.547  23.133  16.429  0.00  0.00    +0.033 C 
ENDROOT
BRANCH   1   9
ATOM      3  N   UNL     1      28.102  20.581  15.474  0.00  0.00    -0.299 N 
ATOM      4  C   UNL     1      29.209  20.341  14.548  0.00  0.00    +0.127 C 
ATOM      5  C   UNL     1      29.869  21.647  14.095  0.00  0.00    +0.129 C 
ATOM      6  N   UNL     1      30.355  22.372  15.265  0.00  0.00    -0.275 N 
ATOM      7  C   UNL     1      31.673  22.804  15.317  0.00  0.00    +0.303 C 
ATOM      8  O   UNL     1      32.465  22.645  14.399  0.00  0.00    -0.253 OA
ATOM      9  N   UNL     1      32.035  23.396  16.503  0.00  0.00    -0.293 N 
ATOM     10  C   UNL     1      29.363  22.563  16.325  0.00  0.00    +0.205 C 
ATOM     11  C   UNL     1      28.071  21.727  16.266  0.00  0.00    +0.233 C 
ATOM     12  O   UNL     1      27.120  21.999  17.000  0.00  0.00    -0.274 OA
ATOM     13  H   UNL     1      31.280  23.855  16.983  0.00  0.00    +0.151 HD
BRANCH   3  15
ATOM     14  C   UNL     1      27.934  18.127  15.700  0.00  0.00    +0.024 C 
ATOM     15  C   UNL     1      27.223  19.468  15.829  0.00  0.00    +0.104 C 
ENDBRANCH   3  15
ENDBRANCH   1   9
BRANCH   1  16
ATOM     16  C   UNL     1      33.382  24.468  18.194  0.00  0.00    -0.024 A 
ATOM     17  C   UNL     1      34.233  25.522  18.576  0.00  0.00    +0.009 A 
ATOM     18  C   UNL     1      34.363  25.896  19.910  0.00  0.00    +0.049 A 
ATOM     19  C   UNL     1      33.680  25.194  20.904  0.00  0.00    +0.156 A 
ATOM     20  C   UNL     1      32.783  24.190  20.528  0.00  0.00    +0.165 A 
ATOM     21  F   UNL     1      32.077  23.530  21.457  0.00  0.00    -0.202 F 
ATOM     22  C   UNL     1      32.633  23.822  19.186  0.00  0.00    +0.047 A 
BRANCH  19  23
ATOM     23  O   UNL     1      33.854  25.418  22.244  0.00  0.00    -0.489 OA
BRANCH  23  24
ATOM     24  C   UNL     1      34.805  24.551  22.870  0.00  0.00    +0.232 C 
BRANCH  24  25
ATOM     25  C   UNL     1      34.280  24.141  24.207  0.00  0.00    +0.027 C 
ATOM     26  C   UNL     1      34.948  23.031  24.977  0.00  0.00    +0.007 C 
ATOM     27  C   UNL     1      33.580  22.815  24.388  0.00  0.00    +0.007 C 
ENDBRANCH  24  25
ENDBRANCH  23  24
ENDBRANCH  19  23
ENDBRANCH   1  16
TORSDOF 6
ENDMDL
MODEL 5
REMARK VINA RESULT:      -6.1      1.308      1.761
REMARK  Name = ZINC000543478179
REMARK  8 active torsions:
REMARK  status: ('A' for Active; 'I' for Inactive)
REMARK    1  A    between atoms: C_1  and  C_2
REMARK    2  A    between atoms: C_2  and  N_3
REMARK    3  A    between atoms: N_9  and  C_10
REMARK    4  A    between atoms: C_10  and  C_11
REMARK    5  A    between atoms: C_10  and  C_12
REMARK    6  A    between atoms: C_15  and  O_16
REMARK    7  A    between atoms: O_16  and  C_17
REMARK    8  A    between atoms: C_17  and  C_18
REMARK                            x       y       z     vdW  Elec       q    Type
REMARK                         _______ _______ _______ _____ _____    ______ ____
ROOT
ATOM      1  C   UNL     1      30.927  21.605  14.330  0.00  0.00    +0.102 C 
ATOM      2  C   UNL     1      31.565  20.236  14.059  0.00  0.00    +0.033 C 
ENDROOT
BRANCH   1   9
ATOM      3  N   UNL     1      31.757  23.491  20.381  0.00  0.00    -0.299 N 
ATOM      4  C   UNL     1      30.400  23.032  20.083  0.00  0.00    +0.127 C 
ATOM      5  C   UNL     1      29.883  23.599  18.757  0.00  0.00    +0.129 C 
ATOM      6  N   UNL     1      30.786  23.203  17.680  0.00  0.00    -0.275 N 
ATOM      7  C   UNL     1      30.283  22.580  16.546  0.00  0.00    +0.303 C 
ATOM      8  O   UNL     1      29.089  22.374  16.370  0.00  0.00    -0.253 OA
ATOM      9  N   UNL     1      31.237  22.177  15.643  0.00  0.00    -0.293 N 
ATOM     10  C   UNL     1      32.199  23.496  17.923  0.00  0.00    +0.205 C 
ATOM     11  C   UNL     1      32.627  23.858  19.358  0.00  0.00    +0.233 C 
ATOM     12  O   UNL     1      33.748  24.320  19.575  0.00  0.00    -0.274 OA
ATOM     13  H   UNL     1      32.071  22.737  15.646  0.00  0.00    +0.151 HD
BRANCH   3  15
ATOM     14  C   UNL     1      31.648  22.032  22.372  0.00  0.00    +0.024 C 
ATOM     15  C   UNL     1      32.316  23.228  21.707  0.00  0.00    +0.104 C 
ENDBRANCH   3  15
ENDBRANCH   1   9
BRANCH   1  16
ATOM     16  C   UNL     1      31.385  22.603  13.273  0.00  0.00    -0.024 A 
ATOM     17  C   UNL     1      32.536  22.331  12.510  0.00  0.00    +0.009 A 
ATOM     18  C   UNL     1      33.031  23.257  11.596  0.00  0.00    +0.049 A 
ATOM     19  C   UNL     1      32.415  24.500  11.456  0.00  0.00    +0.156 A 
ATOM     20  C   UNL     1      31.236  24.754  12.161  0.00  0.00    +0.165 A 
ATOM     21  F   UNL     1      30.594  25.922  12.010  0.00  0.00    -0.202 F 
ATOM     22  C   UNL     1      30.721  23.820  13.066  0.00  0.00    +0.047 A 
BRANCH  19  23
ATOM     23  O   UNL     1      32.916  25.508  10.675  0.00  0.00    -0.489 OA
BRANCH  23  24
ATOM     24  C   UNL     1      34.297  25.360  10.330  0.00  0.00    +0.232 C 
BRANCH  24  25
ATOM     25  C   UNL     1      34.710  26.512   9.474  0.00  0.00    +0.027 C 
ATOM     26  C   UNL     1      36.118  26.599   8.946  0.00  0.00    +0.007 C 
ATOM     27  C   UNL     1      35.652  27.566  10.001  0.00  0.00    +0.007 C 
ENDBRANCH  24  25
ENDBRANCH  23  24
ENDBRANCH  19  23
ENDBRANCH   1  16
TORSDOF 6
ENDMDL
MODEL 6
REMARK VINA RESULT:      -6.1      5.070      8.984
REMARK  Name = ZINC000543478179
REMARK  8 active torsions:
REMARK  status: ('A' for Active; 'I' for Inactive)
REMARK    1  A    between atoms: C_1  and  C_2
REMARK    2  A    between atoms: C_2  and  N_3
REMARK    3  A    between atoms: N_9  and  C_10
REMARK    4  A    between atoms: C_10  and  C_11
REMARK    5  A    between atoms: C_10  and  C_12
REMARK    6  A    between atoms: C_15  and  O_16
REMARK    7  A    between atoms: O_16  and  C_17
REMARK    8  A    between atoms: C_17  and  C_18
REMARK                            x       y       z     vdW  Elec       q    Type
REMARK                         _______ _______ _______ _____ _____    ______ ____
ROOT
ATOM      1  C   UNL     1      33.505  20.910  14.130  0.00  0.00    +0.102 C 
ATOM      2  C   UNL     1      34.432  20.851  15.352  0.00  0.00    +0.033 C 
ENDROOT
BRANCH   1   9
ATOM      3  N   UNL     1      33.792  15.400  10.901  0.00  0.00    -0.299 N 
ATOM      4  C   UNL     1      34.805  16.377  10.501  0.00  0.00    +0.127 C 
ATOM      5  C   UNL     1      34.214  17.781  10.339  0.00  0.00    +0.129 C 
ATOM      6  N   UNL     1      33.602  18.193  11.599  0.00  0.00    -0.275 N 
ATOM      7  C   UNL     1      33.947  19.409  12.173  0.00  0.00    +0.303 C 
ATOM      8  O   UNL     1      34.724  20.198  11.652  0.00  0.00    -0.253 OA
ATOM      9  N   UNL     1      33.373  19.647  13.398  0.00  0.00    -0.293 N 
ATOM     10  C   UNL     1      32.658  17.230  12.168  0.00  0.00    +0.205 C 
ATOM     11  C   UNL     1      32.656  15.797  11.602  0.00  0.00    +0.233 C 
ATOM     12  O   UNL     1      31.748  15.017  11.889  0.00  0.00    -0.274 OA
ATOM     13  H   UNL     1      32.481  19.203  13.530  0.00  0.00    +0.151 HD
BRANCH   3  15
ATOM     14  C   UNL     1      35.389  13.692  11.696  0.00  0.00    +0.024 C 
ATOM     15  C   UNL     1      34.134  13.979  10.882  0.00  0.00    +0.104 C 
ENDBRANCH   3  15
ENDBRANCH   1   9
BRANCH   1  16
ATOM     16  C   UNL     1      32.109  21.339  14.564  0.00  0.00    -0.024 A 
ATOM     17  C   UNL     1      31.939  22.032  15.777  0.00  0.00    +0.009 A 
ATOM     18  C   UNL     1      30.672  22.365  16.247  0.00  0.00    +0.049 A 
ATOM     19  C   UNL     1      29.537  21.971  15.538  0.00  0.00    +0.156 A 
ATOM     20  C   UNL     1      29.697  21.341  14.301  0.00  0.00    +0.165 A 
ATOM     21  F   UNL     1      28.625  20.994  13.573  0.00  0.00    -0.202 F 
ATOM     22  C   UNL     1      30.969  21.021  13.813  0.00  0.00    +0.047 A 
BRANCH  19  23
ATOM     23  O   UNL     1      28.259  22.149  15.997  0.00  0.00    -0.489 OA
BRANCH  23  24
ATOM     24  C   UNL     1      27.813  21.141  16.911  0.00  0.00    +0.232 C 
BRANCH  24  25
ATOM     25  C   UNL     1      26.959  20.162  16.175  0.00  0.00    +0.027 C 
ATOM     26  C   UNL     1      26.324  19.009  16.906  0.00  0.00    +0.007 C 
ATOM     27  C   UNL     1      27.439  18.752  15.929  0.00  0.00    +0.007 C 
ENDBRANCH  24  25
ENDBRANCH  23  24
ENDBRANCH  19  23
ENDBRANCH   1  16
TORSDOF 6
ENDMDL
MODEL 7
REMARK VINA RESULT:      -6.1      2.759      8.980
REMARK  Name = ZINC000543478179
REMARK  8 active torsions:
REMARK  status: ('A' for Active; 'I' for Inactive)
REMARK    1  A    between atoms: C_1  and  C_2
REMARK    2  A    between atoms: C_2  and  N_3
REMARK    3  A    between atoms: N_9  and  C_10
REMARK    4  A    between atoms: C_10  and  C_11
REMARK    5  A    between atoms: C_10  and  C_12
REMARK    6  A    between atoms: C_15  and  O_16
REMARK    7  A    between atoms: O_16  and  C_17
REMARK    8  A    between atoms: C_17  and  C_18
REMARK                            x       y       z     vdW  Elec       q    Type
REMARK                         _______ _______ _______ _____ _____    ______ ____
ROOT
ATOM      1  C   UNL     1      30.693  21.401  14.569  0.00  0.00    +0.102 C 
ATOM      2  C   UNL     1      29.170  21.398  14.377  0.00  0.00    +0.033 C 
ENDROOT
BRANCH   1   9
ATOM      3  N   UNL     1      33.694  23.475   9.319  0.00  0.00    -0.299 N 
ATOM      4  C   UNL     1      33.663  22.018   9.450  0.00  0.00    +0.127 C 
ATOM      5  C   UNL     1      34.005  21.564  10.872  0.00  0.00    +0.129 C 
ATOM      6  N   UNL     1      33.059  22.163  11.809  0.00  0.00    -0.275 N 
ATOM      7  C   UNL     1      32.371  21.361  12.710  0.00  0.00    +0.303 C 
ATOM      8  O   UNL     1      32.545  20.153  12.797  0.00  0.00    -0.253 OA
ATOM      9  N   UNL     1      31.447  22.026  13.478  0.00  0.00    -0.293 N 
ATOM     10  C   UNL     1      32.906  23.614  11.686  0.00  0.00    +0.205 C 
ATOM     11  C   UNL     1      33.462  24.295  10.421  0.00  0.00    +0.233 C 
ATOM     12  O   UNL     1      33.555  25.522  10.365  0.00  0.00    -0.274 OA
ATOM     13  H   UNL     1      31.669  22.991  13.650  0.00  0.00    +0.151 HD
BRANCH   3  15
ATOM     14  C   UNL     1      32.201  23.989   7.419  0.00  0.00    +0.024 C 
ATOM     15  C   UNL     1      33.613  24.067   7.985  0.00  0.00    +0.104 C 
ENDBRANCH   3  15
ENDBRANCH   1   9
BRANCH   1  16
ATOM     16  C   UNL     1      31.046  22.139  15.855  0.00  0.00    -0.024 A 
ATOM     17  C   UNL     1      32.390  22.215  16.267  0.00  0.00    +0.009 A 
ATOM     18  C   UNL     1      32.741  22.805  17.478  0.00  0.00    +0.049 A 
ATOM     19  C   UNL     1      31.752  23.295  18.330  0.00  0.00    +0.156 A 
ATOM     20  C   UNL     1      30.422  23.283  17.901  0.00  0.00    +0.165 A 
ATOM     21  F   UNL     1      29.454  23.790  18.679  0.00  0.00    -0.202 F 
ATOM     22  C   UNL     1      30.064  22.708  16.676  0.00  0.00    +0.047 A 
BRANCH  19  23
ATOM     23  O   UNL     1      32.006  23.772  19.589  0.00  0.00    -0.489 OA
BRANCH  23  24
ATOM     24  C   UNL     1      32.960  23.006  20.331  0.00  0.00    +0.232 C 
BRANCH  24  25
ATOM     25  C   UNL     1      32.241  21.938  21.089  0.00  0.00    +0.027 C 
ATOM     26  C   UNL     1      30.977  22.262  21.842  0.00  0.00    +0.007 C 
ATOM     27  C   UNL     1      32.236  21.933  22.598  0.00  0.00    +0.007 C 
ENDBRANCH  24  25
ENDBRANCH  23  24
ENDBRANCH  19  23
ENDBRANCH   1  16
TORSDOF 6
ENDMDL
MODEL 8
REMARK VINA RESULT:      -6.0      3.966      5.801
REMARK  Name = ZINC000543478179
REMARK  8 active torsions:
REMARK  status: ('A' for Active; 'I' for Inactive)
REMARK    1  A    between atoms: C_1  and  C_2
REMARK    2  A    between atoms: C_2  and  N_3
REMARK    3  A    between atoms: N_9  and  C_10
REMARK    4  A    between atoms: C_10  and  C_11
REMARK    5  A    between atoms: C_10  and  C_12
REMARK    6  A    between atoms: C_15  and  O_16
REMARK    7  A    between atoms: O_16  and  C_17
REMARK    8  A    between atoms: C_17  and  C_18
REMARK                            x       y       z     vdW  Elec       q    Type
REMARK                         _______ _______ _______ _____ _____    ______ ____
ROOT
ATOM      1  C   UNL     1      33.579  22.815  15.601  0.00  0.00    +0.102 C 
ATOM      2  C   UNL     1      33.532  24.065  14.711  0.00  0.00    +0.033 C 
ENDROOT
BRANCH   1   9
ATOM      3  N   UNL     1      34.973  23.688  21.779  0.00  0.00    -0.299 N 
ATOM      4  C   UNL     1      35.550  22.472  21.205  0.00  0.00    +0.127 C 
ATOM      5  C   UNL     1      34.538  21.708  20.346  0.00  0.00    +0.129 C 
ATOM      6  N   UNL     1      34.060  22.579  19.276  0.00  0.00    -0.275 N 
ATOM      7  C   UNL     1      34.110  22.150  17.957  0.00  0.00    +0.303 C 
ATOM      8  O   UNL     1      34.503  21.038  17.630  0.00  0.00    -0.253 OA
ATOM      9  N   UNL     1      33.715  23.088  17.035  0.00  0.00    -0.293 N 
ATOM     10  C   UNL     1      33.573  23.886  19.719  0.00  0.00    +0.205 C 
ATOM     11  C   UNL     1      33.912  24.337  21.153  0.00  0.00    +0.233 C 
ATOM     12  O   UNL     1      33.352  25.318  21.645  0.00  0.00    -0.274 OA
ATOM     13  H   UNL     1      33.040  23.748  17.379  0.00  0.00    +0.151 HD
BRANCH   3  15
ATOM     14  C   UNL     1      35.684  23.701  24.145  0.00  0.00    +0.024 C 
ATOM     15  C   UNL     1      35.726  24.414  22.800  0.00  0.00    +0.104 C 
ENDBRANCH   3  15
ENDBRANCH   1   9
BRANCH   1  16
ATOM     16  C   UNL     1      32.308  21.998  15.406  0.00  0.00    -0.024 A 
ATOM     17  C   UNL     1      32.383  20.727  14.805  0.00  0.00    +0.009 A 
ATOM     18  C   UNL     1      31.234  19.989  14.534  0.00  0.00    +0.049 A 
ATOM     19  C   UNL     1      29.977  20.523  14.813  0.00  0.00    +0.156 A 
ATOM     20  C   UNL     1      29.895  21.755  15.469  0.00  0.00    +0.165 A 
ATOM     21  F   UNL     1      28.701  22.272  15.793  0.00  0.00    -0.202 F 
ATOM     22  C   UNL     1      31.047  22.493  15.762  0.00  0.00    +0.047 A 
BRANCH  19  23
ATOM     23  O   UNL     1      28.801  19.915  14.459  0.00  0.00    -0.489 OA
BRANCH  23  24
ATOM     24  C   UNL     1      28.617  18.611  15.020  0.00  0.00    +0.232 C 
BRANCH  24  25
ATOM     25  C   UNL     1      27.259  18.536  15.637  0.00  0.00    +0.027 C 
ATOM     26  C   UNL     1      26.663  19.744  16.310  0.00  0.00    +0.007 C 
ATOM     27  C   UNL     1      27.090  18.562  17.137  0.00  0.00    +0.007 C 
ENDBRANCH  24  25
ENDBRANCH  23  24
ENDBRANCH  19  23
ENDBRANCH   1  16
TORSDOF 6
ENDMDL
MODEL 9
REMARK VINA RESULT:      -5.9      4.378      6.059
REMARK  Name = ZINC000543478179
REMARK  8 active torsions:
REMARK  status: ('A' for Active; 'I' for Inactive)
REMARK    1  A    between atoms: C_1  and  C_2
REMARK    2  A    between atoms: C_2  and  N_3
REMARK    3  A    between atoms: N_9  and  C_10
REMARK    4  A    between atoms: C_10  and  C_11
REMARK    5  A    between atoms: C_10  and  C_12
REMARK    6  A    between atoms: C_15  and  O_16
REMARK    7  A    between atoms: O_16  and  C_17
REMARK    8  A    between atoms: C_17  and  C_18
REMARK                            x       y       z     vdW  Elec       q    Type
REMARK                         _______ _______ _______ _____ _____    ______ ____
ROOT
ATOM      1  C   UNL     1      32.200  24.202  12.137  0.00  0.00    +0.102 C 
ATOM      2  C   UNL     1      30.773  24.751  12.005  0.00  0.00    +0.033 C 
ENDROOT
BRANCH   1   9
ATOM      3  N   UNL     1      31.824  17.988  13.588  0.00  0.00    -0.299 N 
ATOM      4  C   UNL     1      31.362  18.877  14.655  0.00  0.00    +0.127 C 
ATOM      5  C   UNL     1      32.314  20.057  14.869  0.00  0.00    +0.129 C 
ATOM      6  N   UNL     1      32.439  20.807  13.623  0.00  0.00    -0.275 N 
ATOM      7  C   UNL     1      32.223  22.178  13.612  0.00  0.00    +0.303 C 
ATOM      8  O   UNL     1      31.967  22.822  14.621  0.00  0.00    -0.253 OA
ATOM      9  N   UNL     1      32.283  22.758  12.368  0.00  0.00    -0.293 N 
ATOM     10  C   UNL     1      32.775  19.998  12.450  0.00  0.00    +0.205 C 
ATOM     11  C   UNL     1      32.632  18.468  12.561  0.00  0.00    +0.233 C 
ATOM     12  O   UNL     1      33.101  17.735  11.689  0.00  0.00    -0.274 OA
ATOM     13  H   UNL     1      32.890  22.286  11.721  0.00  0.00    +0.151 HD
BRANCH   3  15
ATOM     14  C   UNL     1      29.719  16.734  13.901  0.00  0.00    +0.024 C 
ATOM     15  C   UNL     1      31.158  16.700  13.404  0.00  0.00    +0.104 C 
ENDBRANCH   3  15
ENDBRANCH   1   9
BRANCH   1  16
ATOM     16  C   UNL     1      32.989  24.512  10.870  0.00  0.00    -0.024 A 
ATOM     17  C   UNL     1      32.329  24.530   9.626  0.00  0.00    +0.009 A 
ATOM     18  C   UNL     1      33.032  24.725   8.441  0.00  0.00    +0.049 A 
ATOM     19  C   UNL     1      34.420  24.860   8.463  0.00  0.00    +0.156 A 
ATOM     20  C   UNL     1      35.075  24.908   9.697  0.00  0.00    +0.165 A 
ATOM     21  F   UNL     1      36.403  25.085   9.752  0.00  0.00    -0.202 F 
ATOM     22  C   UNL     1      34.372  24.733  10.894  0.00  0.00    +0.047 A 
BRANCH  19  23
ATOM     23  O   UNL     1      35.192  24.926   7.333  0.00  0.00    -0.489 OA
BRANCH  23  24
ATOM     24  C   UNL     1      34.911  23.912   6.364  0.00  0.00    +0.232 C 
BRANCH  24  25
ATOM     25  C   UNL     1      35.784  22.730   6.632  0.00  0.00    +0.027 C 
ATOM     26  C   UNL     1      35.651  21.483   5.797  0.00  0.00    +0.007 C 
ATOM     27  C   UNL     1      35.213  21.470   7.236  0.00  0.00    +0.007 C 
ENDBRANCH  24  25
ENDBRANCH  23  24
ENDBRANCH  19  23
ENDBRANCH   1  16
TORSDOF 6
ENDMDL
