MODEL 1
REMARK VINA RESULT:      -6.4      0.000      0.000
REMARK  Name = ZINC000583127796
REMARK  2 active torsions:
REMARK  status: ('A' for Active; 'I' for Inactive)
REMARK    1  A    between atoms: C_2  and  C_4
REMARK    2  A    between atoms: C_7  and  C_8
REMARK                            x       y       z     vdW  Elec       q    Type
REMARK                         _______ _______ _______ _____ _____    ______ ____
ROOT
ATOM      1  C   UNL     1      32.220  22.881  14.253  0.00  0.00    +0.247 C 
ATOM      2  O   UNL     1      33.139  22.131  14.574  0.00  0.00    -0.270 OA
ATOM      3  N   UNL     1      32.375  23.912  13.311  0.00  0.00    -0.297 N 
ATOM      4  C   UNL     1      31.339  24.846  12.863  0.00  0.00    +0.108 C 
ATOM      5  C   UNL     1      31.179  24.852  11.353  0.00  0.00    +0.020 C 
ATOM      6  C   UNL     1      32.513  25.035  10.653  0.00  0.00    +0.011 C 
ATOM      7  C   UNL     1      33.588  24.027  11.128  0.00  0.00    -0.004 C 
ATOM      8  C   UNL     1      34.911  24.417  10.434  0.00  0.00    +0.020 C 
ATOM      9  C   UNL     1      35.825  23.214  10.359  0.00  0.00    +0.070 C 
ATOM     10  S   UNL     1      34.725  21.852   9.940  0.00  0.00    -0.160 S 
ATOM     11  C   UNL     1      33.242  22.587  10.686  0.00  0.00    +0.077 C 
ATOM     12  C   UNL     1      33.690  24.101  12.677  0.00  0.00    +0.115 C 
ENDROOT
BRANCH   1  16
ATOM     13  C   UNL     1      28.545  21.872  16.196  0.00  0.00    +0.037 A 
ATOM     14  C   UNL     1      28.921  21.176  15.043  0.00  0.00    +0.014 A 
ATOM     15  C   UNL     1      30.057  21.569  14.331  0.00  0.00    +0.014 A 
ATOM     16  C   UNL     1      30.876  22.589  14.825  0.00  0.00    +0.037 A 
ATOM     17  C   UNL     1      30.442  23.351  15.919  0.00  0.00    +0.014 A 
ATOM     18  C   UNL     1      29.271  22.999  16.597  0.00  0.00    +0.014 A 
BRANCH  13  20
ATOM     19  N   UNL     1      26.477  22.398  17.363  0.00  0.00    -0.325 N 
ATOM     20  C   UNL     1      27.384  21.437  17.015  0.00  0.00    +0.242 C 
ATOM     21  O   UNL     1      27.221  20.264  17.317  0.00  0.00    -0.270 OA
ATOM     22  H   UNL     1      25.630  22.065  17.808  0.00  0.00    +0.145 HD
ATOM     23  H   UNL     1      26.439  23.295  16.900  0.00  0.00    +0.145 HD
ENDBRANCH  13  20
ENDBRANCH   1  16
TORSDOF 2
ENDMDL
MODEL 2
REMARK VINA RESULT:      -6.3      3.490      5.314
REMARK  Name = ZINC000583127796
REMARK  2 active torsions:
REMARK  status: ('A' for Active; 'I' for Inactive)
REMARK    1  A    between atoms: C_2  and  C_4
REMARK    2  A    between atoms: C_7  and  C_8
REMARK                            x       y       z     vdW  Elec       q    Type
REMARK                         _______ _______ _______ _____ _____    ______ ____
ROOT
ATOM      1  C   UNL     1      33.162  25.356   9.147  0.00  0.00    +0.247 C 
ATOM      2  O   UNL     1      33.641  26.486   9.076  0.00  0.00    -0.270 OA
ATOM      3  N   UNL     1      33.288  24.412   8.114  0.00  0.00    -0.297 N 
ATOM      4  C   UNL     1      32.758  23.046   8.114  0.00  0.00    +0.108 C 
ATOM      5  C   UNL     1      33.832  22.010   7.833  0.00  0.00    +0.020 C 
ATOM      6  C   UNL     1      34.631  22.357   6.591  0.00  0.00    +0.011 C 
ATOM      7  C   UNL     1      35.197  23.799   6.620  0.00  0.00    -0.004 C 
ATOM      8  C   UNL     1      35.864  24.049   5.251  0.00  0.00    +0.020 C 
ATOM      9  C   UNL     1      36.909  25.136   5.381  0.00  0.00    +0.070 C 
ATOM     10  S   UNL     1      37.719  24.780   6.948  0.00  0.00    -0.160 S 
ATOM     11  C   UNL     1      36.291  23.951   7.702  0.00  0.00    +0.077 C 
ATOM     12  C   UNL     1      34.029  24.786   6.898  0.00  0.00    +0.115 C 
ENDROOT
BRANCH   1  16
ATOM     13  C   UNL     1      31.209  23.922  12.672  0.00  0.00    +0.037 A 
ATOM     14  C   UNL     1      30.632  24.973  11.952  0.00  0.00    +0.014 A 
ATOM     15  C   UNL     1      31.313  25.530  10.867  0.00  0.00    +0.014 A 
ATOM     16  C   UNL     1      32.521  24.972  10.435  0.00  0.00    +0.037 A 
ATOM     17  C   UNL     1      33.145  23.991  11.219  0.00  0.00    +0.014 A 
ATOM     18  C   UNL     1      32.494  23.475  12.343  0.00  0.00    +0.014 A 
BRANCH  13  20
ATOM     19  N   UNL     1      30.502  23.891  14.998  0.00  0.00    -0.325 N 
ATOM     20  C   UNL     1      30.482  23.261  13.786  0.00  0.00    +0.242 C 
ATOM     21  O   UNL     1      29.851  22.229  13.612  0.00  0.00    -0.270 OA
ATOM     22  H   UNL     1      29.897  23.498  15.710  0.00  0.00    +0.145 HD
ATOM     23  H   UNL     1      30.768  24.861  15.097  0.00  0.00    +0.145 HD
ENDBRANCH  13  20
ENDBRANCH   1  16
TORSDOF 2
ENDMDL
MODEL 3
REMARK VINA RESULT:      -6.1      3.004      3.735
REMARK  Name = ZINC000583127796
REMARK  2 active torsions:
REMARK  status: ('A' for Active; 'I' for Inactive)
REMARK    1  A    between atoms: C_2  and  C_4
REMARK    2  A    between atoms: C_7  and  C_8
REMARK                            x       y       z     vdW  Elec       q    Type
REMARK                         _______ _______ _______ _____ _____    ______ ____
ROOT
ATOM      1  C   UNL     1      32.346  20.072  12.850  0.00  0.00    +0.247 C 
ATOM      2  O   UNL     1      32.553  19.870  11.654  0.00  0.00    -0.270 OA
ATOM      3  N   UNL     1      32.974  21.106  13.564  0.00  0.00    -0.297 N 
ATOM      4  C   UNL     1      32.785  21.424  14.982  0.00  0.00    +0.108 C 
ATOM      5  C   UNL     1      32.384  22.872  15.201  0.00  0.00    +0.020 C 
ATOM      6  C   UNL     1      33.319  23.825  14.479  0.00  0.00    +0.011 C 
ATOM      7  C   UNL     1      33.490  23.481  12.978  0.00  0.00    -0.004 C 
ATOM      8  C   UNL     1      34.558  24.442  12.414  0.00  0.00    +0.020 C 
ATOM      9  C   UNL     1      34.377  24.591  10.919  0.00  0.00    +0.070 C 
ATOM     10  S   UNL     1      32.592  24.682  10.701  0.00  0.00    -0.160 S 
ATOM     11  C   UNL     1      32.182  23.732  12.192  0.00  0.00    +0.077 C 
ATOM     12  C   UNL     1      33.912  21.991  12.854  0.00  0.00    +0.115 C 
ENDROOT
BRANCH   1  16
ATOM     13  C   UNL     1      29.529  17.752  15.082  0.00  0.00    +0.037 A 
ATOM     14  C   UNL     1      30.487  17.096  14.302  0.00  0.00    +0.014 A 
ATOM     15  C   UNL     1      31.339  17.836  13.477  0.00  0.00    +0.014 A 
ATOM     16  C   UNL     1      31.306  19.234  13.508  0.00  0.00    +0.037 A 
ATOM     17  C   UNL     1      30.279  19.883  14.209  0.00  0.00    +0.014 A 
ATOM     18  C   UNL     1      29.384  19.141  14.985  0.00  0.00    +0.014 A 
BRANCH  13  20
ATOM     19  N   UNL     1      28.109  17.709  17.055  0.00  0.00    -0.325 N 
ATOM     20  C   UNL     1      28.656  17.002  16.022  0.00  0.00    +0.242 C 
ATOM     21  O   UNL     1      28.398  15.821  15.847  0.00  0.00    -0.270 OA
ATOM     22  H   UNL     1      27.417  17.217  17.608  0.00  0.00    +0.145 HD
ATOM     23  H   UNL     1      28.077  18.719  17.060  0.00  0.00    +0.145 HD
ENDBRANCH  13  20
ENDBRANCH   1  16
TORSDOF 2
ENDMDL
MODEL 4
REMARK VINA RESULT:      -6.0      5.582      6.558
REMARK  Name = ZINC000583127796
REMARK  2 active torsions:
REMARK  status: ('A' for Active; 'I' for Inactive)
REMARK    1  A    between atoms: C_2  and  C_4
REMARK    2  A    between atoms: C_7  and  C_8
REMARK                            x       y       z     vdW  Elec       q    Type
REMARK                         _______ _______ _______ _____ _____    ______ ____
ROOT
ATOM      1  C   UNL     1      32.108  16.610  13.319  0.00  0.00    +0.247 C 
ATOM      2  O   UNL     1      31.740  15.859  12.418  0.00  0.00    -0.270 OA
ATOM      3  N   UNL     1      33.371  16.506  13.925  0.00  0.00    -0.297 N 
ATOM      4  C   UNL     1      33.896  17.358  14.996  0.00  0.00    +0.108 C 
ATOM      5  C   UNL     1      35.231  17.984  14.634  0.00  0.00    +0.020 C 
ATOM      6  C   UNL     1      36.219  16.944  14.139  0.00  0.00    +0.011 C 
ATOM      7  C   UNL     1      35.650  16.068  12.995  0.00  0.00    -0.004 C 
ATOM      8  C   UNL     1      36.706  14.983  12.691  0.00  0.00    +0.020 C 
ATOM      9  C   UNL     1      36.530  14.479  11.274  0.00  0.00    +0.070 C 
ATOM     10  S   UNL     1      36.174  15.964  10.322  0.00  0.00    -0.160 S 
ATOM     11  C   UNL     1      35.449  16.892  11.703  0.00  0.00    +0.077 C 
ATOM     12  C   UNL     1      34.297  15.461  13.459  0.00  0.00    +0.115 C 
ENDROOT
BRANCH   1  16
ATOM     13  C   UNL     1      29.781  19.974  14.572  0.00  0.00    +0.037 A 
ATOM     14  C   UNL     1      29.519  18.718  15.128  0.00  0.00    +0.014 A 
ATOM     15  C   UNL     1      30.189  17.590  14.647  0.00  0.00    +0.014 A 
ATOM     16  C   UNL     1      31.194  17.728  13.685  0.00  0.00    +0.037 A 
ATOM     17  C   UNL     1      31.381  18.968  13.058  0.00  0.00    +0.014 A 
ATOM     18  C   UNL     1      30.666  20.087  13.493  0.00  0.00    +0.014 A 
BRANCH  13  20
ATOM     19  N   UNL     1      29.476  22.386  14.512  0.00  0.00    -0.325 N 
ATOM     20  C   UNL     1      29.139  21.203  15.107  0.00  0.00    +0.242 C 
ATOM     21  O   UNL     1      28.310  21.150  16.002  0.00  0.00    -0.270 OA
ATOM     22  H   UNL     1      28.936  23.194  14.799  0.00  0.00    +0.145 HD
ATOM     23  H   UNL     1      29.929  22.426  13.609  0.00  0.00    +0.145 HD
ENDBRANCH  13  20
ENDBRANCH   1  16
TORSDOF 2
ENDMDL
MODEL 5
REMARK VINA RESULT:      -6.0      4.670      5.794
REMARK  Name = ZINC000583127796
REMARK  2 active torsions:
REMARK  status: ('A' for Active; 'I' for Inactive)
REMARK    1  A    between atoms: C_2  and  C_4
REMARK    2  A    between atoms: C_7  and  C_8
REMARK                            x       y       z     vdW  Elec       q    Type
REMARK                         _______ _______ _______ _____ _____    ______ ____
ROOT
ATOM      1  C   UNL     1      31.721  18.849  12.886  0.00  0.00    +0.247 C 
ATOM      2  O   UNL     1      31.809  18.956  11.664  0.00  0.00    -0.270 OA
ATOM      3  N   UNL     1      32.261  17.763  13.594  0.00  0.00    -0.297 N 
ATOM      4  C   UNL     1      32.211  17.557  15.044  0.00  0.00    +0.108 C 
ATOM      5  C   UNL     1      33.588  17.343  15.645  0.00  0.00    +0.020 C 
ATOM      6  C   UNL     1      34.361  16.270  14.901  0.00  0.00    +0.011 C 
ATOM      7  C   UNL     1      34.418  16.517  13.373  0.00  0.00    -0.004 C 
ATOM      8  C   UNL     1      35.112  15.291  12.743  0.00  0.00    +0.020 C 
ATOM      9  C   UNL     1      35.724  15.675  11.413  0.00  0.00    +0.070 C 
ATOM     10  S   UNL     1      36.428  17.305  11.709  0.00  0.00    -0.160 S 
ATOM     11  C   UNL     1      35.276  17.758  13.036  0.00  0.00    +0.077 C 
ATOM     12  C   UNL     1      32.968  16.711  12.846  0.00  0.00    +0.115 C 
ENDROOT
BRANCH   1  16
ATOM     13  C   UNL     1      30.093  21.962  15.328  0.00  0.00    +0.037 A 
ATOM     14  C   UNL     1      29.233  21.005  14.779  0.00  0.00    +0.014 A 
ATOM     15  C   UNL     1      29.731  20.052  13.887  0.00  0.00    +0.014 A 
ATOM     16  C   UNL     1      31.102  19.987  13.622  0.00  0.00    +0.037 A 
ATOM     17  C   UNL     1      31.943  21.008  14.089  0.00  0.00    +0.014 A 
ATOM     18  C   UNL     1      31.435  22.001  14.932  0.00  0.00    +0.014 A 
BRANCH  13  20
ATOM     19  N   UNL     1      28.261  23.022  16.523  0.00  0.00    -0.325 N 
ATOM     20  C   UNL     1      29.611  22.945  16.332  0.00  0.00    +0.242 C 
ATOM     21  O   UNL     1      30.390  23.614  16.994  0.00  0.00    -0.270 OA
ATOM     22  H   UNL     1      27.957  23.600  17.299  0.00  0.00    +0.145 HD
ATOM     23  H   UNL     1      27.629  22.301  16.205  0.00  0.00    +0.145 HD
ENDBRANCH  13  20
ENDBRANCH   1  16
TORSDOF 2
ENDMDL
MODEL 6
REMARK VINA RESULT:      -5.8      3.408      4.022
REMARK  Name = ZINC000583127796
REMARK  2 active torsions:
REMARK  status: ('A' for Active; 'I' for Inactive)
REMARK    1  A    between atoms: C_2  and  C_4
REMARK    2  A    between atoms: C_7  and  C_8
REMARK                            x       y       z     vdW  Elec       q    Type
REMARK                         _______ _______ _______ _____ _____    ______ ____
ROOT
ATOM      1  C   UNL     1      33.758  21.782  12.018  0.00  0.00    +0.247 C 
ATOM      2  O   UNL     1      34.775  21.614  11.348  0.00  0.00    -0.270 OA
ATOM      3  N   UNL     1      33.155  23.041  12.180  0.00  0.00    -0.297 N 
ATOM      4  C   UNL     1      31.944  23.334  12.950  0.00  0.00    +0.108 C 
ATOM      5  C   UNL     1      30.892  24.051  12.123  0.00  0.00    +0.020 C 
ATOM      6  C   UNL     1      31.471  25.259  11.411  0.00  0.00    +0.011 C 
ATOM      7  C   UNL     1      32.740  24.923  10.588  0.00  0.00    -0.004 C 
ATOM      8  C   UNL     1      33.285  26.258  10.036  0.00  0.00    +0.020 C 
ATOM      9  C   UNL     1      34.119  25.999   8.799  0.00  0.00    +0.070 C 
ATOM     10  S   UNL     1      33.198  24.735   7.907  0.00  0.00    -0.160 S 
ATOM     11  C   UNL     1      32.402  24.026   9.375  0.00  0.00    +0.077 C 
ATOM     12  C   UNL     1      33.760  24.207  11.516  0.00  0.00    +0.115 C 
ENDROOT
BRANCH   1  16
ATOM     13  C   UNL     1      31.548  18.434  13.503  0.00  0.00    +0.037 A 
ATOM     14  C   UNL     1      32.080  19.357  14.410  0.00  0.00    +0.014 A 
ATOM     15  C   UNL     1      32.901  20.390  13.950  0.00  0.00    +0.014 A 
ATOM     16  C   UNL     1      33.107  20.565  12.578  0.00  0.00    +0.037 A 
ATOM     17  C   UNL     1      32.660  19.582  11.684  0.00  0.00    +0.014 A 
ATOM     18  C   UNL     1      31.892  18.511  12.148  0.00  0.00    +0.014 A 
BRANCH  13  20
ATOM     19  N   UNL     1      29.890  17.612  15.080  0.00  0.00    -0.325 N 
ATOM     20  C   UNL     1      30.616  17.366  13.948  0.00  0.00    +0.242 C 
ATOM     21  O   UNL     1      30.466  16.340  13.303  0.00  0.00    -0.270 OA
ATOM     22  H   UNL     1      29.169  16.934  15.297  0.00  0.00    +0.145 HD
ATOM     23  H   UNL     1      29.786  18.541  15.463  0.00  0.00    +0.145 HD
ENDBRANCH  13  20
ENDBRANCH   1  16
TORSDOF 2
ENDMDL
MODEL 7
REMARK VINA RESULT:      -5.8      3.770      7.908
REMARK  Name = ZINC000583127796
REMARK  2 active torsions:
REMARK  status: ('A' for Active; 'I' for Inactive)
REMARK    1  A    between atoms: C_2  and  C_4
REMARK    2  A    between atoms: C_7  and  C_8
REMARK                            x       y       z     vdW  Elec       q    Type
REMARK                         _______ _______ _______ _____ _____    ______ ____
ROOT
ATOM      1  C   UNL     1      32.250  24.553  11.063  0.00  0.00    +0.247 C 
ATOM      2  O   UNL     1      31.107  24.989  11.193  0.00  0.00    -0.270 OA
ATOM      3  N   UNL     1      33.017  24.099  12.148  0.00  0.00    -0.297 N 
ATOM      4  C   UNL     1      34.378  23.558  12.088  0.00  0.00    +0.108 C 
ATOM      5  C   UNL     1      34.484  22.187  12.730  0.00  0.00    +0.020 C 
ATOM      6  C   UNL     1      33.883  22.176  14.123  0.00  0.00    +0.011 C 
ATOM      7  C   UNL     1      32.439  22.734  14.162  0.00  0.00    -0.004 C 
ATOM      8  C   UNL     1      32.014  22.784  15.645  0.00  0.00    +0.020 C 
ATOM      9  C   UNL     1      30.504  22.743  15.748  0.00  0.00    +0.070 C 
ATOM     10  S   UNL     1      30.013  21.539  14.504  0.00  0.00    -0.160 S 
ATOM     11  C   UNL     1      31.454  21.793  13.431  0.00  0.00    +0.077 C 
ATOM     12  C   UNL     1      32.430  24.139  13.498  0.00  0.00    +0.115 C 
ENDROOT
BRANCH   1  16
ATOM     13  C   UNL     1      34.034  23.954   7.221  0.00  0.00    +0.037 A 
ATOM     14  C   UNL     1      34.096  25.220   7.813  0.00  0.00    +0.014 A 
ATOM     15  C   UNL     1      33.420  25.463   9.011  0.00  0.00    +0.014 A 
ATOM     16  C   UNL     1      32.768  24.417   9.673  0.00  0.00    +0.037 A 
ATOM     17  C   UNL     1      32.620  23.181   9.029  0.00  0.00    +0.014 A 
ATOM     18  C   UNL     1      33.243  22.954   7.798  0.00  0.00    +0.014 A 
BRANCH  13  20
ATOM     19  N   UNL     1      35.074  24.688   5.149  0.00  0.00    -0.325 N 
ATOM     20  C   UNL     1      34.798  23.643   5.986  0.00  0.00    +0.242 C 
ATOM     21  O   UNL     1      35.206  22.515   5.756  0.00  0.00    -0.270 OA
ATOM     22  H   UNL     1      35.703  24.484   4.381  0.00  0.00    +0.145 HD
ATOM     23  H   UNL     1      34.998  25.650   5.447  0.00  0.00    +0.145 HD
ENDBRANCH  13  20
ENDBRANCH   1  16
TORSDOF 2
ENDMDL
MODEL 8
REMARK VINA RESULT:      -5.7      7.162      8.825
REMARK  Name = ZINC000583127796
REMARK  2 active torsions:
REMARK  status: ('A' for Active; 'I' for Inactive)
REMARK    1  A    between atoms: C_2  and  C_4
REMARK    2  A    between atoms: C_7  and  C_8
REMARK                            x       y       z     vdW  Elec       q    Type
REMARK                         _______ _______ _______ _____ _____    ______ ____
ROOT
ATOM      1  C   UNL     1      33.897  23.759  20.397  0.00  0.00    +0.247 C 
ATOM      2  O   UNL     1      33.929  24.866  20.932  0.00  0.00    -0.270 OA
ATOM      3  N   UNL     1      34.946  22.832  20.509  0.00  0.00    -0.297 N 
ATOM      4  C   UNL     1      34.993  21.493  19.914  0.00  0.00    +0.108 C 
ATOM      5  C   UNL     1      35.263  20.412  20.944  0.00  0.00    +0.020 C 
ATOM      6  C   UNL     1      36.473  20.744  21.798  0.00  0.00    +0.011 C 
ATOM      7  C   UNL     1      36.395  22.156  22.431  0.00  0.00    -0.004 C 
ATOM      8  C   UNL     1      37.738  22.401  23.152  0.00  0.00    +0.020 C 
ATOM      9  C   UNL     1      37.553  23.432  24.244  0.00  0.00    +0.070 C 
ATOM     10  S   UNL     1      35.970  23.005  24.986  0.00  0.00    -0.160 S 
ATOM     11  C   UNL     1      35.278  22.231  23.498  0.00  0.00    +0.077 C 
ATOM     12  C   UNL     1      36.131  23.193  21.305  0.00  0.00    +0.115 C 
ENDROOT
BRANCH   1  16
ATOM     13  C   UNL     1      30.174  23.049  18.414  0.00  0.00    +0.037 A 
ATOM     14  C   UNL     1      30.347  22.593  19.725  0.00  0.00    +0.014 A 
ATOM     15  C   UNL     1      31.593  22.713  20.345  0.00  0.00    +0.014 A 
ATOM     16  C   UNL     1      32.637  23.381  19.698  0.00  0.00    +0.037 A 
ATOM     17  C   UNL     1      32.494  23.742  18.351  0.00  0.00    +0.014 A 
ATOM     18  C   UNL     1      31.266  23.565  17.706  0.00  0.00    +0.014 A 
BRANCH  13  20
ATOM     19  N   UNL     1      28.801  23.347  16.429  0.00  0.00    -0.325 N 
ATOM     20  C   UNL     1      28.846  23.000  17.750  0.00  0.00    +0.242 C 
ATOM     21  O   UNL     1      27.850  22.617  18.344  0.00  0.00    -0.270 OA
ATOM     22  H   UNL     1      27.918  23.185  15.960  0.00  0.00    +0.145 HD
ATOM     23  H   UNL     1      29.632  23.392  15.855  0.00  0.00    +0.145 HD
ENDBRANCH  13  20
ENDBRANCH   1  16
TORSDOF 2
ENDMDL
MODEL 9
REMARK VINA RESULT:      -5.7      6.359      8.196
REMARK  Name = ZINC000583127796
REMARK  2 active torsions:
REMARK  status: ('A' for Active; 'I' for Inactive)
REMARK    1  A    between atoms: C_2  and  C_4
REMARK    2  A    between atoms: C_7  and  C_8
REMARK                            x       y       z     vdW  Elec       q    Type
REMARK                         _______ _______ _______ _____ _____    ______ ____
ROOT
ATOM      1  C   UNL     1      33.570  23.775  19.480  0.00  0.00    +0.247 C 
ATOM      2  O   UNL     1      33.595  24.814  20.138  0.00  0.00    -0.270 OA
ATOM      3  N   UNL     1      34.452  22.707  19.713  0.00  0.00    -0.297 N 
ATOM      4  C   UNL     1      34.490  21.435  18.987  0.00  0.00    +0.108 C 
ATOM      5  C   UNL     1      34.385  20.237  19.914  0.00  0.00    +0.020 C 
ATOM      6  C   UNL     1      35.386  20.323  21.052  0.00  0.00    +0.011 C 
ATOM      7  C   UNL     1      35.316  21.668  21.816  0.00  0.00    -0.004 C 
ATOM      8  C   UNL     1      36.467  21.662  22.845  0.00  0.00    +0.020 C 
ATOM      9  C   UNL     1      36.142  22.605  23.984  0.00  0.00    +0.070 C 
ATOM     10  S   UNL     1      34.390  22.331  24.293  0.00  0.00    -0.160 S 
ATOM     11  C   UNL     1      33.993  21.797  22.605  0.00  0.00    +0.077 C 
ATOM     12  C   UNL     1      35.445  22.830  20.793  0.00  0.00    +0.115 C 
ENDROOT
BRANCH   1  16
ATOM     13  C   UNL     1      30.450  22.993  16.659  0.00  0.00    +0.037 A 
ATOM     14  C   UNL     1      31.715  23.367  16.192  0.00  0.00    +0.014 A 
ATOM     15  C   UNL     1      32.710  23.738  17.099  0.00  0.00    +0.014 A 
ATOM     16  C   UNL     1      32.479  23.637  18.475  0.00  0.00    +0.037 A 
ATOM     17  C   UNL     1      31.184  23.364  18.937  0.00  0.00    +0.014 A 
ATOM     18  C   UNL     1      30.168  23.054  18.029  0.00  0.00    +0.014 A 
BRANCH  13  20
ATOM     19  N   UNL     1      29.685  22.557  14.392  0.00  0.00    -0.325 N 
ATOM     20  C   UNL     1      29.392  22.525  15.727  0.00  0.00    +0.242 C 
ATOM     21  O   UNL     1      28.330  22.083  16.138  0.00  0.00    -0.270 OA
ATOM     22  H   UNL     1      29.007  22.117  13.781  0.00  0.00    +0.145 HD
ATOM     23  H   UNL     1      30.632  22.647  14.051  0.00  0.00    +0.145 HD
ENDBRANCH  13  20
ENDBRANCH   1  16
TORSDOF 2
ENDMDL
