MODEL 1
REMARK VINA RESULT:      -6.9      0.000      0.000
REMARK  Name = ZINC000583127796
REMARK  2 active torsions:
REMARK  status: ('A' for Active; 'I' for Inactive)
REMARK    1  A    between atoms: C_2  and  C_4
REMARK    2  A    between atoms: C_7  and  C_8
REMARK                            x       y       z     vdW  Elec       q    Type
REMARK                         _______ _______ _______ _____ _____    ______ ____
ROOT
ATOM      1  C   UNL     1      31.832  17.164  15.988  0.00  0.00    +0.247 C 
ATOM      2  O   UNL     1      33.036  16.923  15.925  0.00  0.00    -0.270 OA
ATOM      3  N   UNL     1      31.326  18.368  16.504  0.00  0.00    -0.297 N 
ATOM      4  C   UNL     1      29.914  18.745  16.612  0.00  0.00    +0.108 C 
ATOM      5  C   UNL     1      29.617  20.073  15.939  0.00  0.00    +0.020 C 
ATOM      6  C   UNL     1      30.576  21.157  16.398  0.00  0.00    +0.011 C 
ATOM      7  C   UNL     1      32.063  20.745  16.259  0.00  0.00    -0.004 C 
ATOM      8  C   UNL     1      32.905  21.880  16.881  0.00  0.00    +0.020 C 
ATOM      9  C   UNL     1      34.299  21.865  16.294  0.00  0.00    +0.070 C 
ATOM     10  S   UNL     1      34.035  21.523  14.546  0.00  0.00    -0.160 S 
ATOM     11  C   UNL     1      32.476  20.624  14.774  0.00  0.00    +0.077 C 
ATOM     12  C   UNL     1      32.273  19.388  16.986  0.00  0.00    +0.115 C 
ENDROOT
BRANCH   1  16
ATOM     13  C   UNL     1      28.988  14.589  14.097  0.00  0.00    +0.037 A 
ATOM     14  C   UNL     1      28.927  14.773  15.483  0.00  0.00    +0.014 A 
ATOM     15  C   UNL     1      29.917  15.516  16.130  0.00  0.00    +0.014 A 
ATOM     16  C   UNL     1      30.908  16.163  15.386  0.00  0.00    +0.037 A 
ATOM     17  C   UNL     1      31.027  15.892  14.015  0.00  0.00    +0.014 A 
ATOM     18  C   UNL     1      30.074  15.096  13.375  0.00  0.00    +0.014 A 
BRANCH  13  20
ATOM     19  N   UNL     1      28.311  12.927  12.457  0.00  0.00    -0.325 N 
ATOM     20  C   UNL     1      27.915  13.864  13.369  0.00  0.00    +0.242 C 
ATOM     21  O   UNL     1      26.734  14.060  13.612  0.00  0.00    -0.270 OA
ATOM     22  H   UNL     1      27.573  12.353  12.065  0.00  0.00    +0.145 HD
ATOM     23  H   UNL     1      29.249  12.553  12.441  0.00  0.00    +0.145 HD
ENDBRANCH  13  20
ENDBRANCH   1  16
TORSDOF 2
ENDMDL
MODEL 2
REMARK VINA RESULT:      -6.8      1.323      1.817
REMARK  Name = ZINC000583127796
REMARK  2 active torsions:
REMARK  status: ('A' for Active; 'I' for Inactive)
REMARK    1  A    between atoms: C_2  and  C_4
REMARK    2  A    between atoms: C_7  and  C_8
REMARK                            x       y       z     vdW  Elec       q    Type
REMARK                         _______ _______ _______ _____ _____    ______ ____
ROOT
ATOM      1  C   UNL     1      31.970  16.560  16.315  0.00  0.00    +0.247 C 
ATOM      2  O   UNL     1      32.936  15.823  16.500  0.00  0.00    -0.270 OA
ATOM      3  N   UNL     1      31.933  17.890  16.765  0.00  0.00    -0.297 N 
ATOM      4  C   UNL     1      30.833  18.841  16.585  0.00  0.00    +0.108 C 
ATOM      5  C   UNL     1      31.285  20.131  15.924  0.00  0.00    +0.020 C 
ATOM      6  C   UNL     1      32.495  20.721  16.624  0.00  0.00    +0.011 C 
ATOM      7  C   UNL     1      33.653  19.705  16.788  0.00  0.00    -0.004 C 
ATOM      8  C   UNL     1      34.748  20.401  17.625  0.00  0.00    +0.020 C 
ATOM      9  C   UNL     1      36.090  19.759  17.349  0.00  0.00    +0.070 C 
ATOM     10  S   UNL     1      36.081  19.472  15.572  0.00  0.00    -0.160 S 
ATOM     11  C   UNL     1      34.277  19.341  15.422  0.00  0.00    +0.077 C 
ATOM     12  C   UNL     1      33.101  18.429  17.482  0.00  0.00    +0.115 C 
ENDROOT
BRANCH   1  16
ATOM     13  C   UNL     1      28.893  14.654  14.035  0.00  0.00    +0.037 A 
ATOM     14  C   UNL     1      29.954  15.274  13.366  0.00  0.00    +0.014 A 
ATOM     15  C   UNL     1      30.904  15.999  14.089  0.00  0.00    +0.014 A 
ATOM     16  C   UNL     1      30.856  16.021  15.486  0.00  0.00    +0.037 A 
ATOM     17  C   UNL     1      29.738  15.490  16.145  0.00  0.00    +0.014 A 
ATOM     18  C   UNL     1      28.752  14.817  15.417  0.00  0.00    +0.014 A 
BRANCH  13  20
ATOM     19  N   UNL     1      28.401  12.946  12.375  0.00  0.00    -0.325 N 
ATOM     20  C   UNL     1      27.906  13.817  13.305  0.00  0.00    +0.242 C 
ATOM     21  O   UNL     1      26.713  13.868  13.562  0.00  0.00    -0.270 OA
ATOM     22  H   UNL     1      27.732  12.295  11.981  0.00  0.00    +0.145 HD
ATOM     23  H   UNL     1      29.377  12.688  12.345  0.00  0.00    +0.145 HD
ENDBRANCH  13  20
ENDBRANCH   1  16
TORSDOF 2
ENDMDL
MODEL 3
REMARK VINA RESULT:      -6.6      1.238      1.333
REMARK  Name = ZINC000583127796
REMARK  2 active torsions:
REMARK  status: ('A' for Active; 'I' for Inactive)
REMARK    1  A    between atoms: C_2  and  C_4
REMARK    2  A    between atoms: C_7  and  C_8
REMARK                            x       y       z     vdW  Elec       q    Type
REMARK                         _______ _______ _______ _____ _____    ______ ____
ROOT
ATOM      1  C   UNL     1      31.712  17.568  16.196  0.00  0.00    +0.247 C 
ATOM      2  O   UNL     1      32.604  17.232  16.972  0.00  0.00    -0.270 OA
ATOM      3  N   UNL     1      31.370  18.911  15.968  0.00  0.00    -0.297 N 
ATOM      4  C   UNL     1      30.330  19.403  15.060  0.00  0.00    +0.108 C 
ATOM      5  C   UNL     1      30.865  20.414  14.062  0.00  0.00    +0.020 C 
ATOM      6  C   UNL     1      31.648  21.517  14.751  0.00  0.00    +0.011 C 
ATOM      7  C   UNL     1      32.753  20.975  15.691  0.00  0.00    -0.004 C 
ATOM      8  C   UNL     1      33.367  22.193  16.414  0.00  0.00    +0.020 C 
ATOM      9  C   UNL     1      34.772  21.863  16.872  0.00  0.00    +0.070 C 
ATOM     10  S   UNL     1      35.472  20.930  15.502  0.00  0.00    -0.160 S 
ATOM     11  C   UNL     1      33.887  20.293  14.891  0.00  0.00    +0.077 C 
ATOM     12  C   UNL     1      32.112  19.963  16.681  0.00  0.00    +0.115 C 
ENDROOT
BRANCH   1  16
ATOM     13  C   UNL     1      29.701  14.744  13.689  0.00  0.00    +0.037 A 
ATOM     14  C   UNL     1      29.202  14.995  14.971  0.00  0.00    +0.014 A 
ATOM     15  C   UNL     1      29.910  15.825  15.844  0.00  0.00    +0.014 A 
ATOM     16  C   UNL     1      31.061  16.487  15.404  0.00  0.00    +0.037 A 
ATOM     17  C   UNL     1      31.614  16.153  14.159  0.00  0.00    +0.014 A 
ATOM     18  C   UNL     1      30.940  15.273  13.308  0.00  0.00    +0.014 A 
BRANCH  13  20
ATOM     19  N   UNL     1      27.947  13.129  13.213  0.00  0.00    -0.325 N 
ATOM     20  C   UNL     1      28.939  13.924  12.712  0.00  0.00    +0.242 C 
ATOM     21  O   UNL     1      29.154  13.998  11.512  0.00  0.00    -0.270 OA
ATOM     22  H   UNL     1      27.354  12.677  12.527  0.00  0.00    +0.145 HD
ATOM     23  H   UNL     1      27.569  13.258  14.141  0.00  0.00    +0.145 HD
ENDBRANCH  13  20
ENDBRANCH   1  16
TORSDOF 2
ENDMDL
MODEL 4
REMARK VINA RESULT:      -6.6      5.550      7.440
REMARK  Name = ZINC000583127796
REMARK  2 active torsions:
REMARK  status: ('A' for Active; 'I' for Inactive)
REMARK    1  A    between atoms: C_2  and  C_4
REMARK    2  A    between atoms: C_7  and  C_8
REMARK                            x       y       z     vdW  Elec       q    Type
REMARK                         _______ _______ _______ _____ _____    ______ ____
ROOT
ATOM      1  C   UNL     1      33.248  22.070  12.888  0.00  0.00    +0.247 C 
ATOM      2  O   UNL     1      33.922  21.107  12.528  0.00  0.00    -0.270 OA
ATOM      3  N   UNL     1      33.286  23.310  12.230  0.00  0.00    -0.297 N 
ATOM      4  C   UNL     1      32.517  24.507  12.582  0.00  0.00    +0.108 C 
ATOM      5  C   UNL     1      31.711  25.041  11.411  0.00  0.00    +0.020 C 
ATOM      6  C   UNL     1      32.571  25.209  10.173  0.00  0.00    +0.011 C 
ATOM      7  C   UNL     1      33.362  23.928   9.809  0.00  0.00    -0.004 C 
ATOM      8  C   UNL     1      34.282  24.287   8.622  0.00  0.00    +0.020 C 
ATOM      9  C   UNL     1      34.630  23.036   7.845  0.00  0.00    +0.070 C 
ATOM     10  S   UNL     1      33.089  22.106   7.799  0.00  0.00    -0.160 S 
ATOM     11  C   UNL     1      32.416  22.800   9.334  0.00  0.00    +0.077 C 
ATOM     12  C   UNL     1      34.162  23.465  11.057  0.00  0.00    +0.115 C 
ENDROOT
BRANCH   1  16
ATOM     13  C   UNL     1      30.323  21.767  15.995  0.00  0.00    +0.037 A 
ATOM     14  C   UNL     1      31.652  22.041  16.334  0.00  0.00    +0.014 A 
ATOM     15  C   UNL     1      32.640  22.029  15.345  0.00  0.00    +0.014 A 
ATOM     16  C   UNL     1      32.287  21.846  14.004  0.00  0.00    +0.037 A 
ATOM     17  C   UNL     1      30.976  21.468  13.682  0.00  0.00    +0.014 A 
ATOM     18  C   UNL     1      29.998  21.418  14.679  0.00  0.00    +0.014 A 
BRANCH  13  20
ATOM     19  N   UNL     1      28.447  22.954  16.986  0.00  0.00    -0.325 N 
ATOM     20  C   UNL     1      29.239  21.841  17.008  0.00  0.00    +0.242 C 
ATOM     21  O   UNL     1      29.033  20.925  17.789  0.00  0.00    -0.270 OA
ATOM     22  H   UNL     1      27.637  22.931  17.594  0.00  0.00    +0.145 HD
ATOM     23  H   UNL     1      28.415  23.577  16.192  0.00  0.00    +0.145 HD
ENDBRANCH  13  20
ENDBRANCH   1  16
TORSDOF 2
ENDMDL
MODEL 5
REMARK VINA RESULT:      -6.6      4.878      7.148
REMARK  Name = ZINC000583127796
REMARK  2 active torsions:
REMARK  status: ('A' for Active; 'I' for Inactive)
REMARK    1  A    between atoms: C_2  and  C_4
REMARK    2  A    between atoms: C_7  and  C_8
REMARK                            x       y       z     vdW  Elec       q    Type
REMARK                         _______ _______ _______ _____ _____    ______ ____
ROOT
ATOM      1  C   UNL     1      33.178  22.082  12.880  0.00  0.00    +0.247 C 
ATOM      2  O   UNL     1      33.896  21.146  12.534  0.00  0.00    -0.270 OA
ATOM      3  N   UNL     1      33.190  23.327  12.230  0.00  0.00    -0.297 N 
ATOM      4  C   UNL     1      32.368  24.493  12.566  0.00  0.00    +0.108 C 
ATOM      5  C   UNL     1      31.577  25.006  11.376  0.00  0.00    +0.020 C 
ATOM      6  C   UNL     1      32.465  25.212  10.163  0.00  0.00    +0.011 C 
ATOM      7  C   UNL     1      33.311  23.963   9.815  0.00  0.00    -0.004 C 
ATOM      8  C   UNL     1      34.251  24.363   8.657  0.00  0.00    +0.020 C 
ATOM      9  C   UNL     1      34.666  23.129   7.884  0.00  0.00    +0.070 C 
ATOM     10  S   UNL     1      33.161  22.146   7.788  0.00  0.00    -0.160 S 
ATOM     11  C   UNL     1      32.421  22.805   9.308  0.00  0.00    +0.077 C 
ATOM     12  C   UNL     1      34.092  23.521  11.084  0.00  0.00    +0.115 C 
ENDROOT
BRANCH   1  16
ATOM     13  C   UNL     1      30.546  20.985  16.069  0.00  0.00    +0.037 A 
ATOM     14  C   UNL     1      30.084  20.922  14.750  0.00  0.00    +0.014 A 
ATOM     15  C   UNL     1      30.889  21.386  13.707  0.00  0.00    +0.014 A 
ATOM     16  C   UNL     1      32.194  21.816  13.967  0.00  0.00    +0.037 A 
ATOM     17  C   UNL     1      32.616  21.975  15.294  0.00  0.00    +0.014 A 
ATOM     18  C   UNL     1      31.787  21.571  16.345  0.00  0.00    +0.014 A 
BRANCH  13  20
ATOM     19  N   UNL     1      29.944  19.121  17.510  0.00  0.00    -0.325 N 
ATOM     20  C   UNL     1      29.745  20.436  17.193  0.00  0.00    +0.242 C 
ATOM     21  O   UNL     1      28.983  21.141  17.837  0.00  0.00    -0.270 OA
ATOM     22  H   UNL     1      29.489  18.798  18.356  0.00  0.00    +0.145 HD
ATOM     23  H   UNL     1      30.751  18.606  17.189  0.00  0.00    +0.145 HD
ENDBRANCH  13  20
ENDBRANCH   1  16
TORSDOF 2
ENDMDL
MODEL 6
REMARK VINA RESULT:      -6.4      3.439      6.585
REMARK  Name = ZINC000583127796
REMARK  2 active torsions:
REMARK  status: ('A' for Active; 'I' for Inactive)
REMARK    1  A    between atoms: C_2  and  C_4
REMARK    2  A    between atoms: C_7  and  C_8
REMARK                            x       y       z     vdW  Elec       q    Type
REMARK                         _______ _______ _______ _____ _____    ______ ____
ROOT
ATOM      1  C   UNL     1      30.913  17.128  15.765  0.00  0.00    +0.247 C 
ATOM      2  O   UNL     1      30.051  16.503  15.149  0.00  0.00    -0.270 OA
ATOM      3  N   UNL     1      32.097  16.531  16.227  0.00  0.00    -0.297 N 
ATOM      4  C   UNL     1      33.179  17.195  16.961  0.00  0.00    +0.108 C 
ATOM      5  C   UNL     1      34.530  17.008  16.293  0.00  0.00    +0.020 C 
ATOM      6  C   UNL     1      34.804  15.547  15.989  0.00  0.00    +0.011 C 
ATOM      7  C   UNL     1      33.657  14.870  15.198  0.00  0.00    -0.004 C 
ATOM      8  C   UNL     1      34.014  13.372  15.080  0.00  0.00    +0.020 C 
ATOM      9  C   UNL     1      33.310  12.770  13.883  0.00  0.00    +0.070 C 
ATOM     10  S   UNL     1      33.448  14.036  12.611  0.00  0.00    -0.160 S 
ATOM     11  C   UNL     1      33.555  15.434  13.762  0.00  0.00    +0.077 C 
ATOM     12  C   UNL     1      32.323  15.101  15.960  0.00  0.00    +0.115 C 
ENDROOT
BRANCH   1  16
ATOM     13  C   UNL     1      29.940  21.274  16.173  0.00  0.00    +0.037 A 
ATOM     14  C   UNL     1      30.512  20.821  14.979  0.00  0.00    +0.014 A 
ATOM     15  C   UNL     1      30.942  19.496  14.871  0.00  0.00    +0.014 A 
ATOM     16  C   UNL     1      30.708  18.596  15.916  0.00  0.00    +0.037 A 
ATOM     17  C   UNL     1      30.232  19.075  17.144  0.00  0.00    +0.014 A 
ATOM     18  C   UNL     1      29.860  20.415  17.276  0.00  0.00    +0.014 A 
BRANCH  13  20
ATOM     19  N   UNL     1      30.185  23.664  15.798  0.00  0.00    -0.325 N 
ATOM     20  C   UNL     1      29.409  22.655  16.297  0.00  0.00    +0.242 C 
ATOM     21  O   UNL     1      28.306  22.874  16.775  0.00  0.00    -0.270 OA
ATOM     22  H   UNL     1      29.754  24.581  15.773  0.00  0.00    +0.145 HD
ATOM     23  H   UNL     1      30.949  23.490  15.161  0.00  0.00    +0.145 HD
ENDBRANCH  13  20
ENDBRANCH   1  16
TORSDOF 2
ENDMDL
MODEL 7
REMARK VINA RESULT:      -6.4      9.363     11.486
REMARK  Name = ZINC000583127796
REMARK  2 active torsions:
REMARK  status: ('A' for Active; 'I' for Inactive)
REMARK    1  A    between atoms: C_2  and  C_4
REMARK    2  A    between atoms: C_7  and  C_8
REMARK                            x       y       z     vdW  Elec       q    Type
REMARK                         _______ _______ _______ _____ _____    ______ ____
ROOT
ATOM      1  C   UNL     1      24.616  25.941  20.273  0.00  0.00    +0.247 C 
ATOM      2  O   UNL     1      24.290  25.762  21.445  0.00  0.00    -0.270 OA
ATOM      3  N   UNL     1      24.412  27.161  19.607  0.00  0.00    -0.297 N 
ATOM      4  C   UNL     1      24.773  27.468  18.221  0.00  0.00    +0.108 C 
ATOM      5  C   UNL     1      25.648  28.704  18.110  0.00  0.00    +0.020 C 
ATOM      6  C   UNL     1      25.049  29.879  18.861  0.00  0.00    +0.011 C 
ATOM      7  C   UNL     1      24.692  29.539  20.329  0.00  0.00    -0.004 C 
ATOM      8  C   UNL     1      23.979  30.775  20.918  0.00  0.00    +0.020 C 
ATOM      9  C   UNL     1      24.119  30.778  22.425  0.00  0.00    +0.070 C 
ATOM     10  S   UNL     1      25.816  30.249  22.709  0.00  0.00    -0.160 S 
ATOM     11  C   UNL     1      25.963  29.293  21.174  0.00  0.00    +0.077 C 
ATOM     12  C   UNL     1      23.788  28.274  20.341  0.00  0.00    +0.115 C 
ENDROOT
BRANCH   1  16
ATOM     13  C   UNL     1      26.941  23.039  18.158  0.00  0.00    +0.037 A 
ATOM     14  C   UNL     1      25.618  23.271  17.766  0.00  0.00    +0.014 A 
ATOM     15  C   UNL     1      24.810  24.129  18.517  0.00  0.00    +0.014 A 
ATOM     16  C   UNL     1      25.349  24.835  19.597  0.00  0.00    +0.037 A 
ATOM     17  C   UNL     1      26.639  24.523  20.049  0.00  0.00    +0.014 A 
ATOM     18  C   UNL     1      27.429  23.616  19.336  0.00  0.00    +0.014 A 
BRANCH  13  20
ATOM     19  N   UNL     1      27.737  20.836  17.505  0.00  0.00    -0.325 N 
ATOM     20  C   UNL     1      27.848  22.189  17.344  0.00  0.00    +0.242 C 
ATOM     21  O   UNL     1      28.618  22.676  16.531  0.00  0.00    -0.270 OA
ATOM     22  H   UNL     1      28.268  20.270  16.853  0.00  0.00    +0.145 HD
ATOM     23  H   UNL     1      26.936  20.410  17.948  0.00  0.00    +0.145 HD
ENDBRANCH  13  20
ENDBRANCH   1  16
TORSDOF 2
ENDMDL
MODEL 8
REMARK VINA RESULT:      -6.2      3.390      6.330
REMARK  Name = ZINC000583127796
REMARK  2 active torsions:
REMARK  status: ('A' for Active; 'I' for Inactive)
REMARK    1  A    between atoms: C_2  and  C_4
REMARK    2  A    between atoms: C_7  and  C_8
REMARK                            x       y       z     vdW  Elec       q    Type
REMARK                         _______ _______ _______ _____ _____    ______ ____
ROOT
ATOM      1  C   UNL     1      31.900  19.300  15.405  0.00  0.00    +0.247 C 
ATOM      2  O   UNL     1      33.012  19.807  15.538  0.00  0.00    -0.270 OA
ATOM      3  N   UNL     1      31.713  18.007  14.888  0.00  0.00    -0.297 N 
ATOM      4  C   UNL     1      30.432  17.321  14.700  0.00  0.00    +0.108 C 
ATOM      5  C   UNL     1      30.396  15.967  15.385  0.00  0.00    +0.020 C 
ATOM      6  C   UNL     1      31.602  15.123  15.017  0.00  0.00    +0.011 C 
ATOM      7  C   UNL     1      32.945  15.861  15.240  0.00  0.00    -0.004 C 
ATOM      8  C   UNL     1      34.061  14.938  14.702  0.00  0.00    +0.020 C 
ATOM      9  C   UNL     1      35.373  15.274  15.377  0.00  0.00    +0.070 C 
ATOM     10  S   UNL     1      34.921  15.565  17.095  0.00  0.00    -0.160 S 
ATOM     11  C   UNL     1      33.218  16.087  16.745  0.00  0.00    +0.077 C 
ATOM     12  C   UNL     1      32.895  17.223  14.494  0.00  0.00    +0.115 C 
ENDROOT
BRANCH   1  16
ATOM     13  C   UNL     1      28.814  21.753  17.067  0.00  0.00    +0.037 A 
ATOM     14  C   UNL     1      29.007  20.463  17.573  0.00  0.00    +0.014 A 
ATOM     15  C   UNL     1      29.931  19.608  16.965  0.00  0.00    +0.014 A 
ATOM     16  C   UNL     1      30.736  20.073  15.921  0.00  0.00    +0.037 A 
ATOM     17  C   UNL     1      30.468  21.326  15.350  0.00  0.00    +0.014 A 
ATOM     18  C   UNL     1      29.500  22.160  15.917  0.00  0.00    +0.014 A 
BRANCH  13  20
ATOM     19  N   UNL     1      28.378  23.385  18.816  0.00  0.00    -0.325 N 
ATOM     20  C   UNL     1      27.893  22.711  17.731  0.00  0.00    +0.242 C 
ATOM     21  O   UNL     1      26.772  22.923  17.295  0.00  0.00    -0.270 OA
ATOM     22  H   UNL     1      27.787  24.125  19.176  0.00  0.00    +0.145 HD
ATOM     23  H   UNL     1      29.367  23.438  19.019  0.00  0.00    +0.145 HD
ENDBRANCH  13  20
ENDBRANCH   1  16
TORSDOF 2
ENDMDL
MODEL 9
REMARK VINA RESULT:      -6.2      1.874      2.128
REMARK  Name = ZINC000583127796
REMARK  2 active torsions:
REMARK  status: ('A' for Active; 'I' for Inactive)
REMARK    1  A    between atoms: C_2  and  C_4
REMARK    2  A    between atoms: C_7  and  C_8
REMARK                            x       y       z     vdW  Elec       q    Type
REMARK                         _______ _______ _______ _____ _____    ______ ____
ROOT
ATOM      1  C   UNL     1      32.526  17.316  14.279  0.00  0.00    +0.247 C 
ATOM      2  O   UNL     1      33.692  16.969  14.105  0.00  0.00    -0.270 OA
ATOM      3  N   UNL     1      32.157  18.652  14.508  0.00  0.00    -0.297 N 
ATOM      4  C   UNL     1      30.798  19.157  14.719  0.00  0.00    +0.108 C 
ATOM      5  C   UNL     1      30.440  20.273  13.754  0.00  0.00    +0.020 C 
ATOM      6  C   UNL     1      31.500  21.359  13.739  0.00  0.00    +0.011 C 
ATOM      7  C   UNL     1      32.926  20.805  13.497  0.00  0.00    -0.004 C 
ATOM      8  C   UNL     1      33.901  21.994  13.640  0.00  0.00    +0.020 C 
ATOM      9  C   UNL     1      35.176  21.707  12.875  0.00  0.00    +0.070 C 
ATOM     10  S   UNL     1      34.608  20.928  11.355  0.00  0.00    -0.160 S 
ATOM     11  C   UNL     1      33.078  20.254  12.061  0.00  0.00    +0.077 C 
ATOM     12  C   UNL     1      33.208  19.683  14.534  0.00  0.00    +0.115 C 
ENDROOT
BRANCH   1  16
ATOM     13  C   UNL     1      29.324  14.556  13.622  0.00  0.00    +0.037 A 
ATOM     14  C   UNL     1      29.451  15.169  14.874  0.00  0.00    +0.014 A 
ATOM     15  C   UNL     1      30.555  15.982  15.142  0.00  0.00    +0.014 A 
ATOM     16  C   UNL     1      31.478  16.268  14.131  0.00  0.00    +0.037 A 
ATOM     17  C   UNL     1      31.406  15.572  12.915  0.00  0.00    +0.014 A 
ATOM     18  C   UNL     1      30.335  14.708  12.667  0.00  0.00    +0.014 A 
BRANCH  13  20
ATOM     19  N   UNL     1      28.294  12.762  12.344  0.00  0.00    -0.325 N 
ATOM     20  C   UNL     1      28.128  13.743  13.281  0.00  0.00    +0.242 C 
ATOM     21  O   UNL     1      27.060  13.910  13.850  0.00  0.00    -0.270 OA
ATOM     22  H   UNL     1      27.508  12.136  12.217  0.00  0.00    +0.145 HD
ATOM     23  H   UNL     1      29.207  12.425  12.073  0.00  0.00    +0.145 HD
ENDBRANCH  13  20
ENDBRANCH   1  16
TORSDOF 2
ENDMDL
