MODEL 1
REMARK VINA RESULT:      -7.2      0.000      0.000
REMARK  Name = ZINC000435351830
REMARK  5 active torsions:
REMARK  status: ('A' for Active; 'I' for Inactive)
REMARK    1  A    between atoms: C_2  and  C_3
REMARK    2  A    between atoms: C_7  and  C_8
REMARK    3  A    between atoms: C_8  and  C_9
REMARK    4  A    between atoms: N_11  and  C_12
REMARK    5  A    between atoms: C_12  and  C_13
REMARK                            x       y       z     vdW  Elec       q    Type
REMARK                         _______ _______ _______ _____ _____    ______ ____
ROOT
ATOM      1  C   UNL     1      28.350  22.057  17.526  0.00  0.00    +0.224 C 
ATOM      2  O   UNL     1      28.224  21.011  18.152  0.00  0.00    -0.275 OA
ATOM      3  N   UNL     1      27.382  23.021  17.423  0.00  0.00    -0.309 N 
ATOM      4  H   UNL     1      27.573  23.874  16.917  0.00  0.00    +0.149 HD
ENDROOT
BRANCH   1   5
ATOM      5  C   UNL     1      29.608  22.339  16.744  0.00  0.00    +0.072 C 
ATOM      6  C   UNL     1      30.029  23.790  16.542  0.00  0.00    +0.022 C 
ATOM      7  C   UNL     1      30.784  22.948  17.518  0.00  0.00    +0.022 C 
BRANCH   5  12
ATOM      8  C   UNL     1      30.687  18.946  15.315  0.00  0.00    +0.052 A 
ATOM      9  C   UNL     1      30.919  19.247  13.973  0.00  0.00    +0.019 A 
ATOM     10  C   UNL     1      30.675  20.537  13.500  0.00  0.00    +0.002 A 
ATOM     11  C   UNL     1      30.224  21.532  14.372  0.00  0.00    +0.005 A 
ATOM     12  C   UNL     1      30.012  21.264  15.736  0.00  0.00    -0.031 A 
ATOM     13  C   UNL     1      30.224  19.944  16.177  0.00  0.00    +0.023 A 
BRANCH   8  15
ATOM     14  N   UNL     1      31.163  16.563  16.221  0.00  0.00    -0.191 NA
ATOM     15  C   UNL     1      30.952  17.634  15.822  0.00  0.00    +0.099 C 
ENDBRANCH   8  15
ENDBRANCH   5  12
ENDBRANCH   1   5
BRANCH   3  16
ATOM     16  C   UNL     1      26.063  22.835  17.987  0.00  0.00    +0.159 C 
BRANCH  16  17
ATOM     17  C   UNL     1      25.105  23.956  17.650  0.00  0.00    +0.058 A 
ATOM     18  C   UNL     1      24.827  24.951  18.592  0.00  0.00    +0.028 A 
ATOM     19  C   UNL     1      23.921  25.959  18.267  0.00  0.00    +0.042 A 
ATOM     20  C   UNL     1      23.329  25.945  17.016  0.00  0.00    +0.141 A 
ATOM     21  F   UNL     1      22.449  26.894  16.672  0.00  0.00    -0.204 F 
ATOM     22  C   UNL     1      23.661  24.936  16.130  0.00  0.00    +0.149 A 
ATOM     23  N   UNL     1      24.539  23.943  16.414  0.00  0.00    -0.255 NA
ENDBRANCH  16  17
ENDBRANCH   3  16
TORSDOF 5
ENDMDL
MODEL 2
REMARK VINA RESULT:      -7.0      3.666      6.113
REMARK  Name = ZINC000435351830
REMARK  5 active torsions:
REMARK  status: ('A' for Active; 'I' for Inactive)
REMARK    1  A    between atoms: C_2  and  C_3
REMARK    2  A    between atoms: C_7  and  C_8
REMARK    3  A    between atoms: C_8  and  C_9
REMARK    4  A    between atoms: N_11  and  C_12
REMARK    5  A    between atoms: C_12  and  C_13
REMARK                            x       y       z     vdW  Elec       q    Type
REMARK                         _______ _______ _______ _____ _____    ______ ____
ROOT
ATOM      1  C   UNL     1      32.195  18.346  15.239  0.00  0.00    +0.224 C 
ATOM      2  O   UNL     1      32.459  18.878  14.167  0.00  0.00    -0.275 OA
ATOM      3  N   UNL     1      31.832  19.023  16.374  0.00  0.00    -0.309 N 
ATOM      4  H   UNL     1      31.595  18.510  17.211  0.00  0.00    +0.149 HD
ENDROOT
BRANCH   1   5
ATOM      5  C   UNL     1      32.316  16.852  15.405  0.00  0.00    +0.072 C 
ATOM      6  C   UNL     1      33.666  16.198  15.134  0.00  0.00    +0.022 C 
ATOM      7  C   UNL     1      33.208  16.351  16.547  0.00  0.00    +0.022 C 
BRANCH   5  12
ATOM      8  C   UNL     1      29.493  14.863  13.734  0.00  0.00    +0.052 A 
ATOM      9  C   UNL     1      28.570  14.727  14.771  0.00  0.00    +0.019 A 
ATOM     10  C   UNL     1      28.873  15.225  16.038  0.00  0.00    +0.002 A 
ATOM     11  C   UNL     1      30.085  15.882  16.264  0.00  0.00    +0.005 A 
ATOM     12  C   UNL     1      31.020  16.062  15.230  0.00  0.00    -0.031 A 
ATOM     13  C   UNL     1      30.709  15.511  13.973  0.00  0.00    +0.023 A 
BRANCH   8  15
ATOM     14  N   UNL     1      28.935  13.974  11.363  0.00  0.00    -0.191 NA
ATOM     15  C   UNL     1      29.191  14.377  12.422  0.00  0.00    +0.099 C 
ENDBRANCH   8  15
ENDBRANCH   5  12
ENDBRANCH   1   5
BRANCH   3  16
ATOM     16  C   UNL     1      31.817  20.469  16.422  0.00  0.00    +0.159 C 
BRANCH  16  17
ATOM     17  C   UNL     1      30.462  21.041  16.774  0.00  0.00    +0.058 A 
ATOM     18  C   UNL     1      29.394  20.189  17.067  0.00  0.00    +0.028 A 
ATOM     19  C   UNL     1      28.148  20.740  17.363  0.00  0.00    +0.042 A 
ATOM     20  C   UNL     1      28.012  22.117  17.363  0.00  0.00    +0.141 A 
ATOM     21  F   UNL     1      26.828  22.681  17.636  0.00  0.00    -0.204 F 
ATOM     22  C   UNL     1      29.116  22.899  17.076  0.00  0.00    +0.149 A 
ATOM     23  N   UNL     1      30.340  22.396  16.786  0.00  0.00    -0.255 NA
ENDBRANCH  16  17
ENDBRANCH   3  16
TORSDOF 5
ENDMDL
MODEL 3
REMARK VINA RESULT:      -7.0      3.984      6.100
REMARK  Name = ZINC000435351830
REMARK  5 active torsions:
REMARK  status: ('A' for Active; 'I' for Inactive)
REMARK    1  A    between atoms: C_2  and  C_3
REMARK    2  A    between atoms: C_7  and  C_8
REMARK    3  A    between atoms: C_8  and  C_9
REMARK    4  A    between atoms: N_11  and  C_12
REMARK    5  A    between atoms: C_12  and  C_13
REMARK                            x       y       z     vdW  Elec       q    Type
REMARK                         _______ _______ _______ _____ _____    ______ ____
ROOT
ATOM      1  C   UNL     1      30.522  18.989  15.723  0.00  0.00    +0.224 C 
ATOM      2  O   UNL     1      29.687  19.148  16.607  0.00  0.00    -0.275 OA
ATOM      3  N   UNL     1      30.872  19.944  14.805  0.00  0.00    -0.309 N 
ATOM      4  H   UNL     1      31.595  19.749  14.128  0.00  0.00    +0.149 HD
ENDROOT
BRANCH   1   5
ATOM      5  C   UNL     1      31.206  17.657  15.543  0.00  0.00    +0.072 C 
ATOM      6  C   UNL     1      32.645  17.642  15.040  0.00  0.00    +0.022 C 
ATOM      7  C   UNL     1      32.381  17.348  16.480  0.00  0.00    +0.022 C 
BRANCH   5  12
ATOM      8  C   UNL     1      29.290  14.903  13.684  0.00  0.00    +0.052 A 
ATOM      9  C   UNL     1      28.473  14.379  14.686  0.00  0.00    +0.019 A 
ATOM     10  C   UNL     1      28.572  14.869  15.988  0.00  0.00    +0.002 A 
ATOM     11  C   UNL     1      29.468  15.901  16.284  0.00  0.00    +0.005 A 
ATOM     12  C   UNL     1      30.280  16.470  15.287  0.00  0.00    -0.031 A 
ATOM     13  C   UNL     1      30.191  15.925  13.992  0.00  0.00    +0.023 A 
BRANCH   8  15
ATOM     14  N   UNL     1      29.093  14.030  11.249  0.00  0.00    -0.191 NA
ATOM     15  C   UNL     1      29.187  14.427  12.338  0.00  0.00    +0.099 C 
ENDBRANCH   8  15
ENDBRANCH   5  12
ENDBRANCH   1   5
BRANCH   3  16
ATOM     16  C   UNL     1      30.198  21.223  14.746  0.00  0.00    +0.159 C 
BRANCH  16  17
ATOM     17  C   UNL     1      30.494  22.108  15.936  0.00  0.00    +0.058 A 
ATOM     18  C   UNL     1      31.815  22.395  16.288  0.00  0.00    +0.028 A 
ATOM     19  C   UNL     1      32.063  23.193  17.404  0.00  0.00    +0.042 A 
ATOM     20  C   UNL     1      30.988  23.680  18.126  0.00  0.00    +0.141 A 
ATOM     21  F   UNL     1      31.189  24.444  19.208  0.00  0.00    -0.204 F 
ATOM     22  C   UNL     1      29.706  23.365  17.713  0.00  0.00    +0.149 A 
ATOM     23  N   UNL     1      29.431  22.595  16.632  0.00  0.00    -0.255 NA
ENDBRANCH  16  17
ENDBRANCH   3  16
TORSDOF 5
ENDMDL
MODEL 4
REMARK VINA RESULT:      -6.9      3.843      8.082
REMARK  Name = ZINC000435351830
REMARK  5 active torsions:
REMARK  status: ('A' for Active; 'I' for Inactive)
REMARK    1  A    between atoms: C_2  and  C_3
REMARK    2  A    between atoms: C_7  and  C_8
REMARK    3  A    between atoms: C_8  and  C_9
REMARK    4  A    between atoms: N_11  and  C_12
REMARK    5  A    between atoms: C_12  and  C_13
REMARK                            x       y       z     vdW  Elec       q    Type
REMARK                         _______ _______ _______ _____ _____    ______ ____
ROOT
ATOM      1  C   UNL     1      30.638  18.858  15.672  0.00  0.00    +0.224 C 
ATOM      2  O   UNL     1      29.907  18.561  16.610  0.00  0.00    -0.275 OA
ATOM      3  N   UNL     1      31.431  17.969  14.994  0.00  0.00    -0.309 N 
ATOM      4  H   UNL     1      31.980  18.283  14.207  0.00  0.00    +0.149 HD
ENDROOT
BRANCH   1   5
ATOM      5  C   UNL     1      30.764  20.290  15.219  0.00  0.00    +0.072 C 
ATOM      6  C   UNL     1      31.760  20.618  14.113  0.00  0.00    +0.022 C 
ATOM      7  C   UNL     1      30.301  20.611  13.793  0.00  0.00    +0.022 C 
BRANCH   5  12
ATOM      8  C   UNL     1      28.605  22.574  17.420  0.00  0.00    +0.052 A 
ATOM      9  C   UNL     1      29.560  23.385  18.035  0.00  0.00    +0.019 A 
ATOM     10  C   UNL     1      30.916  23.166  17.792  0.00  0.00    +0.002 A 
ATOM     11  C   UNL     1      31.318  22.155  16.914  0.00  0.00    +0.005 A 
ATOM     12  C   UNL     1      30.377  21.345  16.255  0.00  0.00    -0.031 A 
ATOM     13  C   UNL     1      29.018  21.558  16.553  0.00  0.00    +0.023 A 
BRANCH   8  15
ATOM     14  N   UNL     1      26.074  22.982  17.807  0.00  0.00    -0.191 NA
ATOM     15  C   UNL     1      27.209  22.797  17.642  0.00  0.00    +0.099 C 
ENDBRANCH   8  15
ENDBRANCH   5  12
ENDBRANCH   1   5
BRANCH   3  16
ATOM     16  C   UNL     1      31.540  16.585  15.403  0.00  0.00    +0.159 C 
BRANCH  16  17
ATOM     17  C   UNL     1      30.354  15.744  14.987  0.00  0.00    +0.058 A 
ATOM     18  C   UNL     1      30.119  15.478  13.636  0.00  0.00    +0.028 A 
ATOM     19  C   UNL     1      29.005  14.722  13.276  0.00  0.00    +0.042 A 
ATOM     20  C   UNL     1      28.167  14.254  14.273  0.00  0.00    +0.141 A 
ATOM     21  F   UNL     1      27.083  13.531  13.963  0.00  0.00    -0.204 F 
ATOM     22  C   UNL     1      28.467  14.547  15.591  0.00  0.00    +0.149 A 
ATOM     23  N   UNL     1      29.544  15.276  15.974  0.00  0.00    -0.255 NA
ENDBRANCH  16  17
ENDBRANCH   3  16
TORSDOF 5
ENDMDL
MODEL 5
REMARK VINA RESULT:      -6.8      4.697      8.461
REMARK  Name = ZINC000435351830
REMARK  5 active torsions:
REMARK  status: ('A' for Active; 'I' for Inactive)
REMARK    1  A    between atoms: C_2  and  C_3
REMARK    2  A    between atoms: C_7  and  C_8
REMARK    3  A    between atoms: C_8  and  C_9
REMARK    4  A    between atoms: N_11  and  C_12
REMARK    5  A    between atoms: C_12  and  C_13
REMARK                            x       y       z     vdW  Elec       q    Type
REMARK                         _______ _______ _______ _____ _____    ______ ____
ROOT
ATOM      1  C   UNL     1      31.058  18.471  16.232  0.00  0.00    +0.224 C 
ATOM      2  O   UNL     1      31.870  18.206  17.111  0.00  0.00    -0.275 OA
ATOM      3  N   UNL     1      30.278  17.544  15.592  0.00  0.00    -0.309 N 
ATOM      4  H   UNL     1      29.606  17.844  14.901  0.00  0.00    +0.149 HD
ENDROOT
BRANCH   1   5
ATOM      5  C   UNL     1      30.898  19.885  15.734  0.00  0.00    +0.072 C 
ATOM      6  C   UNL     1      32.049  20.518  14.961  0.00  0.00    +0.022 C 
ATOM      7  C   UNL     1      30.831  20.082  14.215  0.00  0.00    +0.022 C 
BRANCH   5  12
ATOM      8  C   UNL     1      29.540  22.746  17.900  0.00  0.00    +0.052 A 
ATOM      9  C   UNL     1      28.224  22.345  18.133  0.00  0.00    +0.019 A 
ATOM     10  C   UNL     1      27.742  21.175  17.547  0.00  0.00    +0.002 A 
ATOM     11  C   UNL     1      28.580  20.391  16.748  0.00  0.00    +0.005 A 
ATOM     12  C   UNL     1      29.919  20.754  16.523  0.00  0.00    -0.031 A 
ATOM     13  C   UNL     1      30.367  21.962  17.090  0.00  0.00    +0.023 A 
BRANCH   8  15
ATOM     14  N   UNL     1      30.466  24.897  19.012  0.00  0.00    -0.191 NA
ATOM     15  C   UNL     1      30.058  23.932  18.510  0.00  0.00    +0.099 C 
ENDBRANCH   8  15
ENDBRANCH   5  12
ENDBRANCH   1   5
BRANCH   3  16
ATOM     16  C   UNL     1      30.422  16.127  15.846  0.00  0.00    +0.159 C 
BRANCH  16  17
ATOM     17  C   UNL     1      29.778  15.262  14.785  0.00  0.00    +0.058 A 
ATOM     18  C   UNL     1      28.469  14.803  14.951  0.00  0.00    +0.028 A 
ATOM     19  C   UNL     1      27.906  13.985  13.971  0.00  0.00    +0.042 A 
ATOM     20  C   UNL     1      28.665  13.659  12.860  0.00  0.00    +0.141 A 
ATOM     21  F   UNL     1      28.159  12.871  11.903  0.00  0.00    -0.204 F 
ATOM     22  C   UNL     1      29.950  14.160  12.757  0.00  0.00    +0.149 A 
ATOM     23  N   UNL     1      30.525  14.958  13.689  0.00  0.00    -0.255 NA
ENDBRANCH  16  17
ENDBRANCH   3  16
TORSDOF 5
ENDMDL
MODEL 6
REMARK VINA RESULT:      -6.8      3.977      5.899
REMARK  Name = ZINC000435351830
REMARK  5 active torsions:
REMARK  status: ('A' for Active; 'I' for Inactive)
REMARK    1  A    between atoms: C_2  and  C_3
REMARK    2  A    between atoms: C_7  and  C_8
REMARK    3  A    between atoms: C_8  and  C_9
REMARK    4  A    between atoms: N_11  and  C_12
REMARK    5  A    between atoms: C_12  and  C_13
REMARK                            x       y       z     vdW  Elec       q    Type
REMARK                         _______ _______ _______ _____ _____    ______ ____
ROOT
ATOM      1  C   UNL     1      31.421  18.947  14.651  0.00  0.00    +0.224 C 
ATOM      2  O   UNL     1      32.042  19.344  13.671  0.00  0.00    -0.275 OA
ATOM      3  N   UNL     1      30.441  19.661  15.290  0.00  0.00    -0.309 N 
ATOM      4  H   UNL     1      29.949  19.252  16.071  0.00  0.00    +0.149 HD
ENDROOT
BRANCH   1   5
ATOM      5  C   UNL     1      31.748  17.617  15.281  0.00  0.00    +0.072 C 
ATOM      6  C   UNL     1      33.214  17.235  15.453  0.00  0.00    +0.022 C 
ATOM      7  C   UNL     1      32.429  17.649  16.654  0.00  0.00    +0.022 C 
BRANCH   5  12
ATOM      8  C   UNL     1      29.451  14.991  13.685  0.00  0.00    +0.052 A 
ATOM      9  C   UNL     1      28.606  14.652  14.742  0.00  0.00    +0.019 A 
ATOM     10  C   UNL     1      28.804  15.224  15.998  0.00  0.00    +0.002 A 
ATOM     11  C   UNL     1      29.829  16.155  16.194  0.00  0.00    +0.005 A 
ATOM     12  C   UNL     1      30.675  16.539  15.139  0.00  0.00    -0.031 A 
ATOM     13  C   UNL     1      30.481  15.913  13.893  0.00  0.00    +0.023 A 
BRANCH   8  15
ATOM     14  N   UNL     1      29.076  13.966  11.333  0.00  0.00    -0.191 NA
ATOM     15  C   UNL     1      29.251  14.430  12.384  0.00  0.00    +0.099 C 
ENDBRANCH   8  15
ENDBRANCH   5  12
ENDBRANCH   1   5
BRANCH   3  16
ATOM     16  C   UNL     1      30.115  21.016  14.902  0.00  0.00    +0.159 C 
BRANCH  16  17
ATOM     17  C   UNL     1      30.040  21.970  16.073  0.00  0.00    +0.058 A 
ATOM     18  C   UNL     1      29.033  21.829  17.032  0.00  0.00    +0.028 A 
ATOM     19  C   UNL     1      28.969  22.736  18.088  0.00  0.00    +0.042 A 
ATOM     20  C   UNL     1      29.912  23.747  18.156  0.00  0.00    +0.141 A 
ATOM     21  F   UNL     1      29.876  24.641  19.153  0.00  0.00    -0.204 F 
ATOM     22  C   UNL     1      30.887  23.819  17.179  0.00  0.00    +0.149 A 
ATOM     23  N   UNL     1      30.979  22.952  16.141  0.00  0.00    -0.255 NA
ENDBRANCH  16  17
ENDBRANCH   3  16
TORSDOF 5
ENDMDL
MODEL 7
REMARK VINA RESULT:      -6.8      5.387      8.448
REMARK  Name = ZINC000435351830
REMARK  5 active torsions:
REMARK  status: ('A' for Active; 'I' for Inactive)
REMARK    1  A    between atoms: C_2  and  C_3
REMARK    2  A    between atoms: C_7  and  C_8
REMARK    3  A    between atoms: C_8  and  C_9
REMARK    4  A    between atoms: N_11  and  C_12
REMARK    5  A    between atoms: C_12  and  C_13
REMARK                            x       y       z     vdW  Elec       q    Type
REMARK                         _______ _______ _______ _____ _____    ______ ____
ROOT
ATOM      1  C   UNL     1      32.467  16.676  16.199  0.00  0.00    +0.224 C 
ATOM      2  O   UNL     1      32.836  15.678  16.810  0.00  0.00    -0.275 OA
ATOM      3  N   UNL     1      31.911  16.657  14.947  0.00  0.00    -0.309 N 
ATOM      4  H   UNL     1      31.599  17.519  14.523  0.00  0.00    +0.149 HD
ENDROOT
BRANCH   1   5
ATOM      5  C   UNL     1      32.663  18.051  16.785  0.00  0.00    +0.072 C 
ATOM      6  C   UNL     1      33.557  18.198  18.011  0.00  0.00    +0.022 C 
ATOM      7  C   UNL     1      34.069  18.654  16.684  0.00  0.00    +0.022 C 
BRANCH   5  12
ATOM      8  C   UNL     1      30.606  20.825  15.114  0.00  0.00    +0.052 A 
ATOM      9  C   UNL     1      29.576  21.027  16.032  0.00  0.00    +0.019 A 
ATOM     10  C   UNL     1      29.500  20.231  17.175  0.00  0.00    +0.002 A 
ATOM     11  C   UNL     1      30.466  19.250  17.414  0.00  0.00    +0.005 A 
ATOM     12  C   UNL     1      31.534  19.046  16.522  0.00  0.00    -0.031 A 
ATOM     13  C   UNL     1      31.561  19.834  15.355  0.00  0.00    +0.023 A 
BRANCH   8  15
ATOM     14  N   UNL     1      30.785  22.320  13.002  0.00  0.00    -0.191 NA
ATOM     15  C   UNL     1      30.713  21.647  13.947  0.00  0.00    +0.099 C 
ENDBRANCH   8  15
ENDBRANCH   5  12
ENDBRANCH   1   5
BRANCH   3  16
ATOM     16  C   UNL     1      31.795  15.432  14.186  0.00  0.00    +0.159 C 
BRANCH  16  17
ATOM     17  C   UNL     1      30.365  14.981  13.997  0.00  0.00    +0.058 A 
ATOM     18  C   UNL     1      29.887  14.673  12.720  0.00  0.00    +0.028 A 
ATOM     19  C   UNL     1      28.557  14.283  12.567  0.00  0.00    +0.042 A 
ATOM     20  C   UNL     1      27.752  14.209  13.691  0.00  0.00    +0.141 A 
ATOM     21  F   UNL     1      26.468  13.845  13.581  0.00  0.00    -0.204 F 
ATOM     22  C   UNL     1      28.295  14.517  14.925  0.00  0.00    +0.149 A 
ATOM     23  N   UNL     1      29.584  14.896  15.107  0.00  0.00    -0.255 NA
ENDBRANCH  16  17
ENDBRANCH   3  16
TORSDOF 5
ENDMDL
MODEL 8
REMARK VINA RESULT:      -6.8      4.889      8.409
REMARK  Name = ZINC000435351830
REMARK  5 active torsions:
REMARK  status: ('A' for Active; 'I' for Inactive)
REMARK    1  A    between atoms: C_2  and  C_3
REMARK    2  A    between atoms: C_7  and  C_8
REMARK    3  A    between atoms: C_8  and  C_9
REMARK    4  A    between atoms: N_11  and  C_12
REMARK    5  A    between atoms: C_12  and  C_13
REMARK                            x       y       z     vdW  Elec       q    Type
REMARK                         _______ _______ _______ _____ _____    ______ ____
ROOT
ATOM      1  C   UNL     1      32.522  16.608  16.031  0.00  0.00    +0.224 C 
ATOM      2  O   UNL     1      32.776  15.619  16.710  0.00  0.00    -0.275 OA
ATOM      3  N   UNL     1      32.037  16.565  14.750  0.00  0.00    -0.309 N 
ATOM      4  H   UNL     1      31.818  17.424  14.266  0.00  0.00    +0.149 HD
ENDROOT
BRANCH   1   5
ATOM      5  C   UNL     1      32.792  17.993  16.559  0.00  0.00    +0.072 C 
ATOM      6  C   UNL     1      33.455  18.134  17.924  0.00  0.00    +0.022 C 
ATOM      7  C   UNL     1      34.262  18.408  16.698  0.00  0.00    +0.022 C 
BRANCH   5  12
ATOM      8  C   UNL     1      29.891  20.493  16.332  0.00  0.00    +0.052 A 
ATOM      9  C   UNL     1      30.041  21.009  15.045  0.00  0.00    +0.019 A 
ATOM     10  C   UNL     1      31.116  20.599  14.256  0.00  0.00    +0.002 A 
ATOM     11  C   UNL     1      32.025  19.655  14.740  0.00  0.00    +0.005 A 
ATOM     12  C   UNL     1      31.879  19.094  16.021  0.00  0.00    -0.031 A 
ATOM     13  C   UNL     1      30.812  19.558  16.814  0.00  0.00    +0.023 A 
BRANCH   8  15
ATOM     14  N   UNL     1      27.892  21.212  17.820  0.00  0.00    -0.191 NA
ATOM     15  C   UNL     1      28.783  20.885  17.149  0.00  0.00    +0.099 C 
ENDBRANCH   8  15
ENDBRANCH   5  12
ENDBRANCH   1   5
BRANCH   3  16
ATOM     16  C   UNL     1      31.868  15.313  14.044  0.00  0.00    +0.159 C 
BRANCH  16  17
ATOM     17  C   UNL     1      30.420  14.898  13.904  0.00  0.00    +0.058 A 
ATOM     18  C   UNL     1      29.912  14.531  12.655  0.00  0.00    +0.028 A 
ATOM     19  C   UNL     1      28.568  14.177  12.546  0.00  0.00    +0.042 A 
ATOM     20  C   UNL     1      27.780  14.196  13.684  0.00  0.00    +0.141 A 
ATOM     21  F   UNL     1      26.483  13.869  13.616  0.00  0.00    -0.204 F 
ATOM     22  C   UNL     1      28.354  14.559  14.889  0.00  0.00    +0.149 A 
ATOM     23  N   UNL     1      29.656  14.905  15.029  0.00  0.00    -0.255 NA
ENDBRANCH  16  17
ENDBRANCH   3  16
TORSDOF 5
ENDMDL
MODEL 9
REMARK VINA RESULT:      -6.5      3.972      6.204
REMARK  Name = ZINC000435351830
REMARK  5 active torsions:
REMARK  status: ('A' for Active; 'I' for Inactive)
REMARK    1  A    between atoms: C_2  and  C_3
REMARK    2  A    between atoms: C_7  and  C_8
REMARK    3  A    between atoms: C_8  and  C_9
REMARK    4  A    between atoms: N_11  and  C_12
REMARK    5  A    between atoms: C_12  and  C_13
REMARK                            x       y       z     vdW  Elec       q    Type
REMARK                         _______ _______ _______ _____ _____    ______ ____
ROOT
ATOM      1  C   UNL     1      32.096  18.578  14.493  0.00  0.00    +0.224 C 
ATOM      2  O   UNL     1      33.102  19.279  14.479  0.00  0.00    -0.275 OA
ATOM      3  N   UNL     1      30.824  19.042  14.282  0.00  0.00    -0.309 N 
ATOM      4  H   UNL     1      30.048  18.395  14.275  0.00  0.00    +0.149 HD
ENDROOT
BRANCH   1   5
ATOM      5  C   UNL     1      32.189  17.108  14.814  0.00  0.00    +0.072 C 
ATOM      6  C   UNL     1      33.360  16.622  15.660  0.00  0.00    +0.022 C 
ATOM      7  C   UNL     1      32.006  16.706  16.283  0.00  0.00    +0.022 C 
BRANCH   5  12
ATOM      8  C   UNL     1      29.565  14.789  13.247  0.00  0.00    +0.052 A 
ATOM      9  C   UNL     1      30.228  14.310  12.116  0.00  0.00    +0.019 A 
ATOM     10  C   UNL     1      31.508  14.773  11.815  0.00  0.00    +0.002 A 
ATOM     11  C   UNL     1      32.138  15.696  12.655  0.00  0.00    +0.005 A 
ATOM     12  C   UNL     1      31.507  16.171  13.818  0.00  0.00    -0.031 A 
ATOM     13  C   UNL     1      30.198  15.721  14.075  0.00  0.00    +0.023 A 
BRANCH   8  15
ATOM     14  N   UNL     1      27.197  13.916  13.842  0.00  0.00    -0.191 NA
ATOM     15  C   UNL     1      28.260  14.308  13.584  0.00  0.00    +0.099 C 
ENDBRANCH   8  15
ENDBRANCH   5  12
ENDBRANCH   1   5
BRANCH   3  16
ATOM     16  C   UNL     1      30.549  20.452  14.112  0.00  0.00    +0.159 C 
BRANCH  16  17
ATOM     17  C   UNL     1      30.048  21.118  15.374  0.00  0.00    +0.058 A 
ATOM     18  C   UNL     1      29.489  20.353  16.400  0.00  0.00    +0.028 A 
ATOM     19  C   UNL     1      29.010  20.993  17.542  0.00  0.00    +0.042 A 
ATOM     20  C   UNL     1      29.110  22.371  17.624  0.00  0.00    +0.141 A 
ATOM     21  F   UNL     1      28.655  23.020  18.704  0.00  0.00    -0.204 F 
ATOM     22  C   UNL     1      29.686  23.064  16.575  0.00  0.00    +0.149 A 
ATOM     23  N   UNL     1      30.163  22.472  15.453  0.00  0.00    -0.255 NA
ENDBRANCH  16  17
ENDBRANCH   3  16
TORSDOF 5
ENDMDL
