MODEL 1
REMARK VINA RESULT:      -6.7      0.000      0.000
REMARK  Name = ZINC000870248439
REMARK  2 active torsions:
REMARK  status: ('A' for Active; 'I' for Inactive)
REMARK    1  A    between atoms: C_2  and  C_4
REMARK    2  A    between atoms: C_7  and  C_8
REMARK                            x       y       z     vdW  Elec       q    Type
REMARK                         _______ _______ _______ _____ _____    ______ ____
ROOT
ATOM      1  C   UNL     1      30.143  23.428  13.162  0.00  0.00    +0.247 C 
ATOM      2  O   UNL     1      29.378  24.070  12.444  0.00  0.00    -0.270 OA
ATOM      3  N   UNL     1      31.536  23.445  13.009  0.00  0.00    -0.297 N 
ATOM      4  C   UNL     1      32.491  22.675  13.810  0.00  0.00    +0.108 C 
ATOM      5  C   UNL     1      33.777  23.435  14.110  0.00  0.00    +0.026 C 
ATOM      6  C   UNL     1      34.430  24.065  12.861  0.00  0.00    -0.025 C 
ATOM      7  C   UNL     1      35.585  24.975  13.350  0.00  0.00    +0.017 C 
ATOM      8  C   UNL     1      36.377  25.661  12.246  0.00  0.00    +0.069 C 
ATOM      9  S   UNL     1      37.167  24.473  11.125  0.00  0.00    -0.161 S 
ATOM     10  C   UNL     1      35.727  23.454  10.706  0.00  0.00    +0.069 C 
ATOM     11  C   UNL     1      35.006  22.949  11.951  0.00  0.00    +0.017 C 
ATOM     12  C   UNL     1      33.337  24.907  12.151  0.00  0.00    +0.026 C 
ATOM     13  C   UNL     1      32.080  24.101  11.823  0.00  0.00    +0.108 C 
ENDROOT
BRANCH   1  17
ATOM     14  C   UNL     1      28.136  21.265  16.248  0.00  0.00    +0.037 A 
ATOM     15  C   UNL     1      28.718  22.502  16.546  0.00  0.00    +0.014 A 
ATOM     16  C   UNL     1      29.459  23.170  15.572  0.00  0.00    +0.014 A 
ATOM     17  C   UNL     1      29.538  22.653  14.274  0.00  0.00    +0.037 A 
ATOM     18  C   UNL     1      29.032  21.376  14.002  0.00  0.00    +0.014 A 
ATOM     19  C   UNL     1      28.340  20.676  14.994  0.00  0.00    +0.014 A 
BRANCH  14  21
ATOM     20  N   UNL     1      27.596  19.242  17.483  0.00  0.00    -0.325 N 
ATOM     21  C   UNL     1      27.298  20.555  17.246  0.00  0.00    +0.242 C 
ATOM     22  O   UNL     1      26.417  21.129  17.868  0.00  0.00    -0.270 OA
ATOM     23  H   UNL     1      27.102  18.805  18.250  0.00  0.00    +0.145 HD
ATOM     24  H   UNL     1      28.468  18.824  17.189  0.00  0.00    +0.145 HD
ENDBRANCH  14  21
ENDBRANCH   1  17
TORSDOF 2
ENDMDL
MODEL 2
REMARK VINA RESULT:      -6.6      2.138      3.017
REMARK  Name = ZINC000870248439
REMARK  2 active torsions:
REMARK  status: ('A' for Active; 'I' for Inactive)
REMARK    1  A    between atoms: C_2  and  C_4
REMARK    2  A    between atoms: C_7  and  C_8
REMARK                            x       y       z     vdW  Elec       q    Type
REMARK                         _______ _______ _______ _____ _____    ______ ____
ROOT
ATOM      1  C   UNL     1      31.419  22.013  15.600  0.00  0.00    +0.247 C 
ATOM      2  O   UNL     1      32.098  21.169  16.185  0.00  0.00    -0.270 OA
ATOM      3  N   UNL     1      31.861  22.699  14.461  0.00  0.00    -0.297 N 
ATOM      4  C   UNL     1      31.111  23.736  13.748  0.00  0.00    +0.108 C 
ATOM      5  C   UNL     1      31.287  23.674  12.235  0.00  0.00    +0.026 C 
ATOM      6  C   UNL     1      32.762  23.599  11.786  0.00  0.00    -0.025 C 
ATOM      7  C   UNL     1      32.769  23.321  10.262  0.00  0.00    +0.017 C 
ATOM      8  C   UNL     1      34.151  23.249   9.626  0.00  0.00    +0.069 C 
ATOM      9  S   UNL     1      35.080  24.795   9.818  0.00  0.00    -0.161 S 
ATOM     10  C   UNL     1      34.919  25.020  11.610  0.00  0.00    +0.069 C 
ATOM     11  C   UNL     1      33.465  24.953  12.064  0.00  0.00    +0.017 C 
ATOM     12  C   UNL     1      33.414  22.421  12.557  0.00  0.00    +0.026 C 
ATOM     13  C   UNL     1      33.260  22.541  14.073  0.00  0.00    +0.108 C 
ENDROOT
BRANCH   1  17
ATOM     14  C   UNL     1      27.542  22.532  17.312  0.00  0.00    +0.037 A 
ATOM     15  C   UNL     1      27.692  21.701  16.197  0.00  0.00    +0.014 A 
ATOM     16  C   UNL     1      28.935  21.601  15.571  0.00  0.00    +0.014 A 
ATOM     17  C   UNL     1      30.048  22.252  16.115  0.00  0.00    +0.037 A 
ATOM     18  C   UNL     1      29.878  23.152  17.175  0.00  0.00    +0.014 A 
ATOM     19  C   UNL     1      28.621  23.300  17.767  0.00  0.00    +0.014 A 
BRANCH  14  21
ATOM     20  N   UNL     1      26.082  23.673  18.885  0.00  0.00    -0.325 N 
ATOM     21  C   UNL     1      26.246  22.618  18.031  0.00  0.00    +0.242 C 
ATOM     22  O   UNL     1      25.347  21.816  17.830  0.00  0.00    -0.270 OA
ATOM     23  H   UNL     1      25.154  23.790  19.273  0.00  0.00    +0.145 HD
ATOM     24  H   UNL     1      26.688  24.481  18.870  0.00  0.00    +0.145 HD
ENDBRANCH  14  21
ENDBRANCH   1  17
TORSDOF 2
ENDMDL
MODEL 3
REMARK VINA RESULT:      -6.5      1.753      2.170
REMARK  Name = ZINC000870248439
REMARK  2 active torsions:
REMARK  status: ('A' for Active; 'I' for Inactive)
REMARK    1  A    between atoms: C_2  and  C_4
REMARK    2  A    between atoms: C_7  and  C_8
REMARK                            x       y       z     vdW  Elec       q    Type
REMARK                         _______ _______ _______ _____ _____    ______ ____
ROOT
ATOM      1  C   UNL     1      31.215  22.956  13.768  0.00  0.00    +0.247 C 
ATOM      2  O   UNL     1      30.992  24.165  13.718  0.00  0.00    -0.270 OA
ATOM      3  N   UNL     1      32.262  22.339  13.070  0.00  0.00    -0.297 N 
ATOM      4  C   UNL     1      32.552  20.903  13.065  0.00  0.00    +0.108 C 
ATOM      5  C   UNL     1      34.043  20.590  13.060  0.00  0.00    +0.026 C 
ATOM      6  C   UNL     1      34.833  21.354  11.976  0.00  0.00    -0.025 C 
ATOM      7  C   UNL     1      36.340  21.104  12.237  0.00  0.00    +0.017 C 
ATOM      8  C   UNL     1      37.284  21.756  11.236  0.00  0.00    +0.069 C 
ATOM      9  S   UNL     1      37.005  21.170   9.542  0.00  0.00    -0.161 S 
ATOM     10  C   UNL     1      35.219  21.453   9.418  0.00  0.00    +0.069 C 
ATOM     11  C   UNL     1      34.458  20.810  10.573  0.00  0.00    +0.017 C 
ATOM     12  C   UNL     1      34.494  22.859  12.141  0.00  0.00    +0.026 C 
ATOM     13  C   UNL     1      32.993  23.142  12.093  0.00  0.00    +0.108 C 
ENDROOT
BRANCH   1  17
ATOM     14  C   UNL     1      28.545  20.848  16.348  0.00  0.00    +0.037 A 
ATOM     15  C   UNL     1      29.716  21.400  16.879  0.00  0.00    +0.014 A 
ATOM     16  C   UNL     1      30.642  22.005  16.028  0.00  0.00    +0.014 A 
ATOM     17  C   UNL     1      30.355  22.146  14.666  0.00  0.00    +0.037 A 
ATOM     18  C   UNL     1      29.228  21.516  14.124  0.00  0.00    +0.014 A 
ATOM     19  C   UNL     1      28.327  20.856  14.965  0.00  0.00    +0.014 A 
BRANCH  14  21
ATOM     20  N   UNL     1      27.635  18.908  17.495  0.00  0.00    -0.325 N 
ATOM     21  C   UNL     1      27.517  20.244  17.232  0.00  0.00    +0.242 C 
ATOM     22  O   UNL     1      26.637  20.918  17.746  0.00  0.00    -0.270 OA
ATOM     23  H   UNL     1      27.004  18.535  18.194  0.00  0.00    +0.145 HD
ATOM     24  H   UNL     1      28.482  18.392  17.307  0.00  0.00    +0.145 HD
ENDBRANCH  14  21
ENDBRANCH   1  17
TORSDOF 2
ENDMDL
MODEL 4
REMARK VINA RESULT:      -6.3     24.259     26.158
REMARK  Name = ZINC000870248439
REMARK  2 active torsions:
REMARK  status: ('A' for Active; 'I' for Inactive)
REMARK    1  A    between atoms: C_2  and  C_4
REMARK    2  A    between atoms: C_7  and  C_8
REMARK                            x       y       z     vdW  Elec       q    Type
REMARK                         _______ _______ _______ _____ _____    ______ ____
ROOT
ATOM      1  C   UNL     1      20.103   8.004  29.688  0.00  0.00    +0.247 C 
ATOM      2  O   UNL     1      20.280   8.966  28.941  0.00  0.00    -0.270 OA
ATOM      3  N   UNL     1      21.150   7.319  30.318  0.00  0.00    -0.297 N 
ATOM      4  C   UNL     1      21.001   6.149  31.186  0.00  0.00    +0.108 C 
ATOM      5  C   UNL     1      21.969   6.144  32.363  0.00  0.00    +0.026 C 
ATOM      6  C   UNL     1      23.437   6.393  31.958  0.00  0.00    -0.025 C 
ATOM      7  C   UNL     1      24.253   6.579  33.262  0.00  0.00    +0.017 C 
ATOM      8  C   UNL     1      25.746   6.801  33.062  0.00  0.00    +0.069 C 
ATOM      9  S   UNL     1      26.543   5.410  32.212  0.00  0.00    -0.161 S 
ATOM     10  C   UNL     1      25.448   5.272  30.774  0.00  0.00    +0.069 C 
ATOM     11  C   UNL     1      23.983   5.167  31.181  0.00  0.00    +0.017 C 
ATOM     12  C   UNL     1      23.463   7.693  31.111  0.00  0.00    +0.026 C 
ATOM     13  C   UNL     1      22.515   7.643  29.913  0.00  0.00    +0.108 C 
ENDROOT
BRANCH   1  17
ATOM     14  C   UNL     1      16.158   6.742  30.726  0.00  0.00    +0.037 A 
ATOM     15  C   UNL     1      16.832   6.095  29.684  0.00  0.00    +0.014 A 
ATOM     16  C   UNL     1      18.080   6.563  29.273  0.00  0.00    +0.014 A 
ATOM     17  C   UNL     1      18.698   7.611  29.963  0.00  0.00    +0.037 A 
ATOM     18  C   UNL     1      17.987   8.314  30.944  0.00  0.00    +0.014 A 
ATOM     19  C   UNL     1      16.710   7.885  31.318  0.00  0.00    +0.014 A 
BRANCH  14  21
ATOM     20  N   UNL     1      13.917   7.173  31.562  0.00  0.00    -0.325 N 
ATOM     21  C   UNL     1      14.853   6.237  31.221  0.00  0.00    +0.242 C 
ATOM     22  O   UNL     1      14.606   5.042  31.271  0.00  0.00    -0.270 OA
ATOM     23  H   UNL     1      12.994   6.819  31.780  0.00  0.00    +0.145 HD
ATOM     24  H   UNL     1      13.994   8.141  31.286  0.00  0.00    +0.145 HD
ENDBRANCH  14  21
ENDBRANCH   1  17
TORSDOF 2
ENDMDL
MODEL 5
REMARK VINA RESULT:      -6.3      3.868      7.836
REMARK  Name = ZINC000870248439
REMARK  2 active torsions:
REMARK  status: ('A' for Active; 'I' for Inactive)
REMARK    1  A    between atoms: C_2  and  C_4
REMARK    2  A    between atoms: C_7  and  C_8
REMARK                            x       y       z     vdW  Elec       q    Type
REMARK                         _______ _______ _______ _____ _____    ______ ____
ROOT
ATOM      1  C   UNL     1      31.693  24.117  11.386  0.00  0.00    +0.247 C 
ATOM      2  O   UNL     1      30.632  24.528  10.917  0.00  0.00    -0.270 OA
ATOM      3  N   UNL     1      31.899  23.910  12.756  0.00  0.00    -0.297 N 
ATOM      4  C   UNL     1      33.149  23.457  13.371  0.00  0.00    +0.108 C 
ATOM      5  C   UNL     1      32.935  22.506  14.542  0.00  0.00    +0.026 C 
ATOM      6  C   UNL     1      31.920  23.025  15.584  0.00  0.00    -0.025 C 
ATOM      7  C   UNL     1      31.647  21.871  16.580  0.00  0.00    +0.017 C 
ATOM      8  C   UNL     1      30.688  22.210  17.713  0.00  0.00    +0.069 C 
ATOM      9  S   UNL     1      31.292  23.576  18.742  0.00  0.00    -0.161 S 
ATOM     10  C   UNL     1      31.632  24.799  17.447  0.00  0.00    +0.069 C 
ATOM     11  C   UNL     1      32.525  24.232  16.349  0.00  0.00    +0.017 C 
ATOM     12  C   UNL     1      30.626  23.397  14.814  0.00  0.00    +0.026 C 
ATOM     13  C   UNL     1      30.871  24.389  13.677  0.00  0.00    +0.108 C 
ENDROOT
BRANCH   1  17
ATOM     14  C   UNL     1      34.694  23.357   8.445  0.00  0.00    +0.037 A 
ATOM     15  C   UNL     1      33.610  22.480   8.559  0.00  0.00    +0.014 A 
ATOM     16  C   UNL     1      32.676  22.664   9.579  0.00  0.00    +0.014 A 
ATOM     17  C   UNL     1      32.770  23.776  10.423  0.00  0.00    +0.037 A 
ATOM     18  C   UNL     1      33.902  24.599  10.366  0.00  0.00    +0.014 A 
ATOM     19  C   UNL     1      34.871  24.382   9.382  0.00  0.00    +0.014 A 
BRANCH  14  21
ATOM     20  N   UNL     1      35.575  24.110   6.309  0.00  0.00    -0.325 N 
ATOM     21  C   UNL     1      35.675  23.219   7.340  0.00  0.00    +0.242 C 
ATOM     22  O   UNL     1      36.565  22.383   7.373  0.00  0.00    -0.270 OA
ATOM     23  H   UNL     1      36.320  24.085   5.625  0.00  0.00    +0.145 HD
ATOM     24  H   UNL     1      35.032  24.960   6.379  0.00  0.00    +0.145 HD
ENDBRANCH  14  21
ENDBRANCH   1  17
TORSDOF 2
ENDMDL
MODEL 6
REMARK VINA RESULT:      -6.3      4.517      5.467
REMARK  Name = ZINC000870248439
REMARK  2 active torsions:
REMARK  status: ('A' for Active; 'I' for Inactive)
REMARK    1  A    between atoms: C_2  and  C_4
REMARK    2  A    between atoms: C_7  and  C_8
REMARK                            x       y       z     vdW  Elec       q    Type
REMARK                         _______ _______ _______ _____ _____    ______ ____
ROOT
ATOM      1  C   UNL     1      31.645  22.888  16.420  0.00  0.00    +0.247 C 
ATOM      2  O   UNL     1      32.265  22.625  15.390  0.00  0.00    -0.270 OA
ATOM      3  N   UNL     1      32.178  23.661  17.460  0.00  0.00    -0.297 N 
ATOM      4  C   UNL     1      31.501  23.975  18.720  0.00  0.00    +0.108 C 
ATOM      5  C   UNL     1      31.779  25.388  19.218  0.00  0.00    +0.026 C 
ATOM      6  C   UNL     1      33.280  25.749  19.250  0.00  0.00    -0.025 C 
ATOM      7  C   UNL     1      33.386  27.264  19.559  0.00  0.00    +0.017 C 
ATOM      8  C   UNL     1      34.807  27.801  19.668  0.00  0.00    +0.069 C 
ATOM      9  S   UNL     1      35.751  26.992  20.988  0.00  0.00    -0.161 S 
ATOM     10  C   UNL     1      35.472  25.258  20.537  0.00  0.00    +0.069 C 
ATOM     11  C   UNL     1      33.989  24.945  20.371  0.00  0.00    +0.017 C 
ATOM     12  C   UNL     1      33.853  25.440  17.843  0.00  0.00    +0.026 C 
ATOM     13  C   UNL     1      33.597  24.000  17.396  0.00  0.00    +0.108 C 
ENDROOT
BRANCH   1  17
ATOM     14  C   UNL     1      27.609  21.603  16.951  0.00  0.00    +0.037 A 
ATOM     15  C   UNL     1      28.641  20.660  17.017  0.00  0.00    +0.014 A 
ATOM     16  C   UNL     1      29.953  21.053  16.748  0.00  0.00    +0.014 A 
ATOM     17  C   UNL     1      30.247  22.400  16.511  0.00  0.00    +0.037 A 
ATOM     18  C   UNL     1      29.205  23.323  16.357  0.00  0.00    +0.014 A 
ATOM     19  C   UNL     1      27.883  22.921  16.567  0.00  0.00    +0.014 A 
BRANCH  14  21
ATOM     20  N   UNL     1      25.783  20.000  16.861  0.00  0.00    -0.325 N 
ATOM     21  C   UNL     1      26.211  21.228  17.283  0.00  0.00    +0.242 C 
ATOM     22  O   UNL     1      25.493  21.957  17.949  0.00  0.00    -0.270 OA
ATOM     23  H   UNL     1      24.875  19.706  17.197  0.00  0.00    +0.145 HD
ATOM     24  H   UNL     1      26.421  19.282  16.549  0.00  0.00    +0.145 HD
ENDBRANCH  14  21
ENDBRANCH   1  17
TORSDOF 2
ENDMDL
MODEL 7
REMARK VINA RESULT:      -6.2      6.139      7.587
REMARK  Name = ZINC000870248439
REMARK  2 active torsions:
REMARK  status: ('A' for Active; 'I' for Inactive)
REMARK    1  A    between atoms: C_2  and  C_4
REMARK    2  A    between atoms: C_7  and  C_8
REMARK                            x       y       z     vdW  Elec       q    Type
REMARK                         _______ _______ _______ _____ _____    ______ ____
ROOT
ATOM      1  C   UNL     1      31.586  24.299  18.996  0.00  0.00    +0.247 C 
ATOM      2  O   UNL     1      30.918  25.238  19.430  0.00  0.00    -0.270 OA
ATOM      3  N   UNL     1      32.661  23.735  19.695  0.00  0.00    -0.297 N 
ATOM      4  C   UNL     1      33.511  22.643  19.214  0.00  0.00    +0.108 C 
ATOM      5  C   UNL     1      33.920  21.669  20.311  0.00  0.00    +0.026 C 
ATOM      6  C   UNL     1      34.500  22.358  21.565  0.00  0.00    -0.025 C 
ATOM      7  C   UNL     1      34.660  21.271  22.659  0.00  0.00    +0.017 C 
ATOM      8  C   UNL     1      35.259  21.760  23.971  0.00  0.00    +0.069 C 
ATOM      9  S   UNL     1      36.924  22.447  23.755  0.00  0.00    -0.161 S 
ATOM     10  C   UNL     1      36.591  23.625  22.418  0.00  0.00    +0.069 C 
ATOM     11  C   UNL     1      35.890  22.962  21.236  0.00  0.00    +0.017 C 
ATOM     12  C   UNL     1      33.474  23.432  22.011  0.00  0.00    +0.026 C 
ATOM     13  C   UNL     1      33.123  24.420  20.899  0.00  0.00    +0.108 C 
ENDROOT
BRANCH   1  17
ATOM     14  C   UNL     1      30.171  22.823  15.248  0.00  0.00    +0.037 A 
ATOM     15  C   UNL     1      29.982  22.054  16.401  0.00  0.00    +0.014 A 
ATOM     16  C   UNL     1      30.525  22.481  17.613  0.00  0.00    +0.014 A 
ATOM     17  C   UNL     1      31.172  23.720  17.694  0.00  0.00    +0.037 A 
ATOM     18  C   UNL     1      31.439  24.443  16.525  0.00  0.00    +0.014 A 
ATOM     19  C   UNL     1      30.947  23.988  15.298  0.00  0.00    +0.014 A 
BRANCH  14  21
ATOM     20  N   UNL     1      29.916  23.148  12.853  0.00  0.00    -0.325 N 
ATOM     21  C   UNL     1      29.561  22.422  13.955  0.00  0.00    +0.242 C 
ATOM     22  O   UNL     1      28.819  21.456  13.868  0.00  0.00    -0.270 OA
ATOM     23  H   UNL     1      29.593  22.792  11.962  0.00  0.00    +0.145 HD
ATOM     24  H   UNL     1      30.715  23.767  12.846  0.00  0.00    +0.145 HD
ENDBRANCH  14  21
ENDBRANCH   1  17
TORSDOF 2
ENDMDL
MODEL 8
REMARK VINA RESULT:      -6.1      2.777      4.444
REMARK  Name = ZINC000870248439
REMARK  2 active torsions:
REMARK  status: ('A' for Active; 'I' for Inactive)
REMARK    1  A    between atoms: C_2  and  C_4
REMARK    2  A    between atoms: C_7  and  C_8
REMARK                            x       y       z     vdW  Elec       q    Type
REMARK                         _______ _______ _______ _____ _____    ______ ____
ROOT
ATOM      1  C   UNL     1      33.168  24.939  10.865  0.00  0.00    +0.247 C 
ATOM      2  O   UNL     1      33.295  26.142  10.639  0.00  0.00    -0.270 OA
ATOM      3  N   UNL     1      33.982  23.958  10.283  0.00  0.00    -0.297 N 
ATOM      4  C   UNL     1      33.854  22.514  10.488  0.00  0.00    +0.108 C 
ATOM      5  C   UNL     1      35.195  21.793  10.557  0.00  0.00    +0.026 C 
ATOM      6  C   UNL     1      36.144  22.140   9.390  0.00  0.00    -0.025 C 
ATOM      7  C   UNL     1      37.524  21.514   9.714  0.00  0.00    +0.017 C 
ATOM      8  C   UNL     1      38.592  21.722   8.648  0.00  0.00    +0.069 C 
ATOM      9  S   UNL     1      38.122  21.004   7.050  0.00  0.00    -0.161 S 
ATOM     10  C   UNL     1      36.486  21.762   6.852  0.00  0.00    +0.069 C 
ATOM     11  C   UNL     1      35.600  21.531   8.072  0.00  0.00    +0.017 C 
ATOM     12  C   UNL     1      36.249  23.687   9.332  0.00  0.00    +0.026 C 
ATOM     13  C   UNL     1      34.888  24.374   9.216  0.00  0.00    +0.108 C 
ENDROOT
BRANCH   1  17
ATOM     14  C   UNL     1      30.254  23.516  13.642  0.00  0.00    +0.037 A 
ATOM     15  C   UNL     1      29.830  24.077  12.432  0.00  0.00    +0.014 A 
ATOM     16  C   UNL     1      30.768  24.632  11.562  0.00  0.00    +0.014 A 
ATOM     17  C   UNL     1      32.134  24.543  11.853  0.00  0.00    +0.037 A 
ATOM     18  C   UNL     1      32.549  24.064  13.102  0.00  0.00    +0.014 A 
ATOM     19  C   UNL     1      31.607  23.560  14.002  0.00  0.00    +0.014 A 
BRANCH  14  21
ATOM     20  N   UNL     1      29.043  23.506  15.749  0.00  0.00    -0.325 N 
ATOM     21  C   UNL     1      29.287  22.870  14.564  0.00  0.00    +0.242 C 
ATOM     22  O   UNL     1      28.694  21.847  14.258  0.00  0.00    -0.270 OA
ATOM     23  H   UNL     1      28.294  23.124  16.314  0.00  0.00    +0.145 HD
ATOM     24  H   UNL     1      29.307  24.468  15.912  0.00  0.00    +0.145 HD
ENDBRANCH  14  21
ENDBRANCH   1  17
TORSDOF 2
ENDMDL
MODEL 9
REMARK VINA RESULT:      -6.0      2.444      3.427
REMARK  Name = ZINC000870248439
REMARK  2 active torsions:
REMARK  status: ('A' for Active; 'I' for Inactive)
REMARK    1  A    between atoms: C_2  and  C_4
REMARK    2  A    between atoms: C_7  and  C_8
REMARK                            x       y       z     vdW  Elec       q    Type
REMARK                         _______ _______ _______ _____ _____    ______ ____
ROOT
ATOM      1  C   UNL     1      32.808  21.440  13.872  0.00  0.00    +0.247 C 
ATOM      2  O   UNL     1      33.455  20.517  14.366  0.00  0.00    -0.270 OA
ATOM      3  N   UNL     1      33.174  22.082  12.681  0.00  0.00    -0.297 N 
ATOM      4  C   UNL     1      32.464  23.206  12.066  0.00  0.00    +0.108 C 
ATOM      5  C   UNL     1      32.433  23.139  10.544  0.00  0.00    +0.026 C 
ATOM      6  C   UNL     1      33.818  22.898   9.906  0.00  0.00    -0.025 C 
ATOM      7  C   UNL     1      33.593  22.637   8.396  0.00  0.00    +0.017 C 
ATOM      8  C   UNL     1      34.863  22.411   7.585  0.00  0.00    +0.069 C 
ATOM      9  S   UNL     1      35.982  23.837   7.646  0.00  0.00    -0.161 S 
ATOM     10  C   UNL     1      36.084  24.061   9.443  0.00  0.00    +0.069 C 
ATOM     11  C   UNL     1      34.703  24.159  10.083  0.00  0.00    +0.017 C 
ATOM     12  C   UNL     1      34.423  21.645  10.591  0.00  0.00    +0.026 C 
ATOM     13  C   UNL     1      34.483  21.766  12.114  0.00  0.00    +0.108 C 
ENDROOT
BRANCH   1  17
ATOM     14  C   UNL     1      29.228  22.327  16.022  0.00  0.00    +0.037 A 
ATOM     15  C   UNL     1      29.137  21.827  14.719  0.00  0.00    +0.014 A 
ATOM     16  C   UNL     1      30.299  21.626  13.973  0.00  0.00    +0.014 A 
ATOM     17  C   UNL     1      31.553  21.831  14.560  0.00  0.00    +0.037 A 
ATOM     18  C   UNL     1      31.640  22.416  15.829  0.00  0.00    +0.014 A 
ATOM     19  C   UNL     1      30.475  22.674  16.557  0.00  0.00    +0.014 A 
BRANCH  14  21
ATOM     20  N   UNL     1      27.524  23.772  16.979  0.00  0.00    -0.325 N 
ATOM     21  C   UNL     1      28.015  22.502  16.859  0.00  0.00    +0.242 C 
ATOM     22  O   UNL     1      27.448  21.550  17.374  0.00  0.00    -0.270 OA
ATOM     23  H   UNL     1      26.631  23.862  17.448  0.00  0.00    +0.145 HD
ATOM     24  H   UNL     1      27.806  24.522  16.364  0.00  0.00    +0.145 HD
ENDBRANCH  14  21
ENDBRANCH   1  17
TORSDOF 2
ENDMDL
