MODEL 1
REMARK VINA RESULT:      -7.7      0.000      0.000
REMARK  Name = ZINC000870248439
REMARK  2 active torsions:
REMARK  status: ('A' for Active; 'I' for Inactive)
REMARK    1  A    between atoms: C_2  and  C_4
REMARK    2  A    between atoms: C_7  and  C_8
REMARK                            x       y       z     vdW  Elec       q    Type
REMARK                         _______ _______ _______ _____ _____    ______ ____
ROOT
ATOM      1  C   UNL     1      29.341  17.365  16.558  0.00  0.00    +0.247 C 
ATOM      2  O   UNL     1      29.233  16.631  17.539  0.00  0.00    -0.270 OA
ATOM      3  N   UNL     1      29.594  18.740  16.652  0.00  0.00    -0.297 N 
ATOM      4  C   UNL     1      29.698  19.667  15.523  0.00  0.00    +0.108 C 
ATOM      5  C   UNL     1      30.767  20.735  15.715  0.00  0.00    +0.026 C 
ATOM      6  C   UNL     1      30.673  21.468  17.071  0.00  0.00    -0.025 C 
ATOM      7  C   UNL     1      31.938  22.352  17.209  0.00  0.00    +0.017 C 
ATOM      8  C   UNL     1      32.005  23.187  18.481  0.00  0.00    +0.069 C 
ATOM      9  S   UNL     1      30.615  24.343  18.621  0.00  0.00    -0.161 S 
ATOM     10  C   UNL     1      29.240  23.190  18.367  0.00  0.00    +0.069 C 
ATOM     11  C   UNL     1      29.411  22.370  17.094  0.00  0.00    +0.017 C 
ATOM     12  C   UNL     1      30.646  20.380  18.176  0.00  0.00    +0.026 C 
ATOM     13  C   UNL     1      29.532  19.352  17.977  0.00  0.00    +0.108 C 
ENDROOT
BRANCH   1  17
ATOM     14  C   UNL     1      29.033  15.271  12.850  0.00  0.00    +0.037 A 
ATOM     15  C   UNL     1      30.295  15.657  13.315  0.00  0.00    +0.014 A 
ATOM     16  C   UNL     1      30.398  16.426  14.474  0.00  0.00    +0.014 A 
ATOM     17  C   UNL     1      29.254  16.726  15.221  0.00  0.00    +0.037 A 
ATOM     18  C   UNL     1      27.988  16.417  14.708  0.00  0.00    +0.014 A 
ATOM     19  C   UNL     1      27.877  15.698  13.515  0.00  0.00    +0.014 A 
BRANCH  14  21
ATOM     20  N   UNL     1      28.788  13.063  11.863  0.00  0.00    -0.325 N 
ATOM     21  C   UNL     1      28.892  14.409  11.649  0.00  0.00    +0.242 C 
ATOM     22  O   UNL     1      28.819  14.882  10.525  0.00  0.00    -0.270 OA
ATOM     23  H   UNL     1      28.570  12.500  11.051  0.00  0.00    +0.145 HD
ATOM     24  H   UNL     1      28.581  12.674  12.772  0.00  0.00    +0.145 HD
ENDBRANCH  14  21
ENDBRANCH   1  17
TORSDOF 2
ENDMDL
MODEL 2
REMARK VINA RESULT:      -7.3      1.329      1.798
REMARK  Name = ZINC000870248439
REMARK  2 active torsions:
REMARK  status: ('A' for Active; 'I' for Inactive)
REMARK    1  A    between atoms: C_2  and  C_4
REMARK    2  A    between atoms: C_7  and  C_8
REMARK                            x       y       z     vdW  Elec       q    Type
REMARK                         _______ _______ _______ _____ _____    ______ ____
ROOT
ATOM      1  C   UNL     1      28.751  18.079  16.224  0.00  0.00    +0.247 C 
ATOM      2  O   UNL     1      27.827  18.013  17.034  0.00  0.00    -0.270 OA
ATOM      3  N   UNL     1      29.777  19.031  16.305  0.00  0.00    -0.297 N 
ATOM      4  C   UNL     1      30.879  19.179  15.352  0.00  0.00    +0.108 C 
ATOM      5  C   UNL     1      32.203  19.543  16.013  0.00  0.00    +0.026 C 
ATOM      6  C   UNL     1      32.101  20.737  16.986  0.00  0.00    -0.025 C 
ATOM      7  C   UNL     1      33.455  20.842  17.734  0.00  0.00    +0.017 C 
ATOM      8  C   UNL     1      33.557  21.997  18.720  0.00  0.00    +0.069 C 
ATOM      9  S   UNL     1      33.346  23.610  17.918  0.00  0.00    -0.161 S 
ATOM     10  C   UNL     1      31.789  23.306  17.041  0.00  0.00    +0.069 C 
ATOM     11  C   UNL     1      31.853  22.044  16.188  0.00  0.00    +0.017 C 
ATOM     12  C   UNL     1      30.954  20.419  17.980  0.00  0.00    +0.026 C 
ATOM     13  C   UNL     1      29.629  20.105  17.283  0.00  0.00    +0.108 C 
ENDROOT
BRANCH   1  17
ATOM     14  C   UNL     1      28.911  15.342  12.951  0.00  0.00    +0.037 A 
ATOM     15  C   UNL     1      27.671  15.666  13.512  0.00  0.00    +0.014 A 
ATOM     16  C   UNL     1      27.616  16.483  14.642  0.00  0.00    +0.014 A 
ATOM     17  C   UNL     1      28.787  17.052  15.153  0.00  0.00    +0.037 A 
ATOM     18  C   UNL     1      30.032  16.655  14.648  0.00  0.00    +0.014 A 
ATOM     19  C   UNL     1      30.094  15.790  13.553  0.00  0.00    +0.014 A 
BRANCH  14  21
ATOM     20  N   UNL     1      28.960  13.162  11.877  0.00  0.00    -0.325 N 
ATOM     21  C   UNL     1      29.000  14.519  11.719  0.00  0.00    +0.242 C 
ATOM     22  O   UNL     1      29.052  15.029  10.610  0.00  0.00    -0.270 OA
ATOM     23  H   UNL     1      28.897  12.617  11.026  0.00  0.00    +0.145 HD
ATOM     24  H   UNL     1      28.655  12.725  12.735  0.00  0.00    +0.145 HD
ENDBRANCH  14  21
ENDBRANCH   1  17
TORSDOF 2
ENDMDL
MODEL 3
REMARK VINA RESULT:      -6.9      1.923      2.305
REMARK  Name = ZINC000870248439
REMARK  2 active torsions:
REMARK  status: ('A' for Active; 'I' for Inactive)
REMARK    1  A    between atoms: C_2  and  C_4
REMARK    2  A    between atoms: C_7  and  C_8
REMARK                            x       y       z     vdW  Elec       q    Type
REMARK                         _______ _______ _______ _____ _____    ______ ____
ROOT
ATOM      1  C   UNL     1      29.104  16.752  14.870  0.00  0.00    +0.247 C 
ATOM      2  O   UNL     1      28.149  16.093  15.277  0.00  0.00    -0.270 OA
ATOM      3  N   UNL     1      29.412  18.034  15.347  0.00  0.00    -0.297 N 
ATOM      4  C   UNL     1      30.513  18.877  14.875  0.00  0.00    +0.108 C 
ATOM      5  C   UNL     1      31.182  19.673  15.988  0.00  0.00    +0.026 C 
ATOM      6  C   UNL     1      30.187  20.448  16.879  0.00  0.00    -0.025 C 
ATOM      7  C   UNL     1      30.986  21.018  18.078  0.00  0.00    +0.017 C 
ATOM      8  C   UNL     1      30.171  21.852  19.058  0.00  0.00    +0.069 C 
ATOM      9  S   UNL     1      29.421  23.303  18.270  0.00  0.00    -0.161 S 
ATOM     10  C   UNL     1      28.601  22.493  16.870  0.00  0.00    +0.069 C 
ATOM     11  C   UNL     1      29.563  21.618  16.075  0.00  0.00    +0.017 C 
ATOM     12  C   UNL     1      29.125  19.429  17.369  0.00  0.00    +0.026 C 
ATOM     13  C   UNL     1      28.440  18.683  16.224  0.00  0.00    +0.108 C 
ENDROOT
BRANCH   1  17
ATOM     14  C   UNL     1      31.572  14.646  12.095  0.00  0.00    +0.037 A 
ATOM     15  C   UNL     1      32.168  15.319  13.167  0.00  0.00    +0.014 A 
ATOM     16  C   UNL     1      31.381  16.090  14.022  0.00  0.00    +0.014 A 
ATOM     17  C   UNL     1      29.991  16.111  13.867  0.00  0.00    +0.037 A 
ATOM     18  C   UNL     1      29.407  15.512  12.744  0.00  0.00    +0.014 A 
ATOM     19  C   UNL     1      30.201  14.787  11.850  0.00  0.00    +0.014 A 
BRANCH  14  21
ATOM     20  N   UNL     1      31.917  12.503  11.001  0.00  0.00    -0.325 N 
ATOM     21  C   UNL     1      32.375  13.776  11.199  0.00  0.00    +0.242 C 
ATOM     22  O   UNL     1      33.368  14.192  10.622  0.00  0.00    -0.270 OA
ATOM     23  H   UNL     1      32.401  11.961  10.295  0.00  0.00    +0.145 HD
ATOM     24  H   UNL     1      30.978  12.221  11.244  0.00  0.00    +0.145 HD
ENDBRANCH  14  21
ENDBRANCH   1  17
TORSDOF 2
ENDMDL
MODEL 4
REMARK VINA RESULT:      -6.6     18.969     20.505
REMARK  Name = ZINC000870248439
REMARK  2 active torsions:
REMARK  status: ('A' for Active; 'I' for Inactive)
REMARK    1  A    between atoms: C_2  and  C_4
REMARK    2  A    between atoms: C_7  and  C_8
REMARK                            x       y       z     vdW  Elec       q    Type
REMARK                         _______ _______ _______ _____ _____    ______ ____
ROOT
ATOM      1  C   UNL     1      15.354   5.385  11.847  0.00  0.00    +0.247 C 
ATOM      2  O   UNL     1      14.760   4.801  12.753  0.00  0.00    -0.270 OA
ATOM      3  N   UNL     1      16.511   4.880  11.238  0.00  0.00    -0.297 N 
ATOM      4  C   UNL     1      17.277   5.547  10.183  0.00  0.00    +0.108 C 
ATOM      5  C   UNL     1      17.826   4.585   9.136  0.00  0.00    +0.026 C 
ATOM      6  C   UNL     1      18.579   3.379   9.739  0.00  0.00    -0.025 C 
ATOM      7  C   UNL     1      18.878   2.394   8.580  0.00  0.00    +0.017 C 
ATOM      8  C   UNL     1      19.655   1.147   8.979  0.00  0.00    +0.069 C 
ATOM      9  S   UNL     1      21.280   1.543   9.681  0.00  0.00    -0.161 S 
ATOM     10  C   UNL     1      20.776   2.739  10.947  0.00  0.00    +0.069 C 
ATOM     11  C   UNL     1      19.915   3.854  10.366  0.00  0.00    +0.017 C 
ATOM     12  C   UNL     1      17.632   2.724  10.779  0.00  0.00    +0.026 C 
ATOM     13  C   UNL     1      17.139   3.708  11.840  0.00  0.00    +0.108 C 
ENDROOT
BRANCH   1  17
ATOM     14  C   UNL     1      13.463   9.026  10.667  0.00  0.00    +0.037 A 
ATOM     15  C   UNL     1      13.206   7.856   9.945  0.00  0.00    +0.014 A 
ATOM     16  C   UNL     1      13.892   6.684  10.261  0.00  0.00    +0.014 A 
ATOM     17  C   UNL     1      14.761   6.654  11.357  0.00  0.00    +0.037 A 
ATOM     18  C   UNL     1      15.085   7.844  12.021  0.00  0.00    +0.014 A 
ATOM     19  C   UNL     1      14.443   9.034  11.668  0.00  0.00    +0.014 A 
BRANCH  14  21
ATOM     20  N   UNL     1      12.083  10.364   9.179  0.00  0.00    -0.325 N 
ATOM     21  C   UNL     1      12.711  10.276  10.390  0.00  0.00    +0.242 C 
ATOM     22  O   UNL     1      12.610  11.162  11.224  0.00  0.00    -0.270 OA
ATOM     23  H   UNL     1      11.475  11.163   9.050  0.00  0.00    +0.145 HD
ATOM     24  H   UNL     1      11.928   9.558   8.589  0.00  0.00    +0.145 HD
ENDBRANCH  14  21
ENDBRANCH   1  17
TORSDOF 2
ENDMDL
MODEL 5
REMARK VINA RESULT:      -6.6      4.120      7.043
REMARK  Name = ZINC000870248439
REMARK  2 active torsions:
REMARK  status: ('A' for Active; 'I' for Inactive)
REMARK    1  A    between atoms: C_2  and  C_4
REMARK    2  A    between atoms: C_7  and  C_8
REMARK                            x       y       z     vdW  Elec       q    Type
REMARK                         _______ _______ _______ _____ _____    ______ ____
ROOT
ATOM      1  C   UNL     1      29.449  17.687  14.940  0.00  0.00    +0.247 C 
ATOM      2  O   UNL     1      28.712  16.945  14.291  0.00  0.00    -0.270 OA
ATOM      3  N   UNL     1      30.799  17.405  15.185  0.00  0.00    -0.297 N 
ATOM      4  C   UNL     1      31.712  18.232  15.979  0.00  0.00    +0.108 C 
ATOM      5  C   UNL     1      33.126  18.281  15.414  0.00  0.00    +0.026 C 
ATOM      6  C   UNL     1      33.716  16.890  15.099  0.00  0.00    -0.025 C 
ATOM      7  C   UNL     1      35.047  17.112  14.337  0.00  0.00    +0.017 C 
ATOM      8  C   UNL     1      35.799  15.840  13.970  0.00  0.00    +0.069 C 
ATOM      9  S   UNL     1      36.258  14.865  15.429  0.00  0.00    -0.161 S 
ATOM     10  C   UNL     1      34.639  14.757  16.238  0.00  0.00    +0.069 C 
ATOM     11  C   UNL     1      34.001  16.129  16.420  0.00  0.00    +0.017 C 
ATOM     12  C   UNL     1      32.690  16.154  14.198  0.00  0.00    +0.026 C 
ATOM     13  C   UNL     1      31.294  16.081  14.817  0.00  0.00    +0.108 C 
ENDROOT
BRANCH   1  17
ATOM     14  C   UNL     1      28.015  21.394  16.500  0.00  0.00    +0.037 A 
ATOM     15  C   UNL     1      27.438  20.198  16.940  0.00  0.00    +0.014 A 
ATOM     16  C   UNL     1      27.832  18.989  16.366  0.00  0.00    +0.014 A 
ATOM     17  C   UNL     1      28.867  18.964  15.424  0.00  0.00    +0.037 A 
ATOM     18  C   UNL     1      29.378  20.166  14.921  0.00  0.00    +0.014 A 
ATOM     19  C   UNL     1      28.944  21.384  15.452  0.00  0.00    +0.014 A 
BRANCH  14  21
ATOM     20  N   UNL     1      28.689  23.513  17.483  0.00  0.00    -0.325 N 
ATOM     21  C   UNL     1      27.656  22.691  17.127  0.00  0.00    +0.242 C 
ATOM     22  O   UNL     1      26.493  23.033  17.271  0.00  0.00    -0.270 OA
ATOM     23  H   UNL     1      28.432  24.441  17.794  0.00  0.00    +0.145 HD
ATOM     24  H   UNL     1      29.630  23.378  17.141  0.00  0.00    +0.145 HD
ENDBRANCH  14  21
ENDBRANCH   1  17
TORSDOF 2
ENDMDL
MODEL 6
REMARK VINA RESULT:      -6.5      4.155      7.783
REMARK  Name = ZINC000870248439
REMARK  2 active torsions:
REMARK  status: ('A' for Active; 'I' for Inactive)
REMARK    1  A    between atoms: C_2  and  C_4
REMARK    2  A    between atoms: C_7  and  C_8
REMARK                            x       y       z     vdW  Elec       q    Type
REMARK                         _______ _______ _______ _____ _____    ______ ____
ROOT
ATOM      1  C   UNL     1      28.873  16.321  13.827  0.00  0.00    +0.247 C 
ATOM      2  O   UNL     1      27.851  15.820  13.362  0.00  0.00    -0.270 OA
ATOM      3  N   UNL     1      30.163  15.926  13.448  0.00  0.00    -0.297 N 
ATOM      4  C   UNL     1      31.413  16.461  13.993  0.00  0.00    +0.108 C 
ATOM      5  C   UNL     1      32.513  16.605  12.949  0.00  0.00    +0.026 C 
ATOM      6  C   UNL     1      32.737  15.332  12.106  0.00  0.00    -0.025 C 
ATOM      7  C   UNL     1      33.714  15.699  10.961  0.00  0.00    +0.017 C 
ATOM      8  C   UNL     1      34.086  14.548  10.036  0.00  0.00    +0.069 C 
ATOM      9  S   UNL     1      34.899  13.189  10.919  0.00  0.00    -0.161 S 
ATOM     10  C   UNL     1      33.691  12.930  12.247  0.00  0.00    +0.069 C 
ATOM     11  C   UNL     1      33.371  14.224  12.986  0.00  0.00    +0.017 C 
ATOM     12  C   UNL     1      31.357  14.918  11.531  0.00  0.00    +0.026 C 
ATOM     13  C   UNL     1      30.290  14.736  12.610  0.00  0.00    +0.108 C 
ENDROOT
BRANCH   1  17
ATOM     14  C   UNL     1      28.139  19.611  16.448  0.00  0.00    +0.037 A 
ATOM     15  C   UNL     1      29.185  19.694  15.523  0.00  0.00    +0.014 A 
ATOM     16  C   UNL     1      29.495  18.589  14.729  0.00  0.00    +0.014 A 
ATOM     17  C   UNL     1      28.702  17.437  14.790  0.00  0.00    +0.037 A 
ATOM     18  C   UNL     1      27.715  17.324  15.777  0.00  0.00    +0.014 A 
ATOM     19  C   UNL     1      27.440  18.408  16.615  0.00  0.00    +0.014 A 
BRANCH  14  21
ATOM     20  N   UNL     1      28.573  21.111  18.310  0.00  0.00    -0.325 N 
ATOM     21  C   UNL     1      27.750  20.785  17.268  0.00  0.00    +0.242 C 
ATOM     22  O   UNL     1      26.772  21.464  16.994  0.00  0.00    -0.270 OA
ATOM     23  H   UNL     1      28.367  21.982  18.784  0.00  0.00    +0.145 HD
ATOM     24  H   UNL     1      29.509  20.742  18.397  0.00  0.00    +0.145 HD
ENDBRANCH  14  21
ENDBRANCH   1  17
TORSDOF 2
ENDMDL
MODEL 7
REMARK VINA RESULT:      -6.5      2.797      4.226
REMARK  Name = ZINC000870248439
REMARK  2 active torsions:
REMARK  status: ('A' for Active; 'I' for Inactive)
REMARK    1  A    between atoms: C_2  and  C_4
REMARK    2  A    between atoms: C_7  and  C_8
REMARK                            x       y       z     vdW  Elec       q    Type
REMARK                         _______ _______ _______ _____ _____    ______ ____
ROOT
ATOM      1  C   UNL     1      29.963  20.745  18.396  0.00  0.00    +0.247 C 
ATOM      2  O   UNL     1      29.097  21.151  19.169  0.00  0.00    -0.270 OA
ATOM      3  N   UNL     1      31.280  21.224  18.398  0.00  0.00    -0.297 N 
ATOM      4  C   UNL     1      32.341  20.804  17.479  0.00  0.00    +0.108 C 
ATOM      5  C   UNL     1      33.709  20.707  18.142  0.00  0.00    +0.026 C 
ATOM      6  C   UNL     1      34.095  21.964  18.951  0.00  0.00    -0.025 C 
ATOM      7  C   UNL     1      35.391  21.632  19.733  0.00  0.00    +0.017 C 
ATOM      8  C   UNL     1      35.950  22.775  20.570  0.00  0.00    +0.069 C 
ATOM      9  S   UNL     1      36.376  24.222  19.563  0.00  0.00    -0.161 S 
ATOM     10  C   UNL     1      34.814  24.435  18.668  0.00  0.00    +0.069 C 
ATOM     11  C   UNL     1      34.368  23.146  17.985  0.00  0.00    +0.017 C 
ATOM     12  C   UNL     1      32.927  22.252  19.930  0.00  0.00    +0.026 C 
ATOM     13  C   UNL     1      31.577  22.390  19.226  0.00  0.00    +0.108 C 
ENDROOT
BRANCH   1  17
ATOM     14  C   UNL     1      29.150  17.576  15.653  0.00  0.00    +0.037 A 
ATOM     15  C   UNL     1      28.823  18.889  15.298  0.00  0.00    +0.014 A 
ATOM     16  C   UNL     1      28.994  19.918  16.223  0.00  0.00    +0.014 A 
ATOM     17  C   UNL     1      29.581  19.654  17.466  0.00  0.00    +0.037 A 
ATOM     18  C   UNL     1      29.824  18.329  17.852  0.00  0.00    +0.014 A 
ATOM     19  C   UNL     1      29.598  17.288  16.948  0.00  0.00    +0.014 A 
BRANCH  14  21
ATOM     20  N   UNL     1      30.132  16.190  13.914  0.00  0.00    -0.325 N 
ATOM     21  C   UNL     1      29.029  16.467  14.673  0.00  0.00    +0.242 C 
ATOM     22  O   UNL     1      28.012  15.797  14.585  0.00  0.00    -0.270 OA
ATOM     23  H   UNL     1      30.079  15.358  13.340  0.00  0.00    +0.145 HD
ATOM     24  H   UNL     1      31.051  16.541  14.144  0.00  0.00    +0.145 HD
ENDBRANCH  14  21
ENDBRANCH   1  17
TORSDOF 2
ENDMDL
MODEL 8
REMARK VINA RESULT:      -6.5      5.895      7.578
REMARK  Name = ZINC000870248439
REMARK  2 active torsions:
REMARK  status: ('A' for Active; 'I' for Inactive)
REMARK    1  A    between atoms: C_2  and  C_4
REMARK    2  A    between atoms: C_7  and  C_8
REMARK                            x       y       z     vdW  Elec       q    Type
REMARK                         _______ _______ _______ _____ _____    ______ ____
ROOT
ATOM      1  C   UNL     1      33.254  23.936  13.551  0.00  0.00    +0.247 C 
ATOM      2  O   UNL     1      33.940  24.755  14.161  0.00  0.00    -0.270 OA
ATOM      3  N   UNL     1      32.397  23.026  14.186  0.00  0.00    -0.297 N 
ATOM      4  C   UNL     1      31.587  22.008  13.514  0.00  0.00    +0.108 C 
ATOM      5  C   UNL     1      30.218  21.810  14.152  0.00  0.00    +0.026 C 
ATOM      6  C   UNL     1      30.271  21.606  15.682  0.00  0.00    -0.025 C 
ATOM      7  C   UNL     1      28.813  21.641  16.205  0.00  0.00    +0.017 C 
ATOM      8  C   UNL     1      28.661  21.418  17.704  0.00  0.00    +0.069 C 
ATOM      9  S   UNL     1      29.302  19.805  18.230  0.00  0.00    -0.161 S 
ATOM     10  C   UNL     1      30.955  19.885  17.490  0.00  0.00    +0.069 C 
ATOM     11  C   UNL     1      30.899  20.225  16.005  0.00  0.00    +0.017 C 
ATOM     12  C   UNL     1      31.089  22.784  16.271  0.00  0.00    +0.026 C 
ATOM     13  C   UNL     1      32.475  22.924  15.641  0.00  0.00    +0.108 C 
ENDROOT
BRANCH   1  17
ATOM     14  C   UNL     1      33.189  23.868   9.282  0.00  0.00    +0.037 A 
ATOM     15  C   UNL     1      34.188  23.164   9.963  0.00  0.00    +0.014 A 
ATOM     16  C   UNL     1      34.277  23.259  11.352  0.00  0.00    +0.014 A 
ATOM     17  C   UNL     1      33.312  23.975  12.068  0.00  0.00    +0.037 A 
ATOM     18  C   UNL     1      32.369  24.751  11.382  0.00  0.00    +0.014 A 
ATOM     19  C   UNL     1      32.315  24.706   9.986  0.00  0.00    +0.014 A 
BRANCH  14  21
ATOM     20  N   UNL     1      32.369  24.754   7.173  0.00  0.00    -0.325 N 
ATOM     21  C   UNL     1      33.036  23.746   7.811  0.00  0.00    +0.242 C 
ATOM     22  O   UNL     1      33.529  22.817   7.190  0.00  0.00    -0.270 OA
ATOM     23  H   UNL     1      32.378  24.723   6.161  0.00  0.00    +0.145 HD
ATOM     24  H   UNL     1      32.187  25.646   7.611  0.00  0.00    +0.145 HD
ENDBRANCH  14  21
ENDBRANCH   1  17
TORSDOF 2
ENDMDL
MODEL 9
REMARK VINA RESULT:      -6.5      4.015      7.552
REMARK  Name = ZINC000870248439
REMARK  2 active torsions:
REMARK  status: ('A' for Active; 'I' for Inactive)
REMARK    1  A    between atoms: C_2  and  C_4
REMARK    2  A    between atoms: C_7  and  C_8
REMARK                            x       y       z     vdW  Elec       q    Type
REMARK                         _______ _______ _______ _____ _____    ______ ____
ROOT
ATOM      1  C   UNL     1      29.720  17.100  15.137  0.00  0.00    +0.247 C 
ATOM      2  O   UNL     1      28.879  16.202  15.170  0.00  0.00    -0.270 OA
ATOM      3  N   UNL     1      30.862  17.053  14.325  0.00  0.00    -0.297 N 
ATOM      4  C   UNL     1      31.911  18.073  14.272  0.00  0.00    +0.108 C 
ATOM      5  C   UNL     1      32.463  18.297  12.869  0.00  0.00    +0.026 C 
ATOM      6  C   UNL     1      32.871  16.994  12.148  0.00  0.00    -0.025 C 
ATOM      7  C   UNL     1      33.198  17.361  10.678  0.00  0.00    +0.017 C 
ATOM      8  C   UNL     1      33.659  16.197   9.812  0.00  0.00    +0.069 C 
ATOM      9  S   UNL     1      35.174  15.425  10.444  0.00  0.00    -0.161 S 
ATOM     10  C   UNL     1      34.667  15.130  12.159  0.00  0.00    +0.069 C 
ATOM     11  C   UNL     1      34.134  16.396  12.821  0.00  0.00    +0.017 C 
ATOM     12  C   UNL     1      31.653  16.037  12.213  0.00  0.00    +0.026 C 
ATOM     13  C   UNL     1      31.155  15.797  13.638  0.00  0.00    +0.108 C 
ENDROOT
BRANCH   1  17
ATOM     14  C   UNL     1      29.170  20.705  17.357  0.00  0.00    +0.037 A 
ATOM     15  C   UNL     1      29.837  19.629  17.953  0.00  0.00    +0.014 A 
ATOM     16  C   UNL     1      29.937  18.415  17.273  0.00  0.00    +0.014 A 
ATOM     17  C   UNL     1      29.457  18.304  15.963  0.00  0.00    +0.037 A 
ATOM     18  C   UNL     1      28.712  19.350  15.404  0.00  0.00    +0.014 A 
ATOM     19  C   UNL     1      28.559  20.548  16.106  0.00  0.00    +0.014 A 
BRANCH  14  21
ATOM     20  N   UNL     1      28.536  23.051  17.322  0.00  0.00    -0.325 N 
ATOM     21  C   UNL     1      29.093  22.024  18.032  0.00  0.00    +0.242 C 
ATOM     22  O   UNL     1      29.460  22.176  19.187  0.00  0.00    -0.270 OA
ATOM     23  H   UNL     1      28.377  23.910  17.833  0.00  0.00    +0.145 HD
ATOM     24  H   UNL     1      27.992  22.898  16.484  0.00  0.00    +0.145 HD
ENDBRANCH  14  21
ENDBRANCH   1  17
TORSDOF 2
ENDMDL
