MODEL 1
REMARK VINA RESULT:      -8.7      0.000      0.000
REMARK  Name = ZINC000870248439
REMARK  2 active torsions:
REMARK  status: ('A' for Active; 'I' for Inactive)
REMARK    1  A    between atoms: C_2  and  C_4
REMARK    2  A    between atoms: C_7  and  C_8
REMARK                            x       y       z     vdW  Elec       q    Type
REMARK                         _______ _______ _______ _____ _____    ______ ____
ROOT
ATOM      1  C   UNL     1      12.487   5.995  10.726  0.00  0.00    +0.247 C 
ATOM      2  O   UNL     1      11.824   7.030  10.786  0.00  0.00    -0.270 OA
ATOM      3  N   UNL     1      13.001   5.481   9.527  0.00  0.00    -0.297 N 
ATOM      4  C   UNL     1      13.766   4.239   9.392  0.00  0.00    +0.108 C 
ATOM      5  C   UNL     1      14.889   4.332   8.367  0.00  0.00    +0.026 C 
ATOM      6  C   UNL     1      14.438   4.897   7.003  0.00  0.00    -0.025 C 
ATOM      7  C   UNL     1      15.713   5.135   6.155  0.00  0.00    +0.017 C 
ATOM      8  C   UNL     1      15.462   5.662   4.748  0.00  0.00    +0.069 C 
ATOM      9  S   UNL     1      14.452   4.528   3.757  0.00  0.00    -0.161 S 
ATOM     10  C   UNL     1      13.061   4.292   4.896  0.00  0.00    +0.069 C 
ATOM     11  C   UNL     1      13.528   3.868   6.284  0.00  0.00    +0.017 C 
ATOM     12  C   UNL     1      13.713   6.239   7.283  0.00  0.00    +0.026 C 
ATOM     13  C   UNL     1      12.562   6.100   8.280  0.00  0.00    +0.108 C 
ENDROOT
BRANCH   1  17
ATOM     14  C   UNL     1      13.485   4.284  14.508  0.00  0.00    +0.037 A 
ATOM     15  C   UNL     1      14.235   3.935  13.380  0.00  0.00    +0.014 A 
ATOM     16  C   UNL     1      13.858   4.412  12.124  0.00  0.00    +0.014 A 
ATOM     17  C   UNL     1      12.793   5.313  12.007  0.00  0.00    +0.037 A 
ATOM     18  C   UNL     1      11.990   5.589  13.121  0.00  0.00    +0.014 A 
ATOM     19  C   UNL     1      12.330   5.065  14.371  0.00  0.00    +0.014 A 
BRANCH  14  21
ATOM     20  N   UNL     1      12.977   3.111  16.575  0.00  0.00    -0.325 N 
ATOM     21  C   UNL     1      13.891   3.836  15.864  0.00  0.00    +0.242 C 
ATOM     22  O   UNL     1      15.009   4.058  16.304  0.00  0.00    -0.270 OA
ATOM     23  H   UNL     1      13.307   2.708  17.443  0.00  0.00    +0.145 HD
ATOM     24  H   UNL     1      12.164   2.692  16.145  0.00  0.00    +0.145 HD
ENDBRANCH  14  21
ENDBRANCH   1  17
TORSDOF 2
ENDMDL
MODEL 2
REMARK VINA RESULT:      -8.1      2.812      3.857
REMARK  Name = ZINC000870248439
REMARK  2 active torsions:
REMARK  status: ('A' for Active; 'I' for Inactive)
REMARK    1  A    between atoms: C_2  and  C_4
REMARK    2  A    between atoms: C_7  and  C_8
REMARK                            x       y       z     vdW  Elec       q    Type
REMARK                         _______ _______ _______ _____ _____    ______ ____
ROOT
ATOM      1  C   UNL     1      15.189   5.442   9.203  0.00  0.00    +0.247 C 
ATOM      2  O   UNL     1      16.240   5.971   9.562  0.00  0.00    -0.270 OA
ATOM      3  N   UNL     1      15.086   4.638   8.059  0.00  0.00    -0.297 N 
ATOM      4  C   UNL     1      13.856   4.013   7.566  0.00  0.00    +0.108 C 
ATOM      5  C   UNL     1      14.078   2.622   6.986  0.00  0.00    +0.026 C 
ATOM      6  C   UNL     1      15.226   2.556   5.956  0.00  0.00    -0.025 C 
ATOM      7  C   UNL     1      15.471   1.061   5.630  0.00  0.00    +0.017 C 
ATOM      8  C   UNL     1      16.555   0.798   4.593  0.00  0.00    +0.069 C 
ATOM      9  S   UNL     1      16.180   1.565   2.993  0.00  0.00    -0.161 S 
ATOM     10  C   UNL     1      15.849   3.260   3.545  0.00  0.00    +0.069 C 
ATOM     11  C   UNL     1      14.813   3.303   4.662  0.00  0.00    +0.017 C 
ATOM     12  C   UNL     1      16.478   3.178   6.629  0.00  0.00    +0.026 C 
ATOM     13  C   UNL     1      16.232   4.592   7.156  0.00  0.00    +0.108 C 
ENDROOT
BRANCH   1  17
ATOM     14  C   UNL     1      11.678   5.729  11.616  0.00  0.00    +0.037 A 
ATOM     15  C   UNL     1      11.789   6.525  10.471  0.00  0.00    +0.014 A 
ATOM     16  C   UNL     1      12.971   6.510   9.730  0.00  0.00    +0.014 A 
ATOM     17  C   UNL     1      14.004   5.632  10.075  0.00  0.00    +0.037 A 
ATOM     18  C   UNL     1      13.928   4.904  11.270  0.00  0.00    +0.014 A 
ATOM     19  C   UNL     1      12.768   4.961  12.047  0.00  0.00    +0.014 A 
BRANCH  14  21
ATOM     20  N   UNL     1       9.272   6.048  11.741  0.00  0.00    -0.325 N 
ATOM     21  C   UNL     1      10.416   5.682  12.394  0.00  0.00    +0.242 C 
ATOM     22  O   UNL     1      10.388   5.284  13.549  0.00  0.00    -0.270 OA
ATOM     23  H   UNL     1       8.406   5.896  12.241  0.00  0.00    +0.145 HD
ATOM     24  H   UNL     1       9.224   6.123  10.735  0.00  0.00    +0.145 HD
ENDBRANCH  14  21
ENDBRANCH   1  17
TORSDOF 2
ENDMDL
MODEL 3
REMARK VINA RESULT:      -7.8      1.636      2.418
REMARK  Name = ZINC000870248439
REMARK  2 active torsions:
REMARK  status: ('A' for Active; 'I' for Inactive)
REMARK    1  A    between atoms: C_2  and  C_4
REMARK    2  A    between atoms: C_7  and  C_8
REMARK                            x       y       z     vdW  Elec       q    Type
REMARK                         _______ _______ _______ _____ _____    ______ ____
ROOT
ATOM      1  C   UNL     1      11.934   4.643   8.656  0.00  0.00    +0.247 C 
ATOM      2  O   UNL     1      10.749   4.516   8.349  0.00  0.00    -0.270 OA
ATOM      3  N   UNL     1      12.972   4.670   7.714  0.00  0.00    -0.297 N 
ATOM      4  C   UNL     1      14.399   4.783   8.023  0.00  0.00    +0.108 C 
ATOM      5  C   UNL     1      15.166   5.643   7.026  0.00  0.00    +0.026 C 
ATOM      6  C   UNL     1      14.911   5.258   5.553  0.00  0.00    -0.025 C 
ATOM      7  C   UNL     1      15.573   6.345   4.669  0.00  0.00    +0.017 C 
ATOM      8  C   UNL     1      15.456   6.115   3.168  0.00  0.00    +0.069 C 
ATOM      9  S   UNL     1      16.231   4.560   2.647  0.00  0.00    -0.161 S 
ATOM     10  C   UNL     1      15.423   3.421   3.803  0.00  0.00    +0.069 C 
ATOM     11  C   UNL     1      15.561   3.884   5.249  0.00  0.00    +0.017 C 
ATOM     12  C   UNL     1      13.374   5.249   5.344  0.00  0.00    +0.026 C 
ATOM     13  C   UNL     1      12.642   4.339   6.331  0.00  0.00    +0.108 C 
ENDROOT
BRANCH   1  17
ATOM     14  C   UNL     1      12.727   4.916  12.842  0.00  0.00    +0.037 A 
ATOM     15  C   UNL     1      11.638   5.611  12.305  0.00  0.00    +0.014 A 
ATOM     16  C   UNL     1      11.427   5.607  10.926  0.00  0.00    +0.014 A 
ATOM     17  C   UNL     1      12.244   4.833  10.095  0.00  0.00    +0.037 A 
ATOM     18  C   UNL     1      13.384   4.213  10.621  0.00  0.00    +0.014 A 
ATOM     19  C   UNL     1      13.632   4.264  11.996  0.00  0.00    +0.014 A 
BRANCH  14  21
ATOM     20  N   UNL     1      11.886   5.183  15.107  0.00  0.00    -0.325 N 
ATOM     21  C   UNL     1      12.946   4.858  14.309  0.00  0.00    +0.242 C 
ATOM     22  O   UNL     1      14.008   4.484  14.784  0.00  0.00    -0.270 OA
ATOM     23  H   UNL     1      12.009   5.022  16.099  0.00  0.00    +0.145 HD
ATOM     24  H   UNL     1      10.940   5.236  14.756  0.00  0.00    +0.145 HD
ENDBRANCH  14  21
ENDBRANCH   1  17
TORSDOF 2
ENDMDL
MODEL 4
REMARK VINA RESULT:      -7.6     24.625     25.543
REMARK  Name = ZINC000870248439
REMARK  2 active torsions:
REMARK  status: ('A' for Active; 'I' for Inactive)
REMARK    1  A    between atoms: C_2  and  C_4
REMARK    2  A    between atoms: C_7  and  C_8
REMARK                            x       y       z     vdW  Elec       q    Type
REMARK                         _______ _______ _______ _____ _____    ______ ____
ROOT
ATOM      1  C   UNL     1      29.654  21.075  17.142  0.00  0.00    +0.247 C 
ATOM      2  O   UNL     1      28.583  21.674  17.235  0.00  0.00    -0.270 OA
ATOM      3  N   UNL     1      30.859  21.572  17.657  0.00  0.00    -0.297 N 
ATOM      4  C   UNL     1      32.166  20.921  17.544  0.00  0.00    +0.108 C 
ATOM      5  C   UNL     1      33.027  21.077  18.792  0.00  0.00    +0.026 C 
ATOM      6  C   UNL     1      33.136  22.534  19.291  0.00  0.00    -0.025 C 
ATOM      7  C   UNL     1      33.846  22.501  20.668  0.00  0.00    +0.017 C 
ATOM      8  C   UNL     1      34.077  23.863  21.306  0.00  0.00    +0.069 C 
ATOM      9  S   UNL     1      35.113  24.940  20.278  0.00  0.00    -0.161 S 
ATOM     10  C   UNL     1      34.209  24.817  18.711  0.00  0.00    +0.069 C 
ATOM     11  C   UNL     1      33.984  23.367  18.295  0.00  0.00    +0.017 C 
ATOM     12  C   UNL     1      31.689  23.075  19.437  0.00  0.00    +0.026 C 
ATOM     13  C   UNL     1      30.870  22.945  18.153  0.00  0.00    +0.108 C 
ENDROOT
BRANCH   1  17
ATOM     14  C   UNL     1      29.799  17.149  15.470  0.00  0.00    +0.037 A 
ATOM     15  C   UNL     1      30.294  18.227  14.728  0.00  0.00    +0.014 A 
ATOM     16  C   UNL     1      30.163  19.525  15.224  0.00  0.00    +0.014 A 
ATOM     17  C   UNL     1      29.627  19.738  16.499  0.00  0.00    +0.037 A 
ATOM     18  C   UNL     1      29.052  18.670  17.199  0.00  0.00    +0.014 A 
ATOM     19  C   UNL     1      29.129  17.375  16.679  0.00  0.00    +0.014 A 
BRANCH  14  21
ATOM     20  N   UNL     1      28.938  14.889  15.228  0.00  0.00    -0.325 N 
ATOM     21  C   UNL     1      29.971  15.753  14.995  0.00  0.00    +0.242 C 
ATOM     22  O   UNL     1      30.965  15.404  14.376  0.00  0.00    -0.270 OA
ATOM     23  H   UNL     1      29.013  13.978  14.794  0.00  0.00    +0.145 HD
ATOM     24  H   UNL     1      28.016  15.206  15.492  0.00  0.00    +0.145 HD
ENDBRANCH  14  21
ENDBRANCH   1  17
TORSDOF 2
ENDMDL
MODEL 5
REMARK VINA RESULT:      -7.4      4.513      5.800
REMARK  Name = ZINC000870248439
REMARK  2 active torsions:
REMARK  status: ('A' for Active; 'I' for Inactive)
REMARK    1  A    between atoms: C_2  and  C_4
REMARK    2  A    between atoms: C_7  and  C_8
REMARK                            x       y       z     vdW  Elec       q    Type
REMARK                         _______ _______ _______ _____ _____    ______ ____
ROOT
ATOM      1  C   UNL     1      13.251   6.440   7.590  0.00  0.00    +0.247 C 
ATOM      2  O   UNL     1      14.023   7.325   7.957  0.00  0.00    -0.270 OA
ATOM      3  N   UNL     1      13.678   5.255   6.974  0.00  0.00    -0.297 N 
ATOM      4  C   UNL     1      12.804   4.186   6.486  0.00  0.00    +0.108 C 
ATOM      5  C   UNL     1      13.375   2.791   6.710  0.00  0.00    +0.026 C 
ATOM      6  C   UNL     1      14.830   2.632   6.220  0.00  0.00    -0.025 C 
ATOM      7  C   UNL     1      15.335   1.251   6.711  0.00  0.00    +0.017 C 
ATOM      8  C   UNL     1      16.755   0.898   6.288  0.00  0.00    +0.069 C 
ATOM      9  S   UNL     1      16.945   0.846   4.485  0.00  0.00    -0.161 S 
ATOM     10  C   UNL     1      16.254   2.469   4.065  0.00  0.00    +0.069 C 
ATOM     11  C   UNL     1      14.870   2.672   4.671  0.00  0.00    +0.017 C 
ATOM     12  C   UNL     1      15.656   3.774   6.867  0.00  0.00    +0.026 C 
ATOM     13  C   UNL     1      15.082   5.162   6.582  0.00  0.00    +0.108 C 
ENDROOT
BRANCH   1  17
ATOM     14  C   UNL     1       9.063   6.719   8.375  0.00  0.00    +0.037 A 
ATOM     15  C   UNL     1       9.568   7.215   7.168  0.00  0.00    +0.014 A 
ATOM     16  C   UNL     1      10.945   7.217   6.943  0.00  0.00    +0.014 A 
ATOM     17  C   UNL     1      11.809   6.637   7.879  0.00  0.00    +0.037 A 
ATOM     18  C   UNL     1      11.312   6.224   9.122  0.00  0.00    +0.014 A 
ATOM     19  C   UNL     1       9.939   6.275   9.374  0.00  0.00    +0.014 A 
BRANCH  14  21
ATOM     20  N   UNL     1       6.979   5.470   8.344  0.00  0.00    -0.325 N 
ATOM     21  C   UNL     1       7.601   6.654   8.622  0.00  0.00    +0.242 C 
ATOM     22  O   UNL     1       6.990   7.596   9.102  0.00  0.00    -0.270 OA
ATOM     23  H   UNL     1       6.011   5.398   8.631  0.00  0.00    +0.145 HD
ATOM     24  H   UNL     1       7.490   4.609   8.203  0.00  0.00    +0.145 HD
ENDBRANCH  14  21
ENDBRANCH   1  17
TORSDOF 2
ENDMDL
MODEL 6
REMARK VINA RESULT:      -7.4      3.938      7.004
REMARK  Name = ZINC000870248439
REMARK  2 active torsions:
REMARK  status: ('A' for Active; 'I' for Inactive)
REMARK    1  A    between atoms: C_2  and  C_4
REMARK    2  A    between atoms: C_7  and  C_8
REMARK                            x       y       z     vdW  Elec       q    Type
REMARK                         _______ _______ _______ _____ _____    ______ ____
ROOT
ATOM      1  C   UNL     1      12.320   6.312   8.970  0.00  0.00    +0.247 C 
ATOM      2  O   UNL     1      12.194   6.689  10.135  0.00  0.00    -0.270 OA
ATOM      3  N   UNL     1      13.289   5.385   8.564  0.00  0.00    -0.297 N 
ATOM      4  C   UNL     1      13.508   4.929   7.189  0.00  0.00    +0.108 C 
ATOM      5  C   UNL     1      13.869   3.452   7.095  0.00  0.00    +0.026 C 
ATOM      6  C   UNL     1      15.012   3.031   8.043  0.00  0.00    -0.025 C 
ATOM      7  C   UNL     1      15.111   1.486   7.994  0.00  0.00    +0.017 C 
ATOM      8  C   UNL     1      16.218   0.883   8.847  0.00  0.00    +0.069 C 
ATOM      9  S   UNL     1      17.863   1.468   8.355  0.00  0.00    -0.161 S 
ATOM     10  C   UNL     1      17.567   3.256   8.387  0.00  0.00    +0.069 C 
ATOM     11  C   UNL     1      16.350   3.647   7.557  0.00  0.00    +0.017 C 
ATOM     12  C   UNL     1      14.621   3.506   9.467  0.00  0.00    +0.026 C 
ATOM     13  C   UNL     1      14.312   5.002   9.534  0.00  0.00    +0.108 C 
ENDROOT
BRANCH   1  17
ATOM     14  C   UNL     1       9.484   8.058   6.299  0.00  0.00    +0.037 A 
ATOM     15  C   UNL     1       9.108   6.951   7.068  0.00  0.00    +0.014 A 
ATOM     16  C   UNL     1      10.055   6.314   7.871  0.00  0.00    +0.014 A 
ATOM     17  C   UNL     1      11.348   6.838   7.980  0.00  0.00    +0.037 A 
ATOM     18  C   UNL     1      11.746   7.888   7.143  0.00  0.00    +0.014 A 
ATOM     19  C   UNL     1      10.815   8.491   6.293  0.00  0.00    +0.014 A 
BRANCH  14  21
ATOM     20  N   UNL     1       7.403   8.079   5.043  0.00  0.00    -0.325 N 
ATOM     21  C   UNL     1       8.487   8.789   5.476  0.00  0.00    +0.242 C 
ATOM     22  O   UNL     1       8.602   9.982   5.242  0.00  0.00    -0.270 OA
ATOM     23  H   UNL     1       6.673   8.615   4.590  0.00  0.00    +0.145 HD
ATOM     24  H   UNL     1       7.150   7.183   5.435  0.00  0.00    +0.145 HD
ENDBRANCH  14  21
ENDBRANCH   1  17
TORSDOF 2
ENDMDL
MODEL 7
REMARK VINA RESULT:      -7.4      4.298      8.806
REMARK  Name = ZINC000870248439
REMARK  2 active torsions:
REMARK  status: ('A' for Active; 'I' for Inactive)
REMARK    1  A    between atoms: C_2  and  C_4
REMARK    2  A    between atoms: C_7  and  C_8
REMARK                            x       y       z     vdW  Elec       q    Type
REMARK                         _______ _______ _______ _____ _____    ______ ____
ROOT
ATOM      1  C   UNL     1      13.486   3.768   5.749  0.00  0.00    +0.247 C 
ATOM      2  O   UNL     1      12.896   2.730   5.455  0.00  0.00    -0.270 OA
ATOM      3  N   UNL     1      13.414   4.360   7.018  0.00  0.00    -0.297 N 
ATOM      4  C   UNL     1      14.065   5.611   7.412  0.00  0.00    +0.108 C 
ATOM      5  C   UNL     1      14.598   5.589   8.840  0.00  0.00    +0.026 C 
ATOM      6  C   UNL     1      13.563   5.111   9.880  0.00  0.00    -0.025 C 
ATOM      7  C   UNL     1      14.307   4.933  11.227  0.00  0.00    +0.017 C 
ATOM      8  C   UNL     1      13.432   4.496  12.394  0.00  0.00    +0.069 C 
ATOM      9  S   UNL     1      12.111   5.688  12.750  0.00  0.00    -0.161 S 
ATOM     10  C   UNL     1      11.396   5.845  11.091  0.00  0.00    +0.069 C 
ATOM     11  C   UNL     1      12.452   6.181  10.044  0.00  0.00    +0.017 C 
ATOM     12  C   UNL     1      13.009   3.751   9.380  0.00  0.00    +0.026 C 
ATOM     13  C   UNL     1      12.440   3.822   7.963  0.00  0.00    +0.108 C 
ENDROOT
BRANCH   1  17
ATOM     14  C   UNL     1      15.791   5.420   2.557  0.00  0.00    +0.037 A 
ATOM     15  C   UNL     1      16.194   4.213   3.139  0.00  0.00    +0.014 A 
ATOM     16  C   UNL     1      15.505   3.715   4.245  0.00  0.00    +0.014 A 
ATOM     17  C   UNL     1      14.358   4.369   4.709  0.00  0.00    +0.037 A 
ATOM     18  C   UNL     1      14.010   5.620   4.184  0.00  0.00    +0.014 A 
ATOM     19  C   UNL     1      14.734   6.151   3.114  0.00  0.00    +0.014 A 
BRANCH  14  21
ATOM     20  N   UNL     1      17.805   6.218   1.456  0.00  0.00    -0.325 N 
ATOM     21  C   UNL     1      16.470   5.948   1.347  0.00  0.00    +0.242 C 
ATOM     22  O   UNL     1      15.877   6.086   0.288  0.00  0.00    -0.270 OA
ATOM     23  H   UNL     1      18.282   6.459   0.596  0.00  0.00    +0.145 HD
ATOM     24  H   UNL     1      18.367   5.871   2.220  0.00  0.00    +0.145 HD
ENDBRANCH  14  21
ENDBRANCH   1  17
TORSDOF 2
ENDMDL
MODEL 8
REMARK VINA RESULT:      -7.3      2.749      4.402
REMARK  Name = ZINC000870248439
REMARK  2 active torsions:
REMARK  status: ('A' for Active; 'I' for Inactive)
REMARK    1  A    between atoms: C_2  and  C_4
REMARK    2  A    between atoms: C_7  and  C_8
REMARK                            x       y       z     vdW  Elec       q    Type
REMARK                         _______ _______ _______ _____ _____    ______ ____
ROOT
ATOM      1  C   UNL     1      12.992   3.561   6.843  0.00  0.00    +0.247 C 
ATOM      2  O   UNL     1      12.610   2.427   6.558  0.00  0.00    -0.270 OA
ATOM      3  N   UNL     1      13.652   4.400   5.935  0.00  0.00    -0.297 N 
ATOM      4  C   UNL     1      14.158   5.743   6.229  0.00  0.00    +0.108 C 
ATOM      5  C   UNL     1      13.988   6.718   5.071  0.00  0.00    +0.026 C 
ATOM      6  C   UNL     1      14.509   6.175   3.723  0.00  0.00    -0.025 C 
ATOM      7  C   UNL     1      14.071   7.173   2.621  0.00  0.00    +0.017 C 
ATOM      8  C   UNL     1      14.530   6.820   1.213  0.00  0.00    +0.069 C 
ATOM      9  S   UNL     1      16.337   6.742   1.076  0.00  0.00    -0.161 S 
ATOM     10  C   UNL     1      16.694   5.617   2.452  0.00  0.00    +0.069 C 
ATOM     11  C   UNL     1      16.057   6.091   3.754  0.00  0.00    +0.017 C 
ATOM     12  C   UNL     1      13.842   4.793   3.500  0.00  0.00    +0.026 C 
ATOM     13  C   UNL     1      14.072   3.824   4.661  0.00  0.00    +0.108 C 
ENDROOT
BRANCH   1  17
ATOM     14  C   UNL     1      12.120   5.271  10.657  0.00  0.00    +0.037 A 
ATOM     15  C   UNL     1      13.324   4.581  10.475  0.00  0.00    +0.014 A 
ATOM     16  C   UNL     1      13.575   3.936   9.264  0.00  0.00    +0.014 A 
ATOM     17  C   UNL     1      12.671   4.061   8.203  0.00  0.00    +0.037 A 
ATOM     18  C   UNL     1      11.429   4.673   8.415  0.00  0.00    +0.014 A 
ATOM     19  C   UNL     1      11.149   5.270   9.648  0.00  0.00    +0.014 A 
BRANCH  14  21
ATOM     20  N   UNL     1      12.172   5.384  13.084  0.00  0.00    -0.325 N 
ATOM     21  C   UNL     1      11.847   6.011  11.914  0.00  0.00    +0.242 C 
ATOM     22  O   UNL     1      11.403   7.149  11.905  0.00  0.00    -0.270 OA
ATOM     23  H   UNL     1      12.097   5.943  13.925  0.00  0.00    +0.145 HD
ATOM     24  H   UNL     1      12.773   4.572  13.115  0.00  0.00    +0.145 HD
ENDBRANCH  14  21
ENDBRANCH   1  17
TORSDOF 2
ENDMDL
MODEL 9
REMARK VINA RESULT:      -7.2     25.025     25.674
REMARK  Name = ZINC000870248439
REMARK  2 active torsions:
REMARK  status: ('A' for Active; 'I' for Inactive)
REMARK    1  A    between atoms: C_2  and  C_4
REMARK    2  A    between atoms: C_7  and  C_8
REMARK                            x       y       z     vdW  Elec       q    Type
REMARK                         _______ _______ _______ _____ _____    ______ ____
ROOT
ATOM      1  C   UNL     1      32.083  20.820  13.942  0.00  0.00    +0.247 C 
ATOM      2  O   UNL     1      32.395  19.634  13.839  0.00  0.00    -0.270 OA
ATOM      3  N   UNL     1      32.572  21.819  13.090  0.00  0.00    -0.297 N 
ATOM      4  C   UNL     1      32.264  23.248  13.188  0.00  0.00    +0.108 C 
ATOM      5  C   UNL     1      32.111  23.926  11.832  0.00  0.00    +0.026 C 
ATOM      6  C   UNL     1      33.277  23.640  10.861  0.00  0.00    -0.025 C 
ATOM      7  C   UNL     1      32.875  24.205   9.475  0.00  0.00    +0.017 C 
ATOM      8  C   UNL     1      33.927  24.047   8.385  0.00  0.00    +0.069 C 
ATOM      9  S   UNL     1      35.478  24.892   8.797  0.00  0.00    -0.161 S 
ATOM     10  C   UNL     1      35.771  24.194  10.445  0.00  0.00    +0.069 C 
ATOM     11  C   UNL     1      34.559  24.358  11.356  0.00  0.00    +0.017 C 
ATOM     12  C   UNL     1      33.446  22.100  10.793  0.00  0.00    +0.026 C 
ATOM     13  C   UNL     1      33.645  21.459  12.166  0.00  0.00    +0.108 C 
ENDROOT
BRANCH   1  17
ATOM     14  C   UNL     1      29.271  21.556  17.069  0.00  0.00    +0.037 A 
ATOM     15  C   UNL     1      28.809  21.382  15.760  0.00  0.00    +0.014 A 
ATOM     16  C   UNL     1      29.724  21.238  14.717  0.00  0.00    +0.014 A 
ATOM     17  C   UNL     1      31.095  21.171  14.992  0.00  0.00    +0.037 A 
ATOM     18  C   UNL     1      31.559  21.435  16.287  0.00  0.00    +0.014 A 
ATOM     19  C   UNL     1      30.645  21.639  17.325  0.00  0.00    +0.014 A 
BRANCH  14  21
ATOM     20  N   UNL     1      28.351  22.816  18.933  0.00  0.00    -0.325 N 
ATOM     21  C   UNL     1      28.322  21.659  18.206  0.00  0.00    +0.242 C 
ATOM     22  O   UNL     1      27.516  20.774  18.450  0.00  0.00    -0.270 OA
ATOM     23  H   UNL     1      27.620  22.925  19.625  0.00  0.00    +0.145 HD
ATOM     24  H   UNL     1      28.809  23.653  18.601  0.00  0.00    +0.145 HD
ENDBRANCH  14  21
ENDBRANCH   1  17
TORSDOF 2
ENDMDL
