MODEL 1
REMARK VINA RESULT:      -7.8      0.000      0.000
REMARK  Name = ZINC000329563636
REMARK  3 active torsions:
REMARK  status: ('A' for Active; 'I' for Inactive)
REMARK    1  A    between atoms: C_1  and  C_2
REMARK    2  A    between atoms: C_2  and  N_3
REMARK    3  A    between atoms: N_9  and  C_10
REMARK                            x       y       z     vdW  Elec       q    Type
REMARK                         _______ _______ _______ _____ _____    ______ ____
ROOT
ATOM      1  C   UNL     1      28.082  21.823  18.766  0.00  0.00    +0.112 C 
ATOM      2  C   UNL     1      27.929  21.364  17.313  0.00  0.00    +0.075 C 
ATOM      3  C   UNL     1      29.243  21.258  16.524  0.00  0.00    +0.113 C 
ATOM      4  C   UNL     1      30.006  19.920  16.709  0.00  0.00    +0.048 C 
ATOM      5  C   UNL     1      29.927  19.194  15.371  0.00  0.00    +0.004 C 
ATOM      6  C   UNL     1      29.844  20.311  14.350  0.00  0.00    +0.004 C 
ATOM      7  C   UNL     1      28.909  21.308  15.012  0.00  0.00    +0.048 C 
ATOM      8  O   UNL     1      30.124  22.363  16.801  0.00  0.00    -0.485 OA
ATOM      9  C   UNL     1      30.421  22.493  18.132  0.00  0.00    +0.126 A 
ATOM     10  C   UNL     1      31.705  22.919  18.468  0.00  0.00    +0.046 A 
ATOM     11  C   UNL     1      32.075  23.031  19.809  0.00  0.00    +0.004 A 
ATOM     12  C   UNL     1      31.156  22.735  20.813  0.00  0.00    +0.001 A 
ATOM     13  C   UNL     1      29.863  22.339  20.473  0.00  0.00    +0.009 A 
ATOM     14  C   UNL     1      29.486  22.214  19.125  0.00  0.00    +0.015 A 
ENDROOT
BRANCH   1  21
ATOM     15  N   UNL     1      23.561  25.683  20.831  0.00  0.00    -0.299 N 
ATOM     16  C   UNL     1      23.091  24.360  20.422  0.00  0.00    +0.127 C 
ATOM     17  C   UNL     1      23.661  23.937  19.072  0.00  0.00    +0.129 C 
ATOM     18  N   UNL     1      25.114  23.991  19.134  0.00  0.00    -0.275 N 
ATOM     19  C   UNL     1      25.838  22.842  18.910  0.00  0.00    +0.303 C 
ATOM     20  O   UNL     1      25.304  21.765  18.651  0.00  0.00    -0.253 OA
ATOM     21  N   UNL     1      27.193  22.955  19.025  0.00  0.00    -0.292 N 
ATOM     22  C   UNL     1      25.656  25.305  19.493  0.00  0.00    +0.205 C 
ATOM     23  C   UNL     1      24.768  26.205  20.378  0.00  0.00    +0.233 C 
ATOM     24  O   UNL     1      25.145  27.341  20.673  0.00  0.00    -0.274 OA
ATOM     25  H   UNL     1      27.607  23.861  18.877  0.00  0.00    +0.151 HD
BRANCH  15  27
ATOM     26  C   UNL     1      21.799  25.513  22.553  0.00  0.00    +0.024 C 
ATOM     27  C   UNL     1      22.791  26.411  21.834  0.00  0.00    +0.104 C 
ENDBRANCH  15  27
ENDBRANCH   1  21
TORSDOF 2
ENDMDL
MODEL 2
REMARK VINA RESULT:      -7.2      7.765     13.013
REMARK  Name = ZINC000329563636
REMARK  3 active torsions:
REMARK  status: ('A' for Active; 'I' for Inactive)
REMARK    1  A    between atoms: C_1  and  C_2
REMARK    2  A    between atoms: C_2  and  N_3
REMARK    3  A    between atoms: N_9  and  C_10
REMARK                            x       y       z     vdW  Elec       q    Type
REMARK                         _______ _______ _______ _____ _____    ______ ____
ROOT
ATOM      1  C   UNL     1      31.505  16.490  12.979  0.00  0.00    +0.112 C 
ATOM      2  C   UNL     1      30.846  17.107  14.215  0.00  0.00    +0.075 C 
ATOM      3  C   UNL     1      31.254  18.559  14.512  0.00  0.00    +0.113 C 
ATOM      4  C   UNL     1      30.451  19.632  13.732  0.00  0.00    +0.048 C 
ATOM      5  C   UNL     1      29.605  20.368  14.765  0.00  0.00    +0.004 C 
ATOM      6  C   UNL     1      30.418  20.276  16.041  0.00  0.00    +0.004 C 
ATOM      7  C   UNL     1      30.951  18.854  16.003  0.00  0.00    +0.048 C 
ATOM      8  O   UNL     1      32.665  18.768  14.316  0.00  0.00    -0.485 OA
ATOM      9  C   UNL     1      33.086  18.444  13.053  0.00  0.00    +0.126 A 
ATOM     10  C   UNL     1      34.093  19.225  12.489  0.00  0.00    +0.046 A 
ATOM     11  C   UNL     1      34.532  18.965  11.190  0.00  0.00    +0.004 A 
ATOM     12  C   UNL     1      33.980  17.913  10.464  0.00  0.00    +0.001 A 
ATOM     13  C   UNL     1      32.995  17.114  11.044  0.00  0.00    +0.009 A 
ATOM     14  C   UNL     1      32.539  17.376  12.347  0.00  0.00    +0.015 A 
ENDROOT
BRANCH   1  21
ATOM     15  N   UNL     1      34.470  10.939  12.980  0.00  0.00    -0.299 N 
ATOM     16  C   UNL     1      33.450  11.082  11.942  0.00  0.00    +0.127 C 
ATOM     17  C   UNL     1      32.143  11.645  12.492  0.00  0.00    +0.129 C 
ATOM     18  N   UNL     1      32.415  12.914  13.153  0.00  0.00    -0.275 N 
ATOM     19  C   UNL     1      31.794  14.054  12.696  0.00  0.00    +0.303 C 
ATOM     20  O   UNL     1      31.008  14.045  11.749  0.00  0.00    -0.253 OA
ATOM     21  N   UNL     1      32.127  15.214  13.334  0.00  0.00    -0.292 N 
ATOM     22  C   UNL     1      33.397  12.833  14.238  0.00  0.00    +0.205 C 
ATOM     23  C   UNL     1      34.466  11.726  14.126  0.00  0.00    +0.233 C 
ATOM     24  O   UNL     1      35.289  11.573  15.031  0.00  0.00    -0.274 OA
ATOM     25  H   UNL     1      32.461  15.154  14.281  0.00  0.00    +0.151 HD
BRANCH  15  27
ATOM     26  C   UNL     1      35.181   8.574  12.926  0.00  0.00    +0.024 C 
ATOM     27  C   UNL     1      35.582  10.026  12.734  0.00  0.00    +0.104 C 
ENDBRANCH  15  27
ENDBRANCH   1  21
TORSDOF 2
ENDMDL
MODEL 3
REMARK VINA RESULT:      -7.1      5.157      7.798
REMARK  Name = ZINC000329563636
REMARK  3 active torsions:
REMARK  status: ('A' for Active; 'I' for Inactive)
REMARK    1  A    between atoms: C_1  and  C_2
REMARK    2  A    between atoms: C_2  and  N_3
REMARK    3  A    between atoms: N_9  and  C_10
REMARK                            x       y       z     vdW  Elec       q    Type
REMARK                         _______ _______ _______ _____ _____    ______ ____
ROOT
ATOM      1  C   UNL     1      31.630  22.643  13.080  0.00  0.00    +0.112 C 
ATOM      2  C   UNL     1      31.959  23.911  12.285  0.00  0.00    +0.075 C 
ATOM      3  C   UNL     1      33.028  23.735  11.197  0.00  0.00    +0.113 C 
ATOM      4  C   UNL     1      32.496  23.203   9.841  0.00  0.00    +0.048 C 
ATOM      5  C   UNL     1      32.634  24.350   8.847  0.00  0.00    +0.004 C 
ATOM      6  C   UNL     1      33.823  25.140   9.358  0.00  0.00    +0.004 C 
ATOM      7  C   UNL     1      33.616  25.130  10.862  0.00  0.00    +0.048 C 
ATOM      8  O   UNL     1      34.120  22.911  11.648  0.00  0.00    -0.485 OA
ATOM      9  C   UNL     1      33.718  21.672  12.072  0.00  0.00    +0.126 A 
ATOM     10  C   UNL     1      34.566  20.596  11.813  0.00  0.00    +0.046 A 
ATOM     11  C   UNL     1      34.189  19.305  12.187  0.00  0.00    +0.004 A 
ATOM     12  C   UNL     1      32.975  19.093  12.836  0.00  0.00    +0.001 A 
ATOM     13  C   UNL     1      32.144  20.177  13.121  0.00  0.00    +0.009 A 
ATOM     14  C   UNL     1      32.512  21.478  12.738  0.00  0.00    +0.015 A 
ENDROOT
BRANCH   1  21
ATOM     15  N   UNL     1      31.769  22.298  19.362  0.00  0.00    -0.299 N 
ATOM     16  C   UNL     1      30.609  21.657  18.744  0.00  0.00    +0.127 C 
ATOM     17  C   UNL     1      29.951  22.546  17.693  0.00  0.00    +0.129 C 
ATOM     18  N   UNL     1      30.947  22.921  16.700  0.00  0.00    -0.275 N 
ATOM     19  C   UNL     1      30.746  22.569  15.384  0.00  0.00    +0.303 C 
ATOM     20  O   UNL     1      29.749  21.953  15.010  0.00  0.00    -0.253 OA
ATOM     21  N   UNL     1      31.738  22.916  14.513  0.00  0.00    -0.292 N 
ATOM     22  C   UNL     1      32.118  23.611  17.247  0.00  0.00    +0.205 C 
ATOM     23  C   UNL     1      32.505  23.276  18.703  0.00  0.00    +0.233 C 
ATOM     24  O   UNL     1      33.449  23.861  19.238  0.00  0.00    -0.274 OA
ATOM     25  H   UNL     1      32.328  23.694  14.754  0.00  0.00    +0.151 HD
BRANCH  15  27
ATOM     26  C   UNL     1      31.244  22.121  21.769  0.00  0.00    +0.024 C 
ATOM     27  C   UNL     1      32.225  21.800  20.656  0.00  0.00    +0.104 C 
ENDBRANCH  15  27
ENDBRANCH   1  21
TORSDOF 2
ENDMDL
MODEL 4
REMARK VINA RESULT:      -7.0      5.491     10.001
REMARK  Name = ZINC000329563636
REMARK  3 active torsions:
REMARK  status: ('A' for Active; 'I' for Inactive)
REMARK    1  A    between atoms: C_1  and  C_2
REMARK    2  A    between atoms: C_2  and  N_3
REMARK    3  A    between atoms: N_9  and  C_10
REMARK                            x       y       z     vdW  Elec       q    Type
REMARK                         _______ _______ _______ _____ _____    ______ ____
ROOT
ATOM      1  C   UNL     1      31.668  22.084  15.205  0.00  0.00    +0.112 C 
ATOM      2  C   UNL     1      30.160  22.291  15.379  0.00  0.00    +0.075 C 
ATOM      3  C   UNL     1      29.416  21.120  16.038  0.00  0.00    +0.113 C 
ATOM      4  C   UNL     1      29.444  21.121  17.588  0.00  0.00    +0.048 C 
ATOM      5  C   UNL     1      28.017  21.405  18.042  0.00  0.00    +0.004 C 
ATOM      6  C   UNL     1      27.157  20.835  16.932  0.00  0.00    +0.004 C 
ATOM      7  C   UNL     1      27.913  21.233  15.677  0.00  0.00    +0.048 C 
ATOM      8  O   UNL     1      29.876  19.848  15.544  0.00  0.00    -0.485 OA
ATOM      9  C   UNL     1      31.223  19.662  15.712  0.00  0.00    +0.126 A 
ATOM     10  C   UNL     1      31.664  18.373  16.009  0.00  0.00    +0.046 A 
ATOM     11  C   UNL     1      33.020  18.133  16.230  0.00  0.00    +0.004 A 
ATOM     12  C   UNL     1      33.938  19.177  16.136  0.00  0.00    +0.001 A 
ATOM     13  C   UNL     1      33.497  20.459  15.807  0.00  0.00    +0.009 A 
ATOM     14  C   UNL     1      32.131  20.710  15.593  0.00  0.00    +0.015 A 
ENDROOT
BRANCH   1  21
ATOM     15  N   UNL     1      34.703  22.764   9.734  0.00  0.00    -0.299 N 
ATOM     16  C   UNL     1      35.369  23.383  10.879  0.00  0.00    +0.127 C 
ATOM     17  C   UNL     1      34.408  24.209  11.729  0.00  0.00    +0.129 C 
ATOM     18  N   UNL     1      33.300  23.363  12.148  0.00  0.00    -0.275 N 
ATOM     19  C   UNL     1      33.074  23.173  13.492  0.00  0.00    +0.303 C 
ATOM     20  O   UNL     1      33.771  23.697  14.361  0.00  0.00    -0.253 OA
ATOM     21  N   UNL     1      32.045  22.336  13.814  0.00  0.00    -0.292 N 
ATOM     22  C   UNL     1      32.557  22.748  11.045  0.00  0.00    +0.205 C 
ATOM     23  C   UNL     1      33.342  22.478   9.744  0.00  0.00    +0.233 C 
ATOM     24  O   UNL     1      32.762  22.009   8.762  0.00  0.00    -0.274 OA
ATOM     25  H   UNL     1      31.302  22.221  13.146  0.00  0.00    +0.151 HD
BRANCH  15  27
ATOM     26  C   UNL     1      35.842  23.479   7.663  0.00  0.00    +0.024 C 
ATOM     27  C   UNL     1      35.523  22.333   8.608  0.00  0.00    +0.104 C 
ENDBRANCH  15  27
ENDBRANCH   1  21
TORSDOF 2
ENDMDL
MODEL 5
REMARK VINA RESULT:      -6.9     22.174     23.417
REMARK  Name = ZINC000329563636
REMARK  3 active torsions:
REMARK  status: ('A' for Active; 'I' for Inactive)
REMARK    1  A    between atoms: C_1  and  C_2
REMARK    2  A    between atoms: C_2  and  N_3
REMARK    3  A    between atoms: N_9  and  C_10
REMARK                            x       y       z     vdW  Elec       q    Type
REMARK                         _______ _______ _______ _____ _____    ______ ____
ROOT
ATOM      1  C   UNL     1      19.384   6.013  29.515  0.00  0.00    +0.112 C 
ATOM      2  C   UNL     1      20.570   6.599  30.287  0.00  0.00    +0.075 C 
ATOM      3  C   UNL     1      21.875   5.796  30.179  0.00  0.00    +0.113 C 
ATOM      4  C   UNL     1      22.730   6.109  28.924  0.00  0.00    +0.048 C 
ATOM      5  C   UNL     1      23.989   6.807  29.426  0.00  0.00    +0.004 C 
ATOM      6  C   UNL     1      24.196   6.238  30.815  0.00  0.00    +0.004 C 
ATOM      7  C   UNL     1      22.784   6.181  31.373  0.00  0.00    +0.048 C 
ATOM      8  O   UNL     1      21.639   4.378  30.265  0.00  0.00    -0.485 OA
ATOM      9  C   UNL     1      20.763   3.920  29.317  0.00  0.00    +0.126 A 
ATOM     10  C   UNL     1      20.995   2.653  28.783  0.00  0.00    +0.046 A 
ATOM     11  C   UNL     1      20.158   2.153  27.784  0.00  0.00    +0.004 A 
ATOM     12  C   UNL     1      19.079   2.910  27.335  0.00  0.00    +0.001 A 
ATOM     13  C   UNL     1      18.832   4.164  27.894  0.00  0.00    +0.009 A 
ATOM     14  C   UNL     1      19.676   4.679  28.892  0.00  0.00    +0.015 A 
ENDROOT
BRANCH   1  21
ATOM     15  N   UNL     1      13.680   5.114  32.018  0.00  0.00    -0.299 N 
ATOM     16  C   UNL     1      13.697   5.980  30.840  0.00  0.00    +0.127 C 
ATOM     17  C   UNL     1      14.792   7.040  30.918  0.00  0.00    +0.129 C 
ATOM     18  N   UNL     1      16.075   6.381  31.115  0.00  0.00    -0.275 N 
ATOM     19  C   UNL     1      17.069   6.557  30.180  0.00  0.00    +0.303 C 
ATOM     20  O   UNL     1      16.920   7.259  29.180  0.00  0.00    -0.253 OA
ATOM     21  N   UNL     1      18.231   5.878  30.405  0.00  0.00    -0.292 N 
ATOM     22  C   UNL     1      16.143   5.532  32.307  0.00  0.00    +0.205 C 
ATOM     23  C   UNL     1      14.819   4.899  32.786  0.00  0.00    +0.233 C 
ATOM     24  O   UNL     1      14.800   4.216  33.812  0.00  0.00    -0.274 OA
ATOM     25  H   UNL     1      18.455   5.624  31.353  0.00  0.00    +0.151 HD
BRANCH  15  27
ATOM     26  C   UNL     1      11.425   5.227  33.018  0.00  0.00    +0.024 C 
ATOM     27  C   UNL     1      12.460   4.370  32.310  0.00  0.00    +0.104 C 
ENDBRANCH  15  27
ENDBRANCH   1  21
TORSDOF 2
ENDMDL
MODEL 6
REMARK VINA RESULT:      -6.9      5.366      9.754
REMARK  Name = ZINC000329563636
REMARK  3 active torsions:
REMARK  status: ('A' for Active; 'I' for Inactive)
REMARK    1  A    between atoms: C_1  and  C_2
REMARK    2  A    between atoms: C_2  and  N_3
REMARK    3  A    between atoms: N_9  and  C_10
REMARK                            x       y       z     vdW  Elec       q    Type
REMARK                         _______ _______ _______ _____ _____    ______ ____
ROOT
ATOM      1  C   UNL     1      32.721  21.957  15.533  0.00  0.00    +0.112 C 
ATOM      2  C   UNL     1      32.321  22.860  16.704  0.00  0.00    +0.075 C 
ATOM      3  C   UNL     1      31.196  22.308  17.594  0.00  0.00    +0.113 C 
ATOM      4  C   UNL     1      31.664  21.329  18.702  0.00  0.00    +0.048 C 
ATOM      5  C   UNL     1      31.446  22.048  20.028  0.00  0.00    +0.004 C 
ATOM      6  C   UNL     1      30.270  22.967  19.760  0.00  0.00    +0.004 C 
ATOM      7  C   UNL     1      30.560  23.492  18.365  0.00  0.00    +0.048 C 
ATOM      8  O   UNL     1      30.150  21.697  16.815  0.00  0.00    -0.485 OA
ATOM      9  C   UNL     1      30.602  20.689  16.004  0.00  0.00    +0.126 A 
ATOM     10  C   UNL     1      29.765  19.592  15.813  0.00  0.00    +0.046 A 
ATOM     11  C   UNL     1      30.190  18.518  15.030  0.00  0.00    +0.004 A 
ATOM     12  C   UNL     1      31.443  18.551  14.421  0.00  0.00    +0.001 A 
ATOM     13  C   UNL     1      32.264  19.666  14.590  0.00  0.00    +0.009 A 
ATOM     14  C   UNL     1      31.847  20.746  15.386  0.00  0.00    +0.015 A 
ENDROOT
BRANCH   1  21
ATOM     15  N   UNL     1      33.228  23.955   9.587  0.00  0.00    -0.299 N 
ATOM     16  C   UNL     1      34.438  23.335  10.125  0.00  0.00    +0.127 C 
ATOM     17  C   UNL     1      34.792  23.866  11.510  0.00  0.00    +0.129 C 
ATOM     18  N   UNL     1      33.653  23.671  12.396  0.00  0.00    -0.275 N 
ATOM     19  C   UNL     1      33.805  22.895  13.522  0.00  0.00    +0.303 C 
ATOM     20  O   UNL     1      34.873  22.359  13.817  0.00  0.00    -0.253 OA
ATOM     21  N   UNL     1      32.687  22.721  14.286  0.00  0.00    -0.292 N 
ATOM     22  C   UNL     1      32.415  24.309  11.940  0.00  0.00    +0.205 C 
ATOM     23  C   UNL     1      32.243  24.480  10.416  0.00  0.00    +0.233 C 
ATOM     24  O   UNL     1      31.247  25.056   9.970  0.00  0.00    -0.274 OA
ATOM     25  H   UNL     1      31.967  23.423  14.238  0.00  0.00    +0.151 HD
BRANCH  15  27
ATOM     26  C   UNL     1      33.772  22.767   7.491  0.00  0.00    +0.024 C 
ATOM     27  C   UNL     1      33.008  23.905   8.145  0.00  0.00    +0.104 C 
ENDBRANCH  15  27
ENDBRANCH   1  21
TORSDOF 2
ENDMDL
MODEL 7
REMARK VINA RESULT:      -6.7      5.389      8.640
REMARK  Name = ZINC000329563636
REMARK  3 active torsions:
REMARK  status: ('A' for Active; 'I' for Inactive)
REMARK    1  A    between atoms: C_1  and  C_2
REMARK    2  A    between atoms: C_2  and  N_3
REMARK    3  A    between atoms: N_9  and  C_10
REMARK                            x       y       z     vdW  Elec       q    Type
REMARK                         _______ _______ _______ _____ _____    ______ ____
ROOT
ATOM      1  C   UNL     1      33.642  21.988  12.583  0.00  0.00    +0.112 C 
ATOM      2  C   UNL     1      34.316  20.742  12.002  0.00  0.00    +0.075 C 
ATOM      3  C   UNL     1      34.515  20.762  10.479  0.00  0.00    +0.113 C 
ATOM      4  C   UNL     1      35.795  21.495  10.000  0.00  0.00    +0.048 C 
ATOM      5  C   UNL     1      36.716  20.421   9.431  0.00  0.00    +0.004 C 
ATOM      6  C   UNL     1      35.767  19.359   8.914  0.00  0.00    +0.004 C 
ATOM      7  C   UNL     1      34.699  19.302   9.993  0.00  0.00    +0.048 C 
ATOM      8  O   UNL     1      33.365  21.296   9.796  0.00  0.00    -0.485 OA
ATOM      9  C   UNL     1      33.031  22.558  10.212  0.00  0.00    +0.126 A 
ATOM     10  C   UNL     1      32.536  23.441   9.255  0.00  0.00    +0.046 A 
ATOM     11  C   UNL     1      32.217  24.752   9.613  0.00  0.00    +0.004 A 
ATOM     12  C   UNL     1      32.376  25.173  10.932  0.00  0.00    +0.001 A 
ATOM     13  C   UNL     1      32.842  24.276  11.893  0.00  0.00    +0.009 A 
ATOM     14  C   UNL     1      33.175  22.958  11.537  0.00  0.00    +0.015 A 
ENDROOT
BRANCH   1  21
ATOM     15  N   UNL     1      29.475  21.122  17.219  0.00  0.00    -0.299 N 
ATOM     16  C   UNL     1      30.868  20.903  17.606  0.00  0.00    +0.127 C 
ATOM     17  C   UNL     1      31.614  20.028  16.603  0.00  0.00    +0.129 C 
ATOM     18  N   UNL     1      31.515  20.633  15.282  0.00  0.00    -0.275 N 
ATOM     19  C   UNL     1      32.668  20.996  14.624  0.00  0.00    +0.303 C 
ATOM     20  O   UNL     1      33.786  20.825  15.106  0.00  0.00    -0.253 OA
ATOM     21  N   UNL     1      32.500  21.595  13.409  0.00  0.00    -0.292 N 
ATOM     22  C   UNL     1      30.142  20.838  14.812  0.00  0.00    +0.205 C 
ATOM     23  C   UNL     1      29.063  21.058  15.892  0.00  0.00    +0.233 C 
ATOM     24  O   UNL     1      27.881  21.186  15.564  0.00  0.00    -0.274 OA
ATOM     25  H   UNL     1      31.655  21.400  12.898  0.00  0.00    +0.151 HD
BRANCH  15  27
ATOM     26  C   UNL     1      29.196  22.362  19.337  0.00  0.00    +0.024 C 
ATOM     27  C   UNL     1      28.529  21.537  18.250  0.00  0.00    +0.104 C 
ENDBRANCH  15  27
ENDBRANCH   1  21
TORSDOF 2
ENDMDL
MODEL 8
REMARK VINA RESULT:      -6.7      6.031      9.807
REMARK  Name = ZINC000329563636
REMARK  3 active torsions:
REMARK  status: ('A' for Active; 'I' for Inactive)
REMARK    1  A    between atoms: C_1  and  C_2
REMARK    2  A    between atoms: C_2  and  N_3
REMARK    3  A    between atoms: N_9  and  C_10
REMARK                            x       y       z     vdW  Elec       q    Type
REMARK                         _______ _______ _______ _____ _____    ______ ____
ROOT
ATOM      1  C   UNL     1      32.427  19.878  14.716  0.00  0.00    +0.112 C 
ATOM      2  C   UNL     1      33.659  19.560  15.569  0.00  0.00    +0.075 C 
ATOM      3  C   UNL     1      33.420  19.582  17.086  0.00  0.00    +0.113 C 
ATOM      4  C   UNL     1      32.857  18.263  17.676  0.00  0.00    +0.048 C 
ATOM      5  C   UNL     1      33.966  17.670  18.537  0.00  0.00    +0.004 C 
ATOM      6  C   UNL     1      34.743  18.878  19.020  0.00  0.00    +0.004 C 
ATOM      7  C   UNL     1      34.788  19.768  17.791  0.00  0.00    +0.048 C 
ATOM      8  O   UNL     1      32.585  20.687  17.480  0.00  0.00    -0.485 OA
ATOM      9  C   UNL     1      31.371  20.696  16.846  0.00  0.00    +0.126 A 
ATOM     10  C   UNL     1      30.267  21.136  17.574  0.00  0.00    +0.046 A 
ATOM     11  C   UNL     1      28.999  21.128  16.991  0.00  0.00    +0.004 A 
ATOM     12  C   UNL     1      28.838  20.700  15.675  0.00  0.00    +0.001 A 
ATOM     13  C   UNL     1      29.951  20.290  14.940  0.00  0.00    +0.009 A 
ATOM     14  C   UNL     1      31.229  20.285  15.523  0.00  0.00    +0.015 A 
ENDROOT
BRANCH   1  21
ATOM     15  N   UNL     1      33.050  23.534   9.632  0.00  0.00    -0.299 N 
ATOM     16  C   UNL     1      33.391  22.128   9.415  0.00  0.00    +0.127 C 
ATOM     17  C   UNL     1      34.302  21.580  10.509  0.00  0.00    +0.129 C 
ATOM     18  N   UNL     1      33.663  21.781  11.801  0.00  0.00    -0.275 N 
ATOM     19  C   UNL     1      33.380  20.687  12.587  0.00  0.00    +0.303 C 
ATOM     20  O   UNL     1      33.652  19.538  12.242  0.00  0.00    -0.253 OA
ATOM     21  N   UNL     1      32.744  20.944  13.766  0.00  0.00    -0.292 N 
ATOM     22  C   UNL     1      33.336  23.177  12.104  0.00  0.00    +0.205 C 
ATOM     23  C   UNL     1      33.051  24.101  10.901  0.00  0.00    +0.233 C 
ATOM     24  O   UNL     1      32.821  25.298  11.086  0.00  0.00    -0.274 OA
ATOM     25  H   UNL     1      32.857  21.857  14.176  0.00  0.00    +0.151 HD
BRANCH  15  27
ATOM     26  C   UNL     1      33.043  23.726   7.170  0.00  0.00    +0.024 C 
ATOM     27  C   UNL     1      32.582  24.315   8.492  0.00  0.00    +0.104 C 
ENDBRANCH  15  27
ENDBRANCH   1  21
TORSDOF 2
ENDMDL
MODEL 9
REMARK VINA RESULT:      -6.6      1.974      8.300
REMARK  Name = ZINC000329563636
REMARK  3 active torsions:
REMARK  status: ('A' for Active; 'I' for Inactive)
REMARK    1  A    between atoms: C_1  and  C_2
REMARK    2  A    between atoms: C_2  and  N_3
REMARK    3  A    between atoms: N_9  and  C_10
REMARK                            x       y       z     vdW  Elec       q    Type
REMARK                         _______ _______ _______ _____ _____    ______ ____
ROOT
ATOM      1  C   UNL     1      23.801  25.518  19.660  0.00  0.00    +0.112 C 
ATOM      2  C   UNL     1      22.694  25.074  20.621  0.00  0.00    +0.075 C 
ATOM      3  C   UNL     1      22.260  26.135  21.644  0.00  0.00    +0.113 C 
ATOM      4  C   UNL     1      21.201  27.142  21.128  0.00  0.00    +0.048 C 
ATOM      5  C   UNL     1      19.918  26.847  21.895  0.00  0.00    +0.004 C 
ATOM      6  C   UNL     1      20.401  26.304  23.225  0.00  0.00    +0.004 C 
ATOM      7  C   UNL     1      21.565  25.414  22.827  0.00  0.00    +0.048 C 
ATOM      8  O   UNL     1      23.388  26.848  22.186  0.00  0.00    -0.485 OA
ATOM      9  C   UNL     1      24.152  27.454  21.224  0.00  0.00    +0.126 A 
ATOM     10  C   UNL     1      24.726  28.685  21.538  0.00  0.00    +0.046 A 
ATOM     11  C   UNL     1      25.481  29.367  20.582  0.00  0.00    +0.004 A 
ATOM     12  C   UNL     1      25.679  28.808  19.321  0.00  0.00    +0.001 A 
ATOM     13  C   UNL     1      25.129  27.562  19.023  0.00  0.00    +0.009 A 
ATOM     14  C   UNL     1      24.359  26.875  19.975  0.00  0.00    +0.015 A 
ENDROOT
BRANCH   1  21
ATOM     15  N   UNL     1      28.467  21.560  18.187  0.00  0.00    -0.299 N 
ATOM     16  C   UNL     1      27.274  21.430  17.352  0.00  0.00    +0.127 C 
ATOM     17  C   UNL     1      25.993  21.381  18.179  0.00  0.00    +0.129 C 
ATOM     18  N   UNL     1      25.928  22.566  19.022  0.00  0.00    -0.275 N 
ATOM     19  C   UNL     1      24.866  23.430  18.882  0.00  0.00    +0.303 C 
ATOM     20  O   UNL     1      23.960  23.238  18.073  0.00  0.00    -0.253 OA
ATOM     21  N   UNL     1      24.890  24.541  19.674  0.00  0.00    -0.292 N 
ATOM     22  C   UNL     1      27.074  22.733  19.921  0.00  0.00    +0.205 C 
ATOM     23  C   UNL     1      28.418  22.139  19.451  0.00  0.00    +0.233 C 
ATOM     24  O   UNL     1      29.408  22.201  20.183  0.00  0.00    -0.274 OA
ATOM     25  H   UNL     1      25.408  24.498  20.536  0.00  0.00    +0.151 HD
BRANCH  15  27
ATOM     26  C   UNL     1      30.373  22.300  16.802  0.00  0.00    +0.024 C 
ATOM     27  C   UNL     1      29.754  21.177  17.617  0.00  0.00    +0.104 C 
ENDBRANCH  15  27
ENDBRANCH   1  21
TORSDOF 2
ENDMDL
