MODEL 1
REMARK VINA RESULT:      -6.3      0.000      0.000
REMARK  Name = ZINC000435351830
REMARK  5 active torsions:
REMARK  status: ('A' for Active; 'I' for Inactive)
REMARK    1  A    between atoms: C_2  and  C_3
REMARK    2  A    between atoms: C_7  and  C_8
REMARK    3  A    between atoms: C_8  and  C_9
REMARK    4  A    between atoms: N_11  and  C_12
REMARK    5  A    between atoms: C_12  and  C_13
REMARK                            x       y       z     vdW  Elec       q    Type
REMARK                         _______ _______ _______ _____ _____    ______ ____
ROOT
ATOM      1  C   UNL     1      33.475  19.952  12.902  0.00  0.00    +0.224 C 
ATOM      2  O   UNL     1      34.639  19.841  13.271  0.00  0.00    -0.275 OA
ATOM      3  N   UNL     1      33.091  20.437  11.680  0.00  0.00    -0.309 N 
ATOM      4  H   UNL     1      32.111  20.466  11.435  0.00  0.00    +0.149 HD
ENDROOT
BRANCH   1   5
ATOM      5  C   UNL     1      32.339  19.603  13.830  0.00  0.00    +0.072 C 
ATOM      6  C   UNL     1      31.335  18.546  13.384  0.00  0.00    +0.022 C 
ATOM      7  C   UNL     1      32.341  18.191  14.429  0.00  0.00    +0.022 C 
BRANCH   5  12
ATOM      8  C   UNL     1      32.526  22.745  16.023  0.00  0.00    +0.052 A 
ATOM      9  C   UNL     1      31.327  22.686  16.733  0.00  0.00    +0.019 A 
ATOM     10  C   UNL     1      30.417  21.661  16.471  0.00  0.00    +0.002 A 
ATOM     11  C   UNL     1      30.715  20.682  15.519  0.00  0.00    +0.005 A 
ATOM     12  C   UNL     1      31.930  20.700  14.812  0.00  0.00    -0.031 A 
ATOM     13  C   UNL     1      32.810  21.769  15.064  0.00  0.00    +0.023 A 
BRANCH   8  15
ATOM     14  N   UNL     1      34.268  24.604  16.510  0.00  0.00    -0.191 NA
ATOM     15  C   UNL     1      33.481  23.777  16.293  0.00  0.00    +0.099 C 
ENDBRANCH   8  15
ENDBRANCH   5  12
ENDBRANCH   1   5
BRANCH   3  16
ATOM     16  C   UNL     1      34.054  20.958  10.734  0.00  0.00    +0.159 C 
BRANCH  16  17
ATOM     17  C   UNL     1      33.448  21.911   9.729  0.00  0.00    +0.058 A 
ATOM     18  C   UNL     1      33.137  23.222  10.101  0.00  0.00    +0.028 A 
ATOM     19  C   UNL     1      32.555  24.075   9.164  0.00  0.00    +0.042 A 
ATOM     20  C   UNL     1      32.308  23.595   7.890  0.00  0.00    +0.141 A 
ATOM     21  F   UNL     1      31.744  24.384   6.967  0.00  0.00    -0.204 F 
ATOM     22  C   UNL     1      32.653  22.290   7.588  0.00  0.00    +0.149 A 
ATOM     23  N   UNL     1      33.222  21.437   8.474  0.00  0.00    -0.255 NA
ENDBRANCH  16  17
ENDBRANCH   3  16
TORSDOF 5
ENDMDL
MODEL 2
REMARK VINA RESULT:      -6.3      1.920      3.553
REMARK  Name = ZINC000435351830
REMARK  5 active torsions:
REMARK  status: ('A' for Active; 'I' for Inactive)
REMARK    1  A    between atoms: C_2  and  C_3
REMARK    2  A    between atoms: C_7  and  C_8
REMARK    3  A    between atoms: C_8  and  C_9
REMARK    4  A    between atoms: N_11  and  C_12
REMARK    5  A    between atoms: C_12  and  C_13
REMARK                            x       y       z     vdW  Elec       q    Type
REMARK                         _______ _______ _______ _____ _____    ______ ____
ROOT
ATOM      1  C   UNL     1      32.993  21.361  13.213  0.00  0.00    +0.224 C 
ATOM      2  O   UNL     1      33.485  22.386  13.670  0.00  0.00    -0.275 OA
ATOM      3  N   UNL     1      33.337  20.804  12.009  0.00  0.00    -0.309 N 
ATOM      4  H   UNL     1      32.911  19.937  11.716  0.00  0.00    +0.149 HD
ENDROOT
BRANCH   1   5
ATOM      5  C   UNL     1      31.888  20.645  13.947  0.00  0.00    +0.072 C 
ATOM      6  C   UNL     1      30.985  21.456  14.870  0.00  0.00    +0.022 C 
ATOM      7  C   UNL     1      30.449  21.000  13.553  0.00  0.00    +0.022 C 
BRANCH   5  12
ATOM      8  C   UNL     1      33.532  17.395  15.153  0.00  0.00    +0.052 A 
ATOM      9  C   UNL     1      32.719  16.418  14.578  0.00  0.00    +0.019 A 
ATOM     10  C   UNL     1      31.596  16.797  13.842  0.00  0.00    +0.002 A 
ATOM     11  C   UNL     1      31.299  18.150  13.657  0.00  0.00    +0.005 A 
ATOM     12  C   UNL     1      32.119  19.156  14.198  0.00  0.00    -0.031 A 
ATOM     13  C   UNL     1      33.220  18.746  14.973  0.00  0.00    +0.023 A 
BRANCH   8  15
ATOM     14  N   UNL     1      35.657  16.730  16.482  0.00  0.00    -0.191 NA
ATOM     15  C   UNL     1      34.700  17.027  15.893  0.00  0.00    +0.099 C 
ENDBRANCH   8  15
ENDBRANCH   5  12
ENDBRANCH   1   5
BRANCH   3  16
ATOM     16  C   UNL     1      34.271  21.452  11.113  0.00  0.00    +0.159 C 
BRANCH  16  17
ATOM     17  C   UNL     1      33.595  22.224  10.003  0.00  0.00    +0.058 A 
ATOM     18  C   UNL     1      33.117  23.516  10.234  0.00  0.00    +0.028 A 
ATOM     19  C   UNL     1      32.475  24.199   9.202  0.00  0.00    +0.042 A 
ATOM     20  C   UNL     1      32.337  23.573   7.976  0.00  0.00    +0.141 A 
ATOM     21  F   UNL     1      31.719  24.195   6.963  0.00  0.00    -0.204 F 
ATOM     22  C   UNL     1      32.845  22.297   7.814  0.00  0.00    +0.149 A 
ATOM     23  N   UNL     1      33.477  21.608   8.796  0.00  0.00    -0.255 NA
ENDBRANCH  16  17
ENDBRANCH   3  16
TORSDOF 5
ENDMDL
MODEL 3
REMARK VINA RESULT:      -6.2      2.082      4.401
REMARK  Name = ZINC000435351830
REMARK  5 active torsions:
REMARK  status: ('A' for Active; 'I' for Inactive)
REMARK    1  A    between atoms: C_2  and  C_3
REMARK    2  A    between atoms: C_7  and  C_8
REMARK    3  A    between atoms: C_8  and  C_9
REMARK    4  A    between atoms: N_11  and  C_12
REMARK    5  A    between atoms: C_12  and  C_13
REMARK                            x       y       z     vdW  Elec       q    Type
REMARK                         _______ _______ _______ _____ _____    ______ ____
ROOT
ATOM      1  C   UNL     1      32.836  21.215  13.244  0.00  0.00    +0.224 C 
ATOM      2  O   UNL     1      33.056  22.250  13.864  0.00  0.00    -0.275 OA
ATOM      3  N   UNL     1      33.402  20.898  12.037  0.00  0.00    -0.309 N 
ATOM      4  H   UNL     1      33.198  20.009  11.604  0.00  0.00    +0.149 HD
ENDROOT
BRANCH   1   5
ATOM      5  C   UNL     1      31.842  20.206  13.761  0.00  0.00    +0.072 C 
ATOM      6  C   UNL     1      30.706  20.697  14.651  0.00  0.00    +0.022 C 
ATOM      7  C   UNL     1      30.404  20.319  13.238  0.00  0.00    +0.022 C 
BRANCH   5  12
ATOM      8  C   UNL     1      32.303  16.464  13.052  0.00  0.00    +0.052 A 
ATOM      9  C   UNL     1      33.126  16.061  14.104  0.00  0.00    +0.019 A 
ATOM     10  C   UNL     1      33.590  17.003  15.022  0.00  0.00    +0.002 A 
ATOM     11  C   UNL     1      33.211  18.344  14.906  0.00  0.00    +0.005 A 
ATOM     12  C   UNL     1      32.356  18.772  13.875  0.00  0.00    -0.031 A 
ATOM     13  C   UNL     1      31.939  17.809  12.937  0.00  0.00    +0.023 A 
BRANCH   8  15
ATOM     14  N   UNL     1      31.383  14.726  11.362  0.00  0.00    -0.191 NA
ATOM     15  C   UNL     1      31.800  15.508  12.114  0.00  0.00    +0.099 C 
ENDBRANCH   8  15
ENDBRANCH   5  12
ENDBRANCH   1   5
BRANCH   3  16
ATOM     16  C   UNL     1      34.260  21.827  11.334  0.00  0.00    +0.159 C 
BRANCH  16  17
ATOM     17  C   UNL     1      33.589  22.474  10.143  0.00  0.00    +0.058 A 
ATOM     18  C   UNL     1      32.973  23.721  10.274  0.00  0.00    +0.028 A 
ATOM     19  C   UNL     1      32.339  24.286   9.168  0.00  0.00    +0.042 A 
ATOM     20  C   UNL     1      32.346  23.592   7.971  0.00  0.00    +0.141 A 
ATOM     21  F   UNL     1      31.741  24.100   6.890  0.00  0.00    -0.204 F 
ATOM     22  C   UNL     1      32.986  22.367   7.911  0.00  0.00    +0.149 A 
ATOM     23  N   UNL     1      33.614  21.793   8.966  0.00  0.00    -0.255 NA
ENDBRANCH  16  17
ENDBRANCH   3  16
TORSDOF 5
ENDMDL
MODEL 4
REMARK VINA RESULT:      -6.0      4.247      7.412
REMARK  Name = ZINC000435351830
REMARK  5 active torsions:
REMARK  status: ('A' for Active; 'I' for Inactive)
REMARK    1  A    between atoms: C_2  and  C_3
REMARK    2  A    between atoms: C_7  and  C_8
REMARK    3  A    between atoms: C_8  and  C_9
REMARK    4  A    between atoms: N_11  and  C_12
REMARK    5  A    between atoms: C_12  and  C_13
REMARK                            x       y       z     vdW  Elec       q    Type
REMARK                         _______ _______ _______ _____ _____    ______ ____
ROOT
ATOM      1  C   UNL     1      32.191  18.722  13.119  0.00  0.00    +0.224 C 
ATOM      2  O   UNL     1      32.874  19.433  12.390  0.00  0.00    -0.275 OA
ATOM      3  N   UNL     1      31.033  19.125  13.731  0.00  0.00    -0.309 N 
ATOM      4  H   UNL     1      30.506  18.470  14.291  0.00  0.00    +0.149 HD
ENDROOT
BRANCH   1   5
ATOM      5  C   UNL     1      32.628  17.319  13.453  0.00  0.00    +0.072 C 
ATOM      6  C   UNL     1      33.895  17.130  14.280  0.00  0.00    +0.022 C 
ATOM      7  C   UNL     1      32.569  16.906  14.929  0.00  0.00    +0.022 C 
BRANCH   5  12
ATOM      8  C   UNL     1      32.739  14.618  10.730  0.00  0.00    +0.052 A 
ATOM      9  C   UNL     1      31.388  14.331  10.539  0.00  0.00    +0.019 A 
ATOM     10  C   UNL     1      30.427  14.964  11.327  0.00  0.00    +0.002 A 
ATOM     11  C   UNL     1      30.813  15.903  12.289  0.00  0.00    +0.005 A 
ATOM     12  C   UNL     1      32.165  16.235  12.480  0.00  0.00    -0.031 A 
ATOM     13  C   UNL     1      33.117  15.549  11.702  0.00  0.00    +0.023 A 
BRANCH   8  15
ATOM     14  N   UNL     1      34.544  13.475   9.260  0.00  0.00    -0.191 NA
ATOM     15  C   UNL     1      33.738  13.995   9.916  0.00  0.00    +0.099 C 
ENDBRANCH   8  15
ENDBRANCH   5  12
ENDBRANCH   1   5
BRANCH   3  16
ATOM     16  C   UNL     1      30.559  20.489  13.635  0.00  0.00    +0.159 C 
BRANCH  16  17
ATOM     17  C   UNL     1      31.016  21.362  14.783  0.00  0.00    +0.058 A 
ATOM     18  C   UNL     1      32.133  22.187  14.637  0.00  0.00    +0.028 A 
ATOM     19  C   UNL     1      32.551  22.963  15.717  0.00  0.00    +0.042 A 
ATOM     20  C   UNL     1      31.838  22.894  16.901  0.00  0.00    +0.141 A 
ATOM     21  F   UNL     1      32.214  23.620  17.962  0.00  0.00    -0.204 F 
ATOM     22  C   UNL     1      30.734  22.064  16.970  0.00  0.00    +0.149 A 
ATOM     23  N   UNL     1      30.301  21.299  15.938  0.00  0.00    -0.255 NA
ENDBRANCH  16  17
ENDBRANCH   3  16
TORSDOF 5
ENDMDL
MODEL 5
REMARK VINA RESULT:      -6.0      4.389      7.110
REMARK  Name = ZINC000435351830
REMARK  5 active torsions:
REMARK  status: ('A' for Active; 'I' for Inactive)
REMARK    1  A    between atoms: C_2  and  C_3
REMARK    2  A    between atoms: C_7  and  C_8
REMARK    3  A    between atoms: C_8  and  C_9
REMARK    4  A    between atoms: N_11  and  C_12
REMARK    5  A    between atoms: C_12  and  C_13
REMARK                            x       y       z     vdW  Elec       q    Type
REMARK                         _______ _______ _______ _____ _____    ______ ____
ROOT
ATOM      1  C   UNL     1      32.691  21.494  14.104  0.00  0.00    +0.224 C 
ATOM      2  O   UNL     1      33.203  21.631  12.999  0.00  0.00    -0.275 OA
ATOM      3  N   UNL     1      33.023  22.232  15.210  0.00  0.00    -0.309 N 
ATOM      4  H   UNL     1      32.531  22.085  16.080  0.00  0.00    +0.149 HD
ENDROOT
BRANCH   1   5
ATOM      5  C   UNL     1      31.662  20.420  14.347  0.00  0.00    +0.072 C 
ATOM      6  C   UNL     1      30.454  20.753  15.215  0.00  0.00    +0.022 C 
ATOM      7  C   UNL     1      30.272  20.640  13.737  0.00  0.00    +0.022 C 
BRANCH   5  12
ATOM      8  C   UNL     1      31.889  16.732  13.314  0.00  0.00    +0.052 A 
ATOM      9  C   UNL     1      32.940  16.265  14.102  0.00  0.00    +0.019 A 
ATOM     10  C   UNL     1      33.627  17.149  14.935  0.00  0.00    +0.002 A 
ATOM     11  C   UNL     1      33.247  18.493  15.000  0.00  0.00    +0.005 A 
ATOM     12  C   UNL     1      32.171  18.983  14.241  0.00  0.00    -0.031 A 
ATOM     13  C   UNL     1      31.524  18.080  13.376  0.00  0.00    +0.023 A 
BRANCH   8  15
ATOM     14  N   UNL     1      30.558  15.104  11.796  0.00  0.00    -0.191 NA
ATOM     15  C   UNL     1      31.159  15.836  12.469  0.00  0.00    +0.099 C 
ENDBRANCH   8  15
ENDBRANCH   5  12
ENDBRANCH   1   5
BRANCH   3  16
ATOM     16  C   UNL     1      34.100  23.199  15.182  0.00  0.00    +0.159 C 
BRANCH  16  17
ATOM     17  C   UNL     1      34.076  24.153  16.355  0.00  0.00    +0.058 A 
ATOM     18  C   UNL     1      33.107  24.018  17.352  0.00  0.00    +0.028 A 
ATOM     19  C   UNL     1      33.090  24.926  18.410  0.00  0.00    +0.042 A 
ATOM     20  C   UNL     1      34.041  25.931  18.440  0.00  0.00    +0.141 A 
ATOM     21  F   UNL     1      34.050  26.824  19.438  0.00  0.00    -0.204 F 
ATOM     22  C   UNL     1      34.978  25.996  17.425  0.00  0.00    +0.149 A 
ATOM     23  N   UNL     1      35.024  25.129  16.385  0.00  0.00    -0.255 NA
ENDBRANCH  16  17
ENDBRANCH   3  16
TORSDOF 5
ENDMDL
MODEL 6
REMARK VINA RESULT:      -6.0      4.533      6.804
REMARK  Name = ZINC000435351830
REMARK  5 active torsions:
REMARK  status: ('A' for Active; 'I' for Inactive)
REMARK    1  A    between atoms: C_2  and  C_3
REMARK    2  A    between atoms: C_7  and  C_8
REMARK    3  A    between atoms: C_8  and  C_9
REMARK    4  A    between atoms: N_11  and  C_12
REMARK    5  A    between atoms: C_12  and  C_13
REMARK                            x       y       z     vdW  Elec       q    Type
REMARK                         _______ _______ _______ _____ _____    ______ ____
ROOT
ATOM      1  C   UNL     1      32.719  21.656  14.365  0.00  0.00    +0.224 C 
ATOM      2  O   UNL     1      33.319  21.683  13.296  0.00  0.00    -0.275 OA
ATOM      3  N   UNL     1      33.002  22.465  15.434  0.00  0.00    -0.309 N 
ATOM      4  H   UNL     1      32.439  22.408  16.271  0.00  0.00    +0.149 HD
ENDROOT
BRANCH   1   5
ATOM      5  C   UNL     1      31.624  20.648  14.606  0.00  0.00    +0.072 C 
ATOM      6  C   UNL     1      30.359  21.107  15.323  0.00  0.00    +0.022 C 
ATOM      7  C   UNL     1      30.306  20.862  13.851  0.00  0.00    +0.022 C 
BRANCH   5  12
ATOM      8  C   UNL     1      33.880  17.581  15.075  0.00  0.00    +0.052 A 
ATOM      9  C   UNL     1      33.044  16.533  14.688  0.00  0.00    +0.019 A 
ATOM     10  C   UNL     1      31.723  16.799  14.326  0.00  0.00    +0.002 A 
ATOM     11  C   UNL     1      31.244  18.112  14.325  0.00  0.00    +0.005 A 
ATOM     12  C   UNL     1      32.074  19.190  14.679  0.00  0.00    -0.031 A 
ATOM     13  C   UNL     1      33.389  18.890  15.083  0.00  0.00    +0.023 A 
BRANCH   8  15
ATOM     14  N   UNL     1      36.355  17.142  15.713  0.00  0.00    -0.191 NA
ATOM     15  C   UNL     1      35.244  17.331  15.429  0.00  0.00    +0.099 C 
ENDBRANCH   8  15
ENDBRANCH   5  12
ENDBRANCH   1   5
BRANCH   3  16
ATOM     16  C   UNL     1      34.122  23.380  15.418  0.00  0.00    +0.159 C 
BRANCH  16  17
ATOM     17  C   UNL     1      34.122  24.345  16.582  0.00  0.00    +0.058 A 
ATOM     18  C   UNL     1      33.170  24.222  17.597  0.00  0.00    +0.028 A 
ATOM     19  C   UNL     1      33.173  25.140  18.647  0.00  0.00    +0.042 A 
ATOM     20  C   UNL     1      34.127  26.142  18.651  0.00  0.00    +0.141 A 
ATOM     21  F   UNL     1      34.156  27.045  19.640  0.00  0.00    -0.204 F 
ATOM     22  C   UNL     1      35.047  26.196  17.620  0.00  0.00    +0.149 A 
ATOM     23  N   UNL     1      35.072  25.318  16.587  0.00  0.00    -0.255 NA
ENDBRANCH  16  17
ENDBRANCH   3  16
TORSDOF 5
ENDMDL
MODEL 7
REMARK VINA RESULT:      -5.9      3.940      6.945
REMARK  Name = ZINC000435351830
REMARK  5 active torsions:
REMARK  status: ('A' for Active; 'I' for Inactive)
REMARK    1  A    between atoms: C_2  and  C_3
REMARK    2  A    between atoms: C_7  and  C_8
REMARK    3  A    between atoms: C_8  and  C_9
REMARK    4  A    between atoms: N_11  and  C_12
REMARK    5  A    between atoms: C_12  and  C_13
REMARK                            x       y       z     vdW  Elec       q    Type
REMARK                         _______ _______ _______ _____ _____    ______ ____
ROOT
ATOM      1  C   UNL     1      33.590  22.343  10.631  0.00  0.00    +0.224 C 
ATOM      2  O   UNL     1      34.104  21.373  10.087  0.00  0.00    -0.275 OA
ATOM      3  N   UNL     1      32.875  22.289  11.799  0.00  0.00    -0.309 N 
ATOM      4  H   UNL     1      32.510  23.139  12.205  0.00  0.00    +0.149 HD
ENDROOT
BRANCH   1   5
ATOM      5  C   UNL     1      33.662  23.708   9.996  0.00  0.00    +0.072 C 
ATOM      6  C   UNL     1      33.267  23.849   8.530  0.00  0.00    +0.022 C 
ATOM      7  C   UNL     1      32.333  24.351   9.581  0.00  0.00    +0.022 C 
BRANCH   5  12
ATOM      8  C   UNL     1      35.809  26.840  10.540  0.00  0.00    +0.052 A 
ATOM      9  C   UNL     1      36.593  26.478  11.636  0.00  0.00    +0.019 A 
ATOM     10  C   UNL     1      36.397  25.241  12.249  0.00  0.00    +0.002 A 
ATOM     11  C   UNL     1      35.438  24.354  11.752  0.00  0.00    +0.005 A 
ATOM     12  C   UNL     1      34.657  24.679  10.629  0.00  0.00    -0.031 A 
ATOM     13  C   UNL     1      34.843  25.952  10.058  0.00  0.00    +0.023 A 
BRANCH   8  15
ATOM     14  N   UNL     1      36.183  29.121   9.364  0.00  0.00    -0.191 NA
ATOM     15  C   UNL     1      36.010  28.097   9.885  0.00  0.00    +0.099 C 
ENDBRANCH   8  15
ENDBRANCH   5  12
ENDBRANCH   1   5
BRANCH   3  16
ATOM     16  C   UNL     1      32.585  21.032  12.454  0.00  0.00    +0.159 C 
BRANCH  16  17
ATOM     17  C   UNL     1      31.916  21.201  13.800  0.00  0.00    +0.058 A 
ATOM     18  C   UNL     1      30.800  20.428  14.132  0.00  0.00    +0.028 A 
ATOM     19  C   UNL     1      30.185  20.620  15.369  0.00  0.00    +0.042 A 
ATOM     20  C   UNL     1      30.706  21.569  16.231  0.00  0.00    +0.141 A 
ATOM     21  F   UNL     1      30.137  21.784  17.424  0.00  0.00    -0.204 F 
ATOM     22  C   UNL     1      31.820  22.289  15.841  0.00  0.00    +0.149 A 
ATOM     23  N   UNL     1      32.443  22.125  14.648  0.00  0.00    -0.255 NA
ENDBRANCH  16  17
ENDBRANCH   3  16
TORSDOF 5
ENDMDL
MODEL 8
REMARK VINA RESULT:      -5.9      2.546      4.703
REMARK  Name = ZINC000435351830
REMARK  5 active torsions:
REMARK  status: ('A' for Active; 'I' for Inactive)
REMARK    1  A    between atoms: C_2  and  C_3
REMARK    2  A    between atoms: C_7  and  C_8
REMARK    3  A    between atoms: C_8  and  C_9
REMARK    4  A    between atoms: N_11  and  C_12
REMARK    5  A    between atoms: C_12  and  C_13
REMARK                            x       y       z     vdW  Elec       q    Type
REMARK                         _______ _______ _______ _____ _____    ______ ____
ROOT
ATOM      1  C   UNL     1      31.635  21.807  13.411  0.00  0.00    +0.224 C 
ATOM      2  O   UNL     1      30.687  22.444  12.965  0.00  0.00    -0.275 OA
ATOM      3  N   UNL     1      32.895  21.810  12.870  0.00  0.00    -0.309 N 
ATOM      4  H   UNL     1      33.634  21.285  13.316  0.00  0.00    +0.149 HD
ENDROOT
BRANCH   1   5
ATOM      5  C   UNL     1      31.458  20.894  14.597  0.00  0.00    +0.072 C 
ATOM      6  C   UNL     1      31.247  21.520  15.971  0.00  0.00    +0.022 C 
ATOM      7  C   UNL     1      30.082  20.896  15.275  0.00  0.00    +0.022 C 
BRANCH   5  12
ATOM      8  C   UNL     1      31.954  17.235  13.555  0.00  0.00    +0.052 A 
ATOM      9  C   UNL     1      33.088  16.869  14.280  0.00  0.00    +0.019 A 
ATOM     10  C   UNL     1      33.740  17.816  15.070  0.00  0.00    +0.002 A 
ATOM     11  C   UNL     1      33.246  19.120  15.157  0.00  0.00    +0.005 A 
ATOM     12  C   UNL     1      32.087  19.508  14.462  0.00  0.00    -0.031 A 
ATOM     13  C   UNL     1      31.474  18.546  13.638  0.00  0.00    +0.023 A 
BRANCH   8  15
ATOM     14  N   UNL     1      30.708  15.483  12.105  0.00  0.00    -0.191 NA
ATOM     15  C   UNL     1      31.259  16.272  12.756  0.00  0.00    +0.099 C 
ENDBRANCH   8  15
ENDBRANCH   5  12
ENDBRANCH   1   5
BRANCH   3  16
ATOM     16  C   UNL     1      33.191  22.514  11.642  0.00  0.00    +0.159 C 
BRANCH  16  17
ATOM     17  C   UNL     1      33.626  21.598  10.519  0.00  0.00    +0.058 A 
ATOM     18  C   UNL     1      33.548  20.212  10.672  0.00  0.00    +0.028 A 
ATOM     19  C   UNL     1      33.979  19.388   9.633  0.00  0.00    +0.042 A 
ATOM     20  C   UNL     1      34.467  19.974   8.478  0.00  0.00    +0.141 A 
ATOM     21  F   UNL     1      34.896  19.214   7.462  0.00  0.00    -0.204 F 
ATOM     22  C   UNL     1      34.504  21.354   8.392  0.00  0.00    +0.149 A 
ATOM     23  N   UNL     1      34.091  22.182   9.382  0.00  0.00    -0.255 NA
ENDBRANCH  16  17
ENDBRANCH   3  16
TORSDOF 5
ENDMDL
MODEL 9
REMARK VINA RESULT:      -5.9      1.415      1.653
REMARK  Name = ZINC000435351830
REMARK  5 active torsions:
REMARK  status: ('A' for Active; 'I' for Inactive)
REMARK    1  A    between atoms: C_2  and  C_3
REMARK    2  A    between atoms: C_7  and  C_8
REMARK    3  A    between atoms: C_8  and  C_9
REMARK    4  A    between atoms: N_11  and  C_12
REMARK    5  A    between atoms: C_12  and  C_13
REMARK                            x       y       z     vdW  Elec       q    Type
REMARK                         _______ _______ _______ _____ _____    ______ ____
ROOT
ATOM      1  C   UNL     1      33.355  21.459  12.789  0.00  0.00    +0.224 C 
ATOM      2  O   UNL     1      34.564  21.486  12.986  0.00  0.00    -0.275 OA
ATOM      3  N   UNL     1      32.706  22.215  11.848  0.00  0.00    -0.309 N 
ATOM      4  H   UNL     1      31.709  22.112  11.720  0.00  0.00    +0.149 HD
ENDROOT
BRANCH   1   5
ATOM      5  C   UNL     1      32.455  20.603  13.643  0.00  0.00    +0.072 C 
ATOM      6  C   UNL     1      31.722  19.439  12.986  0.00  0.00    +0.022 C 
ATOM      7  C   UNL     1      32.890  19.150  13.869  0.00  0.00    +0.022 C 
BRANCH   5  12
ATOM      8  C   UNL     1      32.159  22.926  16.682  0.00  0.00    +0.052 A 
ATOM      9  C   UNL     1      30.971  22.494  17.273  0.00  0.00    +0.019 A 
ATOM     10  C   UNL     1      30.222  21.487  16.666  0.00  0.00    +0.002 A 
ATOM     11  C   UNL     1      30.670  20.892  15.483  0.00  0.00    +0.005 A 
ATOM     12  C   UNL     1      31.879  21.285  14.883  0.00  0.00    -0.031 A 
ATOM     13  C   UNL     1      32.593  22.334  15.492  0.00  0.00    +0.023 A 
BRANCH   8  15
ATOM     14  N   UNL     1      33.586  24.780  17.799  0.00  0.00    -0.191 NA
ATOM     15  C   UNL     1      32.952  23.943  17.301  0.00  0.00    +0.099 C 
ENDBRANCH   8  15
ENDBRANCH   5  12
ENDBRANCH   1   5
BRANCH   3  16
ATOM     16  C   UNL     1      33.406  23.199  11.051  0.00  0.00    +0.159 C 
BRANCH  16  17
ATOM     17  C   UNL     1      33.595  22.777   9.611  0.00  0.00    +0.058 A 
ATOM     18  C   UNL     1      32.898  23.427   8.590  0.00  0.00    +0.028 A 
ATOM     19  C   UNL     1      33.069  23.002   7.273  0.00  0.00    +0.042 A 
ATOM     20  C   UNL     1      33.932  21.950   7.020  0.00  0.00    +0.141 A 
ATOM     21  F   UNL     1      34.117  21.511   5.768  0.00  0.00    -0.204 F 
ATOM     22  C   UNL     1      34.599  21.362   8.079  0.00  0.00    +0.149 A 
ATOM     23  N   UNL     1      34.457  21.752   9.369  0.00  0.00    -0.255 NA
ENDBRANCH  16  17
ENDBRANCH   3  16
TORSDOF 5
ENDMDL
