MODEL 1
REMARK VINA RESULT:      -5.8      0.000      0.000
REMARK  Name = ZINC001228612316
REMARK  5 active torsions:
REMARK  status: ('A' for Active; 'I' for Inactive)
REMARK    1  A    between atoms: C_2  and  C_4
REMARK    2  A    between atoms: C_8  and  O_9
REMARK    3  A    between atoms: O_9  and  C_10
REMARK    4  A    between atoms: C_10  and  C_11
REMARK    5  A    between atoms: C_10  and  C_17
REMARK                            x       y       z     vdW  Elec       q    Type
REMARK                         _______ _______ _______ _____ _____    ______ ____
ROOT
ATOM      1  C   UNL     1      33.417  23.428  10.606  0.00  0.00    +0.040 A 
ATOM      2  C   UNL     1      32.187  24.090  10.525  0.00  0.00    +0.013 A 
ATOM      3  C   UNL     1      31.315  24.079  11.614  0.00  0.00    +0.004 A 
ATOM      4  C   UNL     1      31.665  23.410  12.790  0.00  0.00    +0.046 A 
ATOM      5  C   UNL     1      32.887  22.743  12.881  0.00  0.00    +0.122 A 
ATOM      6  C   UNL     1      33.761  22.757  11.786  0.00  0.00    +0.058 A 
ENDROOT
BRANCH   1   8
ATOM      7  N   UNL     1      34.327  24.637   8.688  0.00  0.00    -0.325 N 
ATOM      8  C   UNL     1      34.320  23.483   9.424  0.00  0.00    +0.242 C 
ATOM      9  O   UNL     1      35.060  22.551   9.135  0.00  0.00    -0.270 OA
ATOM     10  H   UNL     1      35.023  24.693   7.955  0.00  0.00    +0.145 HD
ATOM     11  H   UNL     1      33.925  25.500   9.020  0.00  0.00    +0.145 HD
ENDBRANCH   1   8
BRANCH   5  12
ATOM     12  O   UNL     1      33.309  21.995  13.946  0.00  0.00    -0.484 OA
BRANCH  12  13
ATOM     13  C   UNL     1      32.540  20.845  14.333  0.00  0.00    +0.208 C 
BRANCH  13  14
ATOM     14  C   UNL     1      33.328  19.550  14.277  0.00  0.00    +0.011 A 
ATOM     15  C   UNL     1      33.149  18.586  13.282  0.00  0.00    +0.010 A 
ATOM     16  C   UNL     1      33.975  17.464  13.252  0.00  0.00    +0.020 A 
ATOM     17  C   UNL     1      34.959  17.343  14.221  0.00  0.00    +0.111 A 
ATOM     18  N   UNL     1      35.157  18.245  15.203  0.00  0.00    -0.263 NA
ATOM     19  C   UNL     1      34.343  19.323  15.207  0.00  0.00    +0.118 A 
ENDBRANCH  13  14
BRANCH  13  20
ATOM     20  C   UNL     1      32.059  21.021  15.770  0.00  0.00    +0.034 C 
ATOM     21  C   UNL     1      30.614  20.773  16.130  0.00  0.00    +0.008 C 
ATOM     22  C   UNL     1      31.175  22.166  16.211  0.00  0.00    +0.008 C 
ENDBRANCH  13  20
ENDBRANCH  12  13
ENDBRANCH   5  12
TORSDOF 5
ENDMDL
MODEL 2
REMARK VINA RESULT:      -5.8      2.719      3.886
REMARK  Name = ZINC001228612316
REMARK  5 active torsions:
REMARK  status: ('A' for Active; 'I' for Inactive)
REMARK    1  A    between atoms: C_2  and  C_4
REMARK    2  A    between atoms: C_8  and  O_9
REMARK    3  A    between atoms: O_9  and  C_10
REMARK    4  A    between atoms: C_10  and  C_11
REMARK    5  A    between atoms: C_10  and  C_17
REMARK                            x       y       z     vdW  Elec       q    Type
REMARK                         _______ _______ _______ _____ _____    ______ ____
ROOT
ATOM      1  C   UNL     1      33.248  23.181  11.595  0.00  0.00    +0.040 A 
ATOM      2  C   UNL     1      32.240  23.922  10.968  0.00  0.00    +0.013 A 
ATOM      3  C   UNL     1      31.208  24.479  11.724  0.00  0.00    +0.004 A 
ATOM      4  C   UNL     1      31.176  24.302  13.109  0.00  0.00    +0.046 A 
ATOM      5  C   UNL     1      32.173  23.562  13.745  0.00  0.00    +0.122 A 
ATOM      6  C   UNL     1      33.209  23.005  12.984  0.00  0.00    +0.058 A 
ENDROOT
BRANCH   1   8
ATOM      7  N   UNL     1      34.037  21.533   9.973  0.00  0.00    -0.325 N 
ATOM      8  C   UNL     1      34.335  22.622  10.747  0.00  0.00    +0.242 C 
ATOM      9  O   UNL     1      35.448  23.132  10.708  0.00  0.00    -0.270 OA
ATOM     10  H   UNL     1      34.757  21.236   9.327  0.00  0.00    +0.145 HD
ATOM     11  H   UNL     1      33.091  21.234   9.792  0.00  0.00    +0.145 HD
ENDBRANCH   1   8
BRANCH   5  12
ATOM     12  O   UNL     1      32.212  23.258  15.079  0.00  0.00    -0.484 OA
BRANCH  12  13
ATOM     13  C   UNL     1      33.269  22.417  15.568  0.00  0.00    +0.208 C 
BRANCH  13  14
ATOM     14  C   UNL     1      34.100  23.070  16.656  0.00  0.00    +0.011 A 
ATOM     15  C   UNL     1      33.720  24.243  17.312  0.00  0.00    +0.010 A 
ATOM     16  C   UNL     1      34.497  24.729  18.362  0.00  0.00    +0.020 A 
ATOM     17  C   UNL     1      35.632  24.022  18.725  0.00  0.00    +0.111 A 
ATOM     18  N   UNL     1      36.038  22.892  18.111  0.00  0.00    -0.263 NA
ATOM     19  C   UNL     1      35.265  22.443  17.098  0.00  0.00    +0.118 A 
ENDBRANCH  13  14
BRANCH  13  20
ATOM     20  C   UNL     1      32.670  21.145  16.157  0.00  0.00    +0.034 C 
ATOM     21  C   UNL     1      33.224  19.791  15.783  0.00  0.00    +0.008 C 
ATOM     22  C   UNL     1      31.834  20.175  15.352  0.00  0.00    +0.008 C 
ENDBRANCH  13  20
ENDBRANCH  12  13
ENDBRANCH   5  12
TORSDOF 5
ENDMDL
MODEL 3
REMARK VINA RESULT:      -5.7      1.667      2.536
REMARK  Name = ZINC001228612316
REMARK  5 active torsions:
REMARK  status: ('A' for Active; 'I' for Inactive)
REMARK    1  A    between atoms: C_2  and  C_4
REMARK    2  A    between atoms: C_8  and  O_9
REMARK    3  A    between atoms: O_9  and  C_10
REMARK    4  A    between atoms: C_10  and  C_11
REMARK    5  A    between atoms: C_10  and  C_17
REMARK                            x       y       z     vdW  Elec       q    Type
REMARK                         _______ _______ _______ _____ _____    ______ ____
ROOT
ATOM      1  C   UNL     1      33.090  23.338  11.599  0.00  0.00    +0.040 A 
ATOM      2  C   UNL     1      31.928  24.116  11.642  0.00  0.00    +0.013 A 
ATOM      3  C   UNL     1      31.238  24.277  12.844  0.00  0.00    +0.004 A 
ATOM      4  C   UNL     1      31.703  23.665  14.010  0.00  0.00    +0.046 A 
ATOM      5  C   UNL     1      32.858  22.883  13.980  0.00  0.00    +0.122 A 
ATOM      6  C   UNL     1      33.550  22.725  12.772  0.00  0.00    +0.058 A 
ENDROOT
BRANCH   1   8
ATOM      7  N   UNL     1      33.062  22.825   9.211  0.00  0.00    -0.325 N 
ATOM      8  C   UNL     1      33.799  23.211  10.298  0.00  0.00    +0.242 C 
ATOM      9  O   UNL     1      34.990  23.477  10.184  0.00  0.00    -0.270 OA
ATOM     10  H   UNL     1      33.539  22.848   8.319  0.00  0.00    +0.145 HD
ATOM     11  H   UNL     1      32.054  22.830   9.205  0.00  0.00    +0.145 HD
ENDBRANCH   1   8
BRANCH   5  12
ATOM     12  O   UNL     1      33.371  22.177  15.033  0.00  0.00    -0.484 OA
BRANCH  12  13
ATOM     13  C   UNL     1      33.794  20.821  14.818  0.00  0.00    +0.208 C 
BRANCH  13  14
ATOM     14  C   UNL     1      34.556  20.236  15.992  0.00  0.00    +0.011 A 
ATOM     15  C   UNL     1      33.933  19.618  17.080  0.00  0.00    +0.010 A 
ATOM     16  C   UNL     1      34.710  19.029  18.075  0.00  0.00    +0.020 A 
ATOM     17  C   UNL     1      36.089  19.074  17.950  0.00  0.00    +0.111 A 
ATOM     18  N   UNL     1      36.728  19.668  16.922  0.00  0.00    -0.263 NA
ATOM     19  C   UNL     1      35.950  20.230  15.971  0.00  0.00    +0.118 A 
ENDBRANCH  13  14
BRANCH  13  20
ATOM     20  C   UNL     1      32.569  19.940  14.590  0.00  0.00    +0.034 C 
ATOM     21  C   UNL     1      32.715  18.568  13.976  0.00  0.00    +0.008 C 
ATOM     22  C   UNL     1      32.002  19.654  13.217  0.00  0.00    +0.008 C 
ENDBRANCH  13  20
ENDBRANCH  12  13
ENDBRANCH   5  12
TORSDOF 5
ENDMDL
MODEL 4
REMARK VINA RESULT:      -5.7      2.539      6.460
REMARK  Name = ZINC001228612316
REMARK  5 active torsions:
REMARK  status: ('A' for Active; 'I' for Inactive)
REMARK    1  A    between atoms: C_2  and  C_4
REMARK    2  A    between atoms: C_8  and  O_9
REMARK    3  A    between atoms: O_9  and  C_10
REMARK    4  A    between atoms: C_10  and  C_11
REMARK    5  A    between atoms: C_10  and  C_17
REMARK                            x       y       z     vdW  Elec       q    Type
REMARK                         _______ _______ _______ _____ _____    ______ ____
ROOT
ATOM      1  C   UNL     1      31.675  21.336  15.213  0.00  0.00    +0.040 A 
ATOM      2  C   UNL     1      32.084  20.017  14.985  0.00  0.00    +0.013 A 
ATOM      3  C   UNL     1      33.119  19.751  14.089  0.00  0.00    +0.004 A 
ATOM      4  C   UNL     1      33.754  20.798  13.415  0.00  0.00    +0.046 A 
ATOM      5  C   UNL     1      33.352  22.116  13.631  0.00  0.00    +0.122 A 
ATOM      6  C   UNL     1      32.314  22.381  14.533  0.00  0.00    +0.058 A 
ENDROOT
BRANCH   1   8
ATOM      7  N   UNL     1      30.331  22.863  16.566  0.00  0.00    -0.325 N 
ATOM      8  C   UNL     1      30.579  21.570  16.192  0.00  0.00    +0.242 C 
ATOM      9  O   UNL     1      29.894  20.650  16.623  0.00  0.00    -0.270 OA
ATOM     10  H   UNL     1      29.515  23.008  17.148  0.00  0.00    +0.145 HD
ATOM     11  H   UNL     1      30.699  23.657  16.065  0.00  0.00    +0.145 HD
ENDBRANCH   1   8
BRANCH   5  12
ATOM     12  O   UNL     1      33.844  23.215  12.981  0.00  0.00    -0.484 OA
BRANCH  12  13
ATOM     13  C   UNL     1      34.798  23.026  11.923  0.00  0.00    +0.208 C 
BRANCH  13  14
ATOM     14  C   UNL     1      34.169  23.010  10.543  0.00  0.00    +0.011 A 
ATOM     15  C   UNL     1      33.355  24.038  10.059  0.00  0.00    +0.010 A 
ATOM     16  C   UNL     1      32.888  23.989   8.747  0.00  0.00    +0.020 A 
ATOM     17  C   UNL     1      33.253  22.910   7.958  0.00  0.00    +0.111 A 
ATOM     18  N   UNL     1      34.027  21.894   8.389  0.00  0.00    -0.263 NA
ATOM     19  C   UNL     1      34.467  21.969   9.664  0.00  0.00    +0.118 A 
ENDBRANCH  13  14
BRANCH  13  20
ATOM     20  C   UNL     1      35.810  24.166  11.946  0.00  0.00    +0.034 C 
ATOM     21  C   UNL     1      37.131  24.035  11.225  0.00  0.00    +0.008 C 
ATOM     22  C   UNL     1      37.104  24.107  12.728  0.00  0.00    +0.008 C 
ENDBRANCH  13  20
ENDBRANCH  12  13
ENDBRANCH   5  12
TORSDOF 5
ENDMDL
MODEL 5
REMARK VINA RESULT:      -5.7      3.046      6.756
REMARK  Name = ZINC001228612316
REMARK  5 active torsions:
REMARK  status: ('A' for Active; 'I' for Inactive)
REMARK    1  A    between atoms: C_2  and  C_4
REMARK    2  A    between atoms: C_8  and  O_9
REMARK    3  A    between atoms: O_9  and  C_10
REMARK    4  A    between atoms: C_10  and  C_11
REMARK    5  A    between atoms: C_10  and  C_17
REMARK                            x       y       z     vdW  Elec       q    Type
REMARK                         _______ _______ _______ _____ _____    ______ ____
ROOT
ATOM      1  C   UNL     1      32.133  23.198  14.059  0.00  0.00    +0.040 A 
ATOM      2  C   UNL     1      31.138  24.073  13.607  0.00  0.00    +0.013 A 
ATOM      3  C   UNL     1      31.076  24.423  12.258  0.00  0.00    +0.004 A 
ATOM      4  C   UNL     1      32.004  23.903  11.352  0.00  0.00    +0.046 A 
ATOM      5  C   UNL     1      33.002  23.033  11.791  0.00  0.00    +0.122 A 
ATOM      6  C   UNL     1      33.061  22.682  13.146  0.00  0.00    +0.058 A 
ENDROOT
BRANCH   1   8
ATOM      7  N   UNL     1      30.963  22.923  16.186  0.00  0.00    -0.325 N 
ATOM      8  C   UNL     1      32.147  22.842  15.503  0.00  0.00    +0.242 C 
ATOM      9  O   UNL     1      33.165  22.453  16.061  0.00  0.00    -0.270 OA
ATOM     10  H   UNL     1      30.973  22.575  17.136  0.00  0.00    +0.145 HD
ATOM     11  H   UNL     1      30.070  23.002  15.724  0.00  0.00    +0.145 HD
ENDBRANCH   1   8
BRANCH   5  12
ATOM     12  O   UNL     1      34.007  22.518  11.018  0.00  0.00    -0.484 OA
BRANCH  12  13
ATOM     13  C   UNL     1      34.244  23.087   9.721  0.00  0.00    +0.208 C 
BRANCH  13  14
ATOM     14  C   UNL     1      35.378  24.095   9.707  0.00  0.00    +0.011 A 
ATOM     15  C   UNL     1      36.726  23.734   9.767  0.00  0.00    +0.010 A 
ATOM     16  C   UNL     1      37.709  24.717   9.660  0.00  0.00    +0.020 A 
ATOM     17  C   UNL     1      37.310  26.033   9.491  0.00  0.00    +0.111 A 
ATOM     18  N   UNL     1      36.020  26.423   9.437  0.00  0.00    -0.263 NA
ATOM     19  C   UNL     1      35.090  25.450   9.543  0.00  0.00    +0.118 A 
ENDBRANCH  13  14
BRANCH  13  20
ATOM     20  C   UNL     1      34.614  21.977   8.743  0.00  0.00    +0.034 C 
ATOM     21  C   UNL     1      34.497  22.197   7.253  0.00  0.00    +0.008 C 
ATOM     22  C   UNL     1      33.588  21.212   7.936  0.00  0.00    +0.008 C 
ENDBRANCH  13  20
ENDBRANCH  12  13
ENDBRANCH   5  12
TORSDOF 5
ENDMDL
MODEL 6
REMARK VINA RESULT:      -5.7     21.550     23.197
REMARK  Name = ZINC001228612316
REMARK  5 active torsions:
REMARK  status: ('A' for Active; 'I' for Inactive)
REMARK    1  A    between atoms: C_2  and  C_4
REMARK    2  A    between atoms: C_8  and  O_9
REMARK    3  A    between atoms: O_9  and  C_10
REMARK    4  A    between atoms: C_10  and  C_11
REMARK    5  A    between atoms: C_10  and  C_17
REMARK                            x       y       z     vdW  Elec       q    Type
REMARK                         _______ _______ _______ _____ _____    ______ ____
ROOT
ATOM      1  C   UNL     1      20.194   4.550   2.241  0.00  0.00    +0.040 A 
ATOM      2  C   UNL     1      21.556   4.387   1.964  0.00  0.00    +0.013 A 
ATOM      3  C   UNL     1      22.423   5.476   2.052  0.00  0.00    +0.004 A 
ATOM      4  C   UNL     1      21.937   6.735   2.416  0.00  0.00    +0.046 A 
ATOM      5  C   UNL     1      20.581   6.911   2.690  0.00  0.00    +0.122 A 
ATOM      6  C   UNL     1      19.713   5.814   2.603  0.00  0.00    +0.058 A 
ENDROOT
BRANCH   1   8
ATOM      7  N   UNL     1      19.646   2.266   2.912  0.00  0.00    -0.325 N 
ATOM      8  C   UNL     1      19.314   3.354   2.151  0.00  0.00    +0.242 C 
ATOM      9  O   UNL     1      18.306   3.347   1.454  0.00  0.00    -0.270 OA
ATOM     10  H   UNL     1      18.978   1.506   2.917  0.00  0.00    +0.145 HD
ATOM     11  H   UNL     1      20.313   2.310   3.667  0.00  0.00    +0.145 HD
ENDBRANCH   1   8
BRANCH   5  12
ATOM     12  O   UNL     1      19.976   8.103   2.984  0.00  0.00    -0.484 OA
BRANCH  12  13
ATOM     13  C   UNL     1      20.205   9.228   2.120  0.00  0.00    +0.208 C 
BRANCH  13  14
ATOM     14  C   UNL     1      19.522   9.099   0.773  0.00  0.00    +0.011 A 
ATOM     15  C   UNL     1      18.135   9.015   0.620  0.00  0.00    +0.010 A 
ATOM     16  C   UNL     1      17.583   8.988  -0.659  0.00  0.00    +0.020 A 
ATOM     17  C   UNL     1      18.438   9.048  -1.748  0.00  0.00    +0.111 A 
ATOM     18  N   UNL     1      19.780   9.119  -1.644  0.00  0.00    -0.263 NA
ATOM     19  C   UNL     1      20.288   9.146  -0.392  0.00  0.00    +0.118 A 
ENDBRANCH  13  14
BRANCH  13  20
ATOM     20  C   UNL     1      19.664  10.491   2.783  0.00  0.00    +0.034 C 
ATOM     21  C   UNL     1      19.977  11.852   2.211  0.00  0.00    +0.008 C 
ATOM     22  C   UNL     1      20.535  11.459   3.551  0.00  0.00    +0.008 C 
ENDBRANCH  13  20
ENDBRANCH  12  13
ENDBRANCH   5  12
TORSDOF 5
ENDMDL
MODEL 7
REMARK VINA RESULT:      -5.7      2.200      6.285
REMARK  Name = ZINC001228612316
REMARK  5 active torsions:
REMARK  status: ('A' for Active; 'I' for Inactive)
REMARK    1  A    between atoms: C_2  and  C_4
REMARK    2  A    between atoms: C_8  and  O_9
REMARK    3  A    between atoms: O_9  and  C_10
REMARK    4  A    between atoms: C_10  and  C_11
REMARK    5  A    between atoms: C_10  and  C_17
REMARK                            x       y       z     vdW  Elec       q    Type
REMARK                         _______ _______ _______ _____ _____    ______ ____
ROOT
ATOM      1  C   UNL     1      31.914  21.245  14.904  0.00  0.00    +0.040 A 
ATOM      2  C   UNL     1      31.875  19.939  14.403  0.00  0.00    +0.013 A 
ATOM      3  C   UNL     1      32.759  19.549  13.397  0.00  0.00    +0.004 A 
ATOM      4  C   UNL     1      33.688  20.459  12.885  0.00  0.00    +0.046 A 
ATOM      5  C   UNL     1      33.733  21.765  13.373  0.00  0.00    +0.122 A 
ATOM      6  C   UNL     1      32.845  22.153  14.385  0.00  0.00    +0.058 A 
ENDROOT
BRANCH   1   8
ATOM      7  N   UNL     1      30.929  22.916  16.389  0.00  0.00    -0.325 N 
ATOM      8  C   UNL     1      30.962  21.607  15.988  0.00  0.00    +0.242 C 
ATOM      9  O   UNL     1      30.205  20.781  16.484  0.00  0.00    -0.270 OA
ATOM     10  H   UNL     1      30.203  23.160  17.051  0.00  0.00    +0.145 HD
ATOM     11  H   UNL     1      31.349  23.662  15.857  0.00  0.00    +0.145 HD
ENDBRANCH   1   8
BRANCH   5  12
ATOM     12  O   UNL     1      34.544  22.762  12.904  0.00  0.00    -0.484 OA
BRANCH  12  13
ATOM     13  C   UNL     1      33.979  23.771  12.051  0.00  0.00    +0.208 C 
BRANCH  13  14
ATOM     14  C   UNL     1      34.776  24.000  10.782  0.00  0.00    +0.011 A 
ATOM     15  C   UNL     1      35.225  22.962   9.960  0.00  0.00    +0.010 A 
ATOM     16  C   UNL     1      35.875  23.261   8.765  0.00  0.00    +0.020 A 
ATOM     17  C   UNL     1      36.054  24.593   8.426  0.00  0.00    +0.111 A 
ATOM     18  N   UNL     1      35.646  25.622   9.195  0.00  0.00    -0.263 NA
ATOM     19  C   UNL     1      35.017  25.303  10.347  0.00  0.00    +0.118 A 
ENDBRANCH  13  14
BRANCH  13  20
ATOM     20  C   UNL     1      32.574  23.350  11.634  0.00  0.00    +0.034 C 
ATOM     21  C   UNL     1      31.834  24.106  10.556  0.00  0.00    +0.008 C 
ATOM     22  C   UNL     1      31.335  24.149  11.975  0.00  0.00    +0.008 C 
ENDBRANCH  13  20
ENDBRANCH  12  13
ENDBRANCH   5  12
TORSDOF 5
ENDMDL
MODEL 8
REMARK VINA RESULT:      -5.6      3.934      6.026
REMARK  Name = ZINC001228612316
REMARK  5 active torsions:
REMARK  status: ('A' for Active; 'I' for Inactive)
REMARK    1  A    between atoms: C_2  and  C_4
REMARK    2  A    between atoms: C_8  and  O_9
REMARK    3  A    between atoms: O_9  and  C_10
REMARK    4  A    between atoms: C_10  and  C_11
REMARK    5  A    between atoms: C_10  and  C_17
REMARK                            x       y       z     vdW  Elec       q    Type
REMARK                         _______ _______ _______ _____ _____    ______ ____
ROOT
ATOM      1  C   UNL     1      32.094  20.500  15.705  0.00  0.00    +0.040 A 
ATOM      2  C   UNL     1      33.180  20.498  16.586  0.00  0.00    +0.013 A 
ATOM      3  C   UNL     1      34.270  19.660  16.351  0.00  0.00    +0.004 A 
ATOM      4  C   UNL     1      34.284  18.819  15.235  0.00  0.00    +0.046 A 
ATOM      5  C   UNL     1      33.205  18.809  14.351  0.00  0.00    +0.122 A 
ATOM      6  C   UNL     1      32.112  19.653  14.589  0.00  0.00    +0.058 A 
ENDROOT
BRANCH   1   8
ATOM      7  N   UNL     1      31.125  22.742  15.658  0.00  0.00    -0.325 N 
ATOM      8  C   UNL     1      30.963  21.424  15.990  0.00  0.00    +0.242 C 
ATOM      9  O   UNL     1      29.908  21.024  16.468  0.00  0.00    -0.270 OA
ATOM     10  H   UNL     1      30.308  23.331  15.762  0.00  0.00    +0.145 HD
ATOM     11  H   UNL     1      31.864  23.067  15.054  0.00  0.00    +0.145 HD
ENDBRANCH   1   8
BRANCH   5  12
ATOM     12  O   UNL     1      33.069  17.982  13.269  0.00  0.00    -0.484 OA
BRANCH  12  13
ATOM     13  C   UNL     1      34.196  17.195  12.852  0.00  0.00    +0.208 C 
BRANCH  13  14
ATOM     14  C   UNL     1      33.818  15.797  12.404  0.00  0.00    +0.011 A 
ATOM     15  C   UNL     1      32.574  15.216  12.666  0.00  0.00    +0.010 A 
ATOM     16  C   UNL     1      32.274  13.961  12.142  0.00  0.00    +0.020 A 
ATOM     17  C   UNL     1      33.230  13.324  11.367  0.00  0.00    +0.111 A 
ATOM     18  N   UNL     1      34.445  13.845  11.099  0.00  0.00    -0.263 NA
ATOM     19  C   UNL     1      34.708  15.063  11.618  0.00  0.00    +0.118 A 
ENDBRANCH  13  14
BRANCH  13  20
ATOM     20  C   UNL     1      34.881  17.879  11.674  0.00  0.00    +0.034 C 
ATOM     21  C   UNL     1      36.310  18.353  11.788  0.00  0.00    +0.008 C 
ATOM     22  C   UNL     1      35.199  19.358  11.648  0.00  0.00    +0.008 C 
ENDBRANCH  13  20
ENDBRANCH  12  13
ENDBRANCH   5  12
TORSDOF 5
ENDMDL
MODEL 9
REMARK VINA RESULT:      -5.6      2.078      3.453
REMARK  Name = ZINC001228612316
REMARK  5 active torsions:
REMARK  status: ('A' for Active; 'I' for Inactive)
REMARK    1  A    between atoms: C_2  and  C_4
REMARK    2  A    between atoms: C_8  and  O_9
REMARK    3  A    between atoms: O_9  and  C_10
REMARK    4  A    between atoms: C_10  and  C_11
REMARK    5  A    between atoms: C_10  and  C_17
REMARK                            x       y       z     vdW  Elec       q    Type
REMARK                         _______ _______ _______ _____ _____    ______ ____
ROOT
ATOM      1  C   UNL     1      35.029  23.211   8.483  0.00  0.00    +0.040 A 
ATOM      2  C   UNL     1      35.513  24.523   8.437  0.00  0.00    +0.013 A 
ATOM      3  C   UNL     1      35.741  25.226   9.620  0.00  0.00    +0.004 A 
ATOM      4  C   UNL     1      35.488  24.625  10.856  0.00  0.00    +0.046 A 
ATOM      5  C   UNL     1      35.001  23.319  10.915  0.00  0.00    +0.122 A 
ATOM      6  C   UNL     1      34.776  22.615   9.725  0.00  0.00    +0.058 A 
ENDROOT
BRANCH   1   8
ATOM      7  N   UNL     1      35.136  23.166   6.043  0.00  0.00    -0.325 N 
ATOM      8  C   UNL     1      34.820  22.497   7.195  0.00  0.00    +0.242 C 
ATOM      9  O   UNL     1      34.416  21.341   7.157  0.00  0.00    -0.270 OA
ATOM     10  H   UNL     1      35.087  22.626   5.188  0.00  0.00    +0.145 HD
ATOM     11  H   UNL     1      35.687  24.010   6.035  0.00  0.00    +0.145 HD
ENDBRANCH   1   8
BRANCH   5  12
ATOM     12  O   UNL     1      34.648  22.651  12.056  0.00  0.00    -0.484 OA
BRANCH  12  13
ATOM     13  C   UNL     1      33.263  22.335  12.272  0.00  0.00    +0.208 C 
BRANCH  13  14
ATOM     14  C   UNL     1      33.021  21.539  13.540  0.00  0.00    +0.011 A 
ATOM     15  C   UNL     1      32.378  20.298  13.557  0.00  0.00    +0.010 A 
ATOM     16  C   UNL     1      32.274  19.591  14.753  0.00  0.00    +0.020 A 
ATOM     17  C   UNL     1      32.822  20.146  15.898  0.00  0.00    +0.111 A 
ATOM     18  N   UNL     1      33.442  21.343  15.926  0.00  0.00    -0.263 NA
ATOM     19  C   UNL     1      33.529  22.007  14.752  0.00  0.00    +0.118 A 
ENDBRANCH  13  14
BRANCH  13  20
ATOM     20  C   UNL     1      32.463  23.627  12.390  0.00  0.00    +0.034 C 
ATOM     21  C   UNL     1      30.957  23.590  12.498  0.00  0.00    +0.008 C 
ATOM     22  C   UNL     1      31.603  24.172  11.270  0.00  0.00    +0.008 C 
ENDBRANCH  13  20
ENDBRANCH  12  13
ENDBRANCH   5  12
TORSDOF 5
ENDMDL
