MODEL 1
REMARK VINA RESULT:      -7.1      0.000      0.000
REMARK  Name = ZINC000826139982
REMARK  4 active torsions:
REMARK  status: ('A' for Active; 'I' for Inactive)
REMARK    1  A    between atoms: C_2  and  C_4
REMARK    2  A    between atoms: C_8  and  C_10
REMARK    3  A    between atoms: C_14  and  S_15
REMARK    4  A    between atoms: S_15  and  C_16
REMARK                            x       y       z     vdW  Elec       q    Type
REMARK                         _______ _______ _______ _____ _____    ______ ____
ROOT
ATOM      1  C   UNL     1      29.114  22.465  16.638  0.00  0.00    +0.093 C 
ATOM      2  C   UNL     1      28.504  21.242  17.322  0.00  0.00    +0.033 C 
ATOM      3  C   UNL     1      29.669  20.264  17.323  0.00  0.00    +0.109 C 
ATOM      4  N   UNL     1      30.222  20.442  15.988  0.00  0.00    -0.297 N 
ATOM      5  C   UNL     1      30.928  19.575  15.164  0.00  0.00    +0.247 C 
ATOM      6  O   UNL     1      31.425  19.974  14.107  0.00  0.00    -0.270 OA
ATOM      7  C   UNL     1      30.060  21.846  15.598  0.00  0.00    +0.120 C 
ENDROOT
BRANCH   5   8
ATOM      8  C   UNL     1      31.139  18.140  15.522  0.00  0.00    +0.038 A 
ATOM      9  C   UNL     1      32.277  17.667  16.176  0.00  0.00    +0.013 A 
ATOM     10  C   UNL     1      32.458  16.301  16.403  0.00  0.00    +0.002 A 
ATOM     11  C   UNL     1      31.436  15.405  16.104  0.00  0.00    +0.015 A 
ATOM     12  C   UNL     1      30.215  15.877  15.615  0.00  0.00    +0.017 A 
ATOM     13  C   UNL     1      30.087  17.235  15.285  0.00  0.00    +0.028 A 
BRANCH  12  14
ATOM     14  S   UNL     1      28.835  14.775  15.389  0.00  0.00    -0.016 S 
BRANCH  14  15
ATOM     15  C   UNL     1      29.034  14.311  13.656  0.00  0.00    +0.448 C 
ATOM     16  F   UNL     1      28.775  15.314  12.783  0.00  0.00    -0.160 F 
ATOM     17  F   UNL     1      30.297  13.888  13.409  0.00  0.00    -0.160 F 
ATOM     18  F   UNL     1      28.202  13.289  13.336  0.00  0.00    -0.160 F 
ENDBRANCH  14  15
ENDBRANCH  12  14
ENDBRANCH   5   8
BRANCH   1  20
ATOM     19  N   UNL     1      29.087  23.738  18.730  0.00  0.00    -0.329 N 
ATOM     20  C   UNL     1      29.826  23.343  17.657  0.00  0.00    +0.215 C 
ATOM     21  O   UNL     1      31.008  23.663  17.580  0.00  0.00    -0.276 OA
ATOM     22  H   UNL     1      29.580  24.246  19.453  0.00  0.00    +0.145 HD
ATOM     23  H   UNL     1      28.165  23.381  18.934  0.00  0.00    +0.145 HD
ENDBRANCH   1  20
TORSDOF 4
ENDMDL
MODEL 2
REMARK VINA RESULT:      -6.9      1.409      1.586
REMARK  Name = ZINC000826139982
REMARK  4 active torsions:
REMARK  status: ('A' for Active; 'I' for Inactive)
REMARK    1  A    between atoms: C_2  and  C_4
REMARK    2  A    between atoms: C_8  and  C_10
REMARK    3  A    between atoms: C_14  and  S_15
REMARK    4  A    between atoms: S_15  and  C_16
REMARK                            x       y       z     vdW  Elec       q    Type
REMARK                         _______ _______ _______ _____ _____    ______ ____
ROOT
ATOM      1  C   UNL     1      28.732  22.604  16.948  0.00  0.00    +0.093 C 
ATOM      2  C   UNL     1      28.186  21.225  17.315  0.00  0.00    +0.033 C 
ATOM      3  C   UNL     1      29.459  20.401  17.435  0.00  0.00    +0.109 C 
ATOM      4  N   UNL     1      30.230  20.855  16.286  0.00  0.00    -0.297 N 
ATOM      5  C   UNL     1      31.202  20.220  15.524  0.00  0.00    +0.247 C 
ATOM      6  O   UNL     1      31.832  20.839  14.662  0.00  0.00    -0.270 OA
ATOM      7  C   UNL     1      29.943  22.274  16.062  0.00  0.00    +0.120 C 
ENDROOT
BRANCH   5   8
ATOM      8  C   UNL     1      31.548  18.780  15.724  0.00  0.00    +0.038 A 
ATOM      9  C   UNL     1      32.464  18.331  16.675  0.00  0.00    +0.013 A 
ATOM     10  C   UNL     1      32.814  16.981  16.753  0.00  0.00    +0.002 A 
ATOM     11  C   UNL     1      32.143  16.043  15.974  0.00  0.00    +0.015 A 
ATOM     12  C   UNL     1      31.094  16.448  15.143  0.00  0.00    +0.017 A 
ATOM     13  C   UNL     1      30.830  17.817  14.989  0.00  0.00    +0.028 A 
BRANCH  12  14
ATOM     14  S   UNL     1      30.108  15.250  14.270  0.00  0.00    -0.016 S 
BRANCH  14  15
ATOM     15  C   UNL     1      28.806  14.918  15.476  0.00  0.00    +0.448 C 
ATOM     16  F   UNL     1      29.253  14.382  16.638  0.00  0.00    -0.160 F 
ATOM     17  F   UNL     1      28.140  16.054  15.795  0.00  0.00    -0.160 F 
ATOM     18  F   UNL     1      27.895  14.051  14.969  0.00  0.00    -0.160 F 
ENDBRANCH  14  15
ENDBRANCH  12  14
ENDBRANCH   5   8
BRANCH   1  20
ATOM     19  N   UNL     1      28.115  23.499  19.142  0.00  0.00    -0.329 N 
ATOM     20  C   UNL     1      29.094  23.382  18.204  0.00  0.00    +0.215 C 
ATOM     21  O   UNL     1      30.205  23.856  18.421  0.00  0.00    -0.276 OA
ATOM     22  H   UNL     1      28.379  23.937  20.016  0.00  0.00    +0.145 HD
ATOM     23  H   UNL     1      27.238  23.000  19.097  0.00  0.00    +0.145 HD
ENDBRANCH   1  20
TORSDOF 4
ENDMDL
MODEL 3
REMARK VINA RESULT:      -6.4      1.886      2.345
REMARK  Name = ZINC000826139982
REMARK  4 active torsions:
REMARK  status: ('A' for Active; 'I' for Inactive)
REMARK    1  A    between atoms: C_2  and  C_4
REMARK    2  A    between atoms: C_8  and  C_10
REMARK    3  A    between atoms: C_14  and  S_15
REMARK    4  A    between atoms: S_15  and  C_16
REMARK                            x       y       z     vdW  Elec       q    Type
REMARK                         _______ _______ _______ _____ _____    ______ ____
ROOT
ATOM      1  C   UNL     1      31.624  22.231  15.001  0.00  0.00    +0.093 C 
ATOM      2  C   UNL     1      30.365  21.665  14.347  0.00  0.00    +0.033 C 
ATOM      3  C   UNL     1      30.100  20.425  15.187  0.00  0.00    +0.109 C 
ATOM      4  N   UNL     1      31.436  19.867  15.342  0.00  0.00    -0.297 N 
ATOM      5  C   UNL     1      31.868  18.562  15.539  0.00  0.00    +0.247 C 
ATOM      6  O   UNL     1      33.054  18.319  15.779  0.00  0.00    -0.270 OA
ATOM      7  C   UNL     1      32.398  20.970  15.415  0.00  0.00    +0.120 C 
ENDROOT
BRANCH   5   8
ATOM      8  C   UNL     1      30.927  17.402  15.495  0.00  0.00    +0.038 A 
ATOM      9  C   UNL     1      29.815  17.278  16.328  0.00  0.00    +0.013 A 
ATOM     10  C   UNL     1      29.024  16.127  16.302  0.00  0.00    +0.002 A 
ATOM     11  C   UNL     1      29.254  15.147  15.341  0.00  0.00    +0.015 A 
ATOM     12  C   UNL     1      30.250  15.333  14.379  0.00  0.00    +0.017 A 
ATOM     13  C   UNL     1      31.110  16.437  14.486  0.00  0.00    +0.028 A 
BRANCH  12  14
ATOM     14  S   UNL     1      30.449  14.180  13.037  0.00  0.00    -0.016 S 
BRANCH  14  15
ATOM     15  C   UNL     1      28.737  13.953  12.510  0.00  0.00    +0.448 C 
ATOM     16  F   UNL     1      28.035  13.082  13.273  0.00  0.00    -0.160 F 
ATOM     17  F   UNL     1      28.065  15.128  12.531  0.00  0.00    -0.160 F 
ATOM     18  F   UNL     1      28.687  13.488  11.237  0.00  0.00    -0.160 F 
ENDBRANCH  14  15
ENDBRANCH  12  14
ENDBRANCH   5   8
BRANCH   1  20
ATOM     19  N   UNL     1      30.253  24.022  15.955  0.00  0.00    -0.329 N 
ATOM     20  C   UNL     1      31.255  23.127  16.174  0.00  0.00    +0.215 C 
ATOM     21  O   UNL     1      31.773  23.053  17.284  0.00  0.00    -0.276 OA
ATOM     22  H   UNL     1      29.944  24.556  16.757  0.00  0.00    +0.145 HD
ATOM     23  H   UNL     1      29.681  24.025  15.123  0.00  0.00    +0.145 HD
ENDBRANCH   1  20
TORSDOF 4
ENDMDL
MODEL 4
REMARK VINA RESULT:      -6.1      1.939      2.531
REMARK  Name = ZINC000826139982
REMARK  4 active torsions:
REMARK  status: ('A' for Active; 'I' for Inactive)
REMARK    1  A    between atoms: C_2  and  C_4
REMARK    2  A    between atoms: C_8  and  C_10
REMARK    3  A    between atoms: C_14  and  S_15
REMARK    4  A    between atoms: S_15  and  C_16
REMARK                            x       y       z     vdW  Elec       q    Type
REMARK                         _______ _______ _______ _____ _____    ______ ____
ROOT
ATOM      1  C   UNL     1      30.840  21.364  16.509  0.00  0.00    +0.093 C 
ATOM      2  C   UNL     1      32.226  20.765  16.274  0.00  0.00    +0.033 C 
ATOM      3  C   UNL     1      31.911  19.575  15.380  0.00  0.00    +0.109 C 
ATOM      4  N   UNL     1      30.720  19.024  16.010  0.00  0.00    -0.297 N 
ATOM      5  C   UNL     1      30.214  17.730  16.042  0.00  0.00    +0.247 C 
ATOM      6  O   UNL     1      29.105  17.499  16.531  0.00  0.00    -0.270 OA
ATOM      7  C   UNL     1      29.932  20.126  16.567  0.00  0.00    +0.120 C 
ENDROOT
BRANCH   5   8
ATOM      8  C   UNL     1      30.967  16.572  15.471  0.00  0.00    +0.038 A 
ATOM      9  C   UNL     1      32.008  15.924  16.136  0.00  0.00    +0.013 A 
ATOM     10  C   UNL     1      32.734  14.907  15.514  0.00  0.00    +0.002 A 
ATOM     11  C   UNL     1      32.334  14.430  14.269  0.00  0.00    +0.015 A 
ATOM     12  C   UNL     1      31.184  14.941  13.662  0.00  0.00    +0.017 A 
ATOM     13  C   UNL     1      30.531  16.038  14.243  0.00  0.00    +0.028 A 
BRANCH  12  14
ATOM     14  S   UNL     1      30.554  14.229  12.156  0.00  0.00    -0.016 S 
BRANCH  14  15
ATOM     15  C   UNL     1      28.826  13.946  12.596  0.00  0.00    +0.448 C 
ATOM     16  F   UNL     1      28.022  15.017  12.392  0.00  0.00    -0.160 F 
ATOM     17  F   UNL     1      28.306  12.920  11.882  0.00  0.00    -0.160 F 
ATOM     18  F   UNL     1      28.715  13.617  13.907  0.00  0.00    -0.160 F 
ENDBRANCH  14  15
ENDBRANCH  12  14
ENDBRANCH   5   8
BRANCH   1  20
ATOM     19  N   UNL     1      30.398  23.642  15.726  0.00  0.00    -0.329 N 
ATOM     20  C   UNL     1      30.481  22.326  15.387  0.00  0.00    +0.215 C 
ATOM     21  O   UNL     1      30.311  21.987  14.220  0.00  0.00    -0.276 OA
ATOM     22  H   UNL     1      30.248  24.294  14.967  0.00  0.00    +0.145 HD
ATOM     23  H   UNL     1      30.680  24.004  16.626  0.00  0.00    +0.145 HD
ENDBRANCH   1  20
TORSDOF 4
ENDMDL
MODEL 5
REMARK VINA RESULT:      -6.0      7.056      9.179
REMARK  Name = ZINC000826139982
REMARK  4 active torsions:
REMARK  status: ('A' for Active; 'I' for Inactive)
REMARK    1  A    between atoms: C_2  and  C_4
REMARK    2  A    between atoms: C_8  and  C_10
REMARK    3  A    between atoms: C_14  and  S_15
REMARK    4  A    between atoms: S_15  and  C_16
REMARK                            x       y       z     vdW  Elec       q    Type
REMARK                         _______ _______ _______ _____ _____    ______ ____
ROOT
ATOM      1  C   UNL     1      21.951  28.179  17.317  0.00  0.00    +0.093 C 
ATOM      2  C   UNL     1      22.582  28.083  18.706  0.00  0.00    +0.033 C 
ATOM      3  C   UNL     1      23.877  27.340  18.416  0.00  0.00    +0.109 C 
ATOM      4  N   UNL     1      23.439  26.309  17.486  0.00  0.00    -0.297 N 
ATOM      5  C   UNL     1      23.940  25.042  17.217  0.00  0.00    +0.247 C 
ATOM      6  O   UNL     1      23.491  24.370  16.285  0.00  0.00    -0.270 OA
ATOM      7  C   UNL     1      22.360  26.854  16.657  0.00  0.00    +0.120 C 
ENDROOT
BRANCH   5   8
ATOM      8  C   UNL     1      25.053  24.446  18.019  0.00  0.00    +0.038 A 
ATOM      9  C   UNL     1      25.330  24.801  19.339  0.00  0.00    +0.013 A 
ATOM     10  C   UNL     1      26.439  24.276  20.005  0.00  0.00    +0.002 A 
ATOM     11  C   UNL     1      27.203  23.280  19.405  0.00  0.00    +0.015 A 
ATOM     12  C   UNL     1      26.836  22.778  18.154  0.00  0.00    +0.017 A 
ATOM     13  C   UNL     1      25.791  23.392  17.447  0.00  0.00    +0.028 A 
BRANCH  12  14
ATOM     14  S   UNL     1      27.691  21.387  17.443  0.00  0.00    -0.016 S 
BRANCH  14  15
ATOM     15  C   UNL     1      29.178  22.180  16.795  0.00  0.00    +0.448 C 
ATOM     16  F   UNL     1      28.979  23.441  16.343  0.00  0.00    -0.160 F 
ATOM     17  F   UNL     1      30.142  22.248  17.744  0.00  0.00    -0.160 F 
ATOM     18  F   UNL     1      29.687  21.467  15.760  0.00  0.00    -0.160 F 
ENDBRANCH  14  15
ENDBRANCH  12  14
ENDBRANCH   5   8
BRANCH   1  20
ATOM     19  N   UNL     1      22.410  29.364  15.224  0.00  0.00    -0.329 N 
ATOM     20  C   UNL     1      22.468  29.407  16.583  0.00  0.00    +0.215 C 
ATOM     21  O   UNL     1      22.881  30.418  17.143  0.00  0.00    -0.276 OA
ATOM     22  H   UNL     1      22.668  30.212  14.736  0.00  0.00    +0.145 HD
ATOM     23  H   UNL     1      21.937  28.635  14.709  0.00  0.00    +0.145 HD
ENDBRANCH   1  20
TORSDOF 4
ENDMDL
MODEL 6
REMARK VINA RESULT:      -6.0      2.386      2.896
REMARK  Name = ZINC000826139982
REMARK  4 active torsions:
REMARK  status: ('A' for Active; 'I' for Inactive)
REMARK    1  A    between atoms: C_2  and  C_4
REMARK    2  A    between atoms: C_8  and  C_10
REMARK    3  A    between atoms: C_14  and  S_15
REMARK    4  A    between atoms: S_15  and  C_16
REMARK                            x       y       z     vdW  Elec       q    Type
REMARK                         _______ _______ _______ _____ _____    ______ ____
ROOT
ATOM      1  C   UNL     1      31.915  21.607  14.693  0.00  0.00    +0.093 C 
ATOM      2  C   UNL     1      30.750  21.098  13.845  0.00  0.00    +0.033 C 
ATOM      3  C   UNL     1      30.236  19.933  14.677  0.00  0.00    +0.109 C 
ATOM      4  N   UNL     1      31.471  19.288  15.099  0.00  0.00    -0.297 N 
ATOM      5  C   UNL     1      31.750  17.968  15.431  0.00  0.00    +0.247 C 
ATOM      6  O   UNL     1      32.850  17.653  15.895  0.00  0.00    -0.270 OA
ATOM      7  C   UNL     1      32.493  20.319  15.297  0.00  0.00    +0.120 C 
ENDROOT
BRANCH   5   8
ATOM      8  C   UNL     1      30.738  16.880  15.267  0.00  0.00    +0.038 A 
ATOM      9  C   UNL     1      29.730  16.618  16.195  0.00  0.00    +0.013 A 
ATOM     10  C   UNL     1      28.870  15.530  16.031  0.00  0.00    +0.002 A 
ATOM     11  C   UNL     1      28.918  14.776  14.862  0.00  0.00    +0.015 A 
ATOM     12  C   UNL     1      29.799  15.132  13.838  0.00  0.00    +0.017 A 
ATOM     13  C   UNL     1      30.734  16.154  14.061  0.00  0.00    +0.028 A 
BRANCH  12  14
ATOM     14  S   UNL     1      29.759  14.293  12.267  0.00  0.00    -0.016 S 
BRANCH  14  15
ATOM     15  C   UNL     1      31.430  13.614  12.188  0.00  0.00    +0.448 C 
ATOM     16  F   UNL     1      32.336  14.442  11.614  0.00  0.00    -0.160 F 
ATOM     17  F   UNL     1      31.893  13.319  13.426  0.00  0.00    -0.160 F 
ATOM     18  F   UNL     1      31.444  12.462  11.472  0.00  0.00    -0.160 F 
ENDBRANCH  14  15
ENDBRANCH  12  14
ENDBRANCH   5   8
BRANCH   1  20
ATOM     19  N   UNL     1      30.652  23.622  15.276  0.00  0.00    -0.329 N 
ATOM     20  C   UNL     1      31.419  22.596  15.736  0.00  0.00    +0.215 C 
ATOM     21  O   UNL     1      31.634  22.490  16.940  0.00  0.00    -0.276 OA
ATOM     22  H   UNL     1      30.246  24.230  15.975  0.00  0.00    +0.145 HD
ATOM     23  H   UNL     1      30.307  23.677  14.328  0.00  0.00    +0.145 HD
ENDBRANCH   1  20
TORSDOF 4
ENDMDL
MODEL 7
REMARK VINA RESULT:      -6.0      5.817      7.489
REMARK  Name = ZINC000826139982
REMARK  4 active torsions:
REMARK  status: ('A' for Active; 'I' for Inactive)
REMARK    1  A    between atoms: C_2  and  C_4
REMARK    2  A    between atoms: C_8  and  C_10
REMARK    3  A    between atoms: C_14  and  S_15
REMARK    4  A    between atoms: S_15  and  C_16
REMARK                            x       y       z     vdW  Elec       q    Type
REMARK                         _______ _______ _______ _____ _____    ______ ____
ROOT
ATOM      1  C   UNL     1      30.931  21.198  16.394  0.00  0.00    +0.093 C 
ATOM      2  C   UNL     1      29.872  21.863  15.515  0.00  0.00    +0.033 C 
ATOM      3  C   UNL     1      30.534  21.836  14.145  0.00  0.00    +0.109 C 
ATOM      4  N   UNL     1      31.903  22.220  14.458  0.00  0.00    -0.297 N 
ATOM      5  C   UNL     1      32.875  22.857  13.696  0.00  0.00    +0.247 C 
ATOM      6  O   UNL     1      34.030  22.973  14.114  0.00  0.00    -0.270 OA
ATOM      7  C   UNL     1      32.250  21.684  15.777  0.00  0.00    +0.120 C 
ENDROOT
BRANCH   5   8
ATOM      8  C   UNL     1      32.580  23.406  12.337  0.00  0.00    +0.038 A 
ATOM      9  C   UNL     1      31.713  24.474  12.106  0.00  0.00    +0.013 A 
ATOM     10  C   UNL     1      31.407  24.882  10.807  0.00  0.00    +0.002 A 
ATOM     11  C   UNL     1      32.076  24.317   9.725  0.00  0.00    +0.015 A 
ATOM     12  C   UNL     1      33.080  23.370   9.943  0.00  0.00    +0.017 A 
ATOM     13  C   UNL     1      33.298  22.887  11.242  0.00  0.00    +0.028 A 
BRANCH  12  14
ATOM     14  S   UNL     1      34.068  22.761   8.593  0.00  0.00    -0.016 S 
BRANCH  14  15
ATOM     15  C   UNL     1      32.815  21.951   7.576  0.00  0.00    +0.448 C 
ATOM     16  F   UNL     1      32.052  22.807   6.854  0.00  0.00    -0.160 F 
ATOM     17  F   UNL     1      33.385  21.092   6.698  0.00  0.00    -0.160 F 
ATOM     18  F   UNL     1      31.967  21.228   8.349  0.00  0.00    -0.160 F 
ENDBRANCH  14  15
ENDBRANCH  12  14
ENDBRANCH   5   8
BRANCH   1  20
ATOM     19  N   UNL     1      29.671  19.187  16.996  0.00  0.00    -0.329 N 
ATOM     20  C   UNL     1      30.770  19.686  16.367  0.00  0.00    +0.215 C 
ATOM     21  O   UNL     1      31.536  18.925  15.784  0.00  0.00    -0.276 OA
ATOM     22  H   UNL     1      29.512  18.192  16.903  0.00  0.00    +0.145 HD
ATOM     23  H   UNL     1      28.923  19.764  17.353  0.00  0.00    +0.145 HD
ENDBRANCH   1  20
TORSDOF 4
ENDMDL
MODEL 8
REMARK VINA RESULT:      -6.0      3.088      3.718
REMARK  Name = ZINC000826139982
REMARK  4 active torsions:
REMARK  status: ('A' for Active; 'I' for Inactive)
REMARK    1  A    between atoms: C_2  and  C_4
REMARK    2  A    between atoms: C_8  and  C_10
REMARK    3  A    between atoms: C_14  and  S_15
REMARK    4  A    between atoms: S_15  and  C_16
REMARK                            x       y       z     vdW  Elec       q    Type
REMARK                         _______ _______ _______ _____ _____    ______ ____
ROOT
ATOM      1  C   UNL     1      29.053  22.426  16.687  0.00  0.00    +0.093 C 
ATOM      2  C   UNL     1      28.503  21.177  17.375  0.00  0.00    +0.033 C 
ATOM      3  C   UNL     1      29.682  20.220  17.284  0.00  0.00    +0.109 C 
ATOM      4  N   UNL     1      30.151  20.439  15.924  0.00  0.00    -0.297 N 
ATOM      5  C   UNL     1      30.821  19.603  15.038  0.00  0.00    +0.247 C 
ATOM      6  O   UNL     1      31.248  20.035  13.964  0.00  0.00    -0.270 OA
ATOM      7  C   UNL     1      29.944  21.847  15.578  0.00  0.00    +0.120 C 
ENDROOT
BRANCH   5   8
ATOM      8  C   UNL     1      31.076  18.164  15.349  0.00  0.00    +0.038 A 
ATOM      9  C   UNL     1      30.069  17.202  15.436  0.00  0.00    +0.013 A 
ATOM     10  C   UNL     1      30.360  15.892  15.819  0.00  0.00    +0.002 A 
ATOM     11  C   UNL     1      31.683  15.493  15.982  0.00  0.00    +0.015 A 
ATOM     12  C   UNL     1      32.720  16.392  15.724  0.00  0.00    +0.017 A 
ATOM     13  C   UNL     1      32.413  17.734  15.451  0.00  0.00    +0.028 A 
BRANCH  12  14
ATOM     14  S   UNL     1      34.419  15.860  15.755  0.00  0.00    -0.016 S 
BRANCH  14  15
ATOM     15  C   UNL     1      34.718  15.738  17.532  0.00  0.00    +0.448 C 
ATOM     16  F   UNL     1      34.240  14.603  18.096  0.00  0.00    -0.160 F 
ATOM     17  F   UNL     1      36.043  15.787  17.805  0.00  0.00    -0.160 F 
ATOM     18  F   UNL     1      34.137  16.775  18.186  0.00  0.00    -0.160 F 
ENDBRANCH  14  15
ENDBRANCH  12  14
ENDBRANCH   5   8
BRANCH   1  20
ATOM     19  N   UNL     1      29.086  23.775  18.730  0.00  0.00    -0.329 N 
ATOM     20  C   UNL     1      29.809  23.292  17.683  0.00  0.00    +0.215 C 
ATOM     21  O   UNL     1      31.010  23.530  17.611  0.00  0.00    -0.276 OA
ATOM     22  H   UNL     1      29.603  24.275  19.441  0.00  0.00    +0.145 HD
ATOM     23  H   UNL     1      28.140  23.487  18.934  0.00  0.00    +0.145 HD
ENDBRANCH   1  20
TORSDOF 4
ENDMDL
MODEL 9
REMARK VINA RESULT:      -5.9      5.656      7.361
REMARK  Name = ZINC000826139982
REMARK  4 active torsions:
REMARK  status: ('A' for Active; 'I' for Inactive)
REMARK    1  A    between atoms: C_2  and  C_4
REMARK    2  A    between atoms: C_8  and  C_10
REMARK    3  A    between atoms: C_14  and  S_15
REMARK    4  A    between atoms: S_15  and  C_16
REMARK                            x       y       z     vdW  Elec       q    Type
REMARK                         _______ _______ _______ _____ _____    ______ ____
ROOT
ATOM      1  C   UNL     1      32.648  23.941   9.517  0.00  0.00    +0.093 C 
ATOM      2  C   UNL     1      31.889  24.881  10.453  0.00  0.00    +0.033 C 
ATOM      3  C   UNL     1      32.546  24.592  11.795  0.00  0.00    +0.109 C 
ATOM      4  N   UNL     1      32.659  23.140  11.775  0.00  0.00    -0.297 N 
ATOM      5  C   UNL     1      32.688  22.208  12.804  0.00  0.00    +0.247 C 
ATOM      6  O   UNL     1      32.924  21.019  12.572  0.00  0.00    -0.270 OA
ATOM      7  C   UNL     1      32.906  22.709  10.396  0.00  0.00    +0.120 C 
ENDROOT
BRANCH   5   8
ATOM      8  C   UNL     1      32.462  22.597  14.230  0.00  0.00    +0.038 A 
ATOM      9  C   UNL     1      33.438  23.184  15.034  0.00  0.00    +0.013 A 
ATOM     10  C   UNL     1      33.195  23.441  16.385  0.00  0.00    +0.002 A 
ATOM     11  C   UNL     1      31.923  23.244  16.912  0.00  0.00    +0.015 A 
ATOM     12  C   UNL     1      30.880  22.827  16.081  0.00  0.00    +0.017 A 
ATOM     13  C   UNL     1      31.162  22.464  14.755  0.00  0.00    +0.028 A 
BRANCH  12  14
ATOM     14  S   UNL     1      29.209  22.735  16.689  0.00  0.00    -0.016 S 
BRANCH  14  15
ATOM     15  C   UNL     1      29.027  20.958  16.952  0.00  0.00    +0.448 C 
ATOM     16  F   UNL     1      29.227  20.211  15.839  0.00  0.00    -0.160 F 
ATOM     17  F   UNL     1      29.900  20.514  17.888  0.00  0.00    -0.160 F 
ATOM     18  F   UNL     1      27.781  20.666  17.401  0.00  0.00    -0.160 F 
ENDBRANCH  14  15
ENDBRANCH  12  14
ENDBRANCH   5   8
BRANCH   1  20
ATOM     19  N   UNL     1      34.983  23.783   8.795  0.00  0.00    -0.329 N 
ATOM     20  C   UNL     1      33.921  24.606   9.016  0.00  0.00    +0.215 C 
ATOM     21  O   UNL     1      34.018  25.804   8.767  0.00  0.00    -0.276 OA
ATOM     22  H   UNL     1      35.801  24.206   8.377  0.00  0.00    +0.145 HD
ATOM     23  H   UNL     1      34.922  22.775   8.826  0.00  0.00    +0.145 HD
ENDBRANCH   1  20
TORSDOF 4
ENDMDL
