MODEL 1
REMARK VINA RESULT:      -6.5      0.000      0.000
REMARK  Name = ZINC000870248439
REMARK  2 active torsions:
REMARK  status: ('A' for Active; 'I' for Inactive)
REMARK    1  A    between atoms: C_2  and  C_4
REMARK    2  A    between atoms: C_7  and  C_8
REMARK                            x       y       z     vdW  Elec       q    Type
REMARK                         _______ _______ _______ _____ _____    ______ ____
ROOT
ATOM      1  C   UNL     1      31.096  21.466  15.061  0.00  0.00    +0.247 C 
ATOM      2  O   UNL     1      31.301  20.353  14.576  0.00  0.00    -0.270 OA
ATOM      3  N   UNL     1      31.714  22.632  14.593  0.00  0.00    -0.297 N 
ATOM      4  C   UNL     1      31.502  23.980  15.115  0.00  0.00    +0.108 C 
ATOM      5  C   UNL     1      31.346  25.029  14.033  0.00  0.00    +0.026 C 
ATOM      6  C   UNL     1      32.486  24.989  13.000  0.00  0.00    -0.025 C 
ATOM      7  C   UNL     1      32.095  25.938  11.843  0.00  0.00    +0.017 C 
ATOM      8  C   UNL     1      33.145  26.066  10.748  0.00  0.00    +0.069 C 
ATOM      9  S   UNL     1      34.728  26.697  11.374  0.00  0.00    -0.161 S 
ATOM     10  C   UNL     1      34.993  25.540  12.742  0.00  0.00    +0.069 C 
ATOM     11  C   UNL     1      33.789  25.494  13.671  0.00  0.00    +0.017 C 
ATOM     12  C   UNL     1      32.601  23.526  12.486  0.00  0.00    +0.026 C 
ATOM     13  C   UNL     1      32.785  22.508  13.610  0.00  0.00    +0.108 C 
ENDROOT
BRANCH   1  17
ATOM     14  C   UNL     1      28.257  22.111  18.186  0.00  0.00    +0.037 A 
ATOM     15  C   UNL     1      29.574  21.787  18.513  0.00  0.00    +0.014 A 
ATOM     16  C   UNL     1      30.471  21.463  17.503  0.00  0.00    +0.014 A 
ATOM     17  C   UNL     1      30.097  21.567  16.157  0.00  0.00    +0.037 A 
ATOM     18  C   UNL     1      28.761  21.826  15.830  0.00  0.00    +0.014 A 
ATOM     19  C   UNL     1      27.839  22.086  16.849  0.00  0.00    +0.014 A 
BRANCH  14  21
ATOM     20  N   UNL     1      26.348  23.407  18.944  0.00  0.00    -0.325 N 
ATOM     21  C   UNL     1      27.293  22.464  19.253  0.00  0.00    +0.242 C 
ATOM     22  O   UNL     1      27.321  21.917  20.348  0.00  0.00    -0.270 OA
ATOM     23  H   UNL     1      25.639  23.564  19.655  0.00  0.00    +0.145 HD
ATOM     24  H   UNL     1      26.128  23.666  17.997  0.00  0.00    +0.145 HD
ENDBRANCH  14  21
ENDBRANCH   1  17
TORSDOF 2
ENDMDL
MODEL 2
REMARK VINA RESULT:      -6.5      4.067      5.656
REMARK  Name = ZINC000870248439
REMARK  2 active torsions:
REMARK  status: ('A' for Active; 'I' for Inactive)
REMARK    1  A    between atoms: C_2  and  C_4
REMARK    2  A    between atoms: C_7  and  C_8
REMARK                            x       y       z     vdW  Elec       q    Type
REMARK                         _______ _______ _______ _____ _____    ______ ____
ROOT
ATOM      1  C   UNL     1      31.064  21.270  15.332  0.00  0.00    +0.247 C 
ATOM      2  O   UNL     1      31.519  22.293  14.820  0.00  0.00    -0.270 OA
ATOM      3  N   UNL     1      31.507  19.983  14.996  0.00  0.00    -0.297 N 
ATOM      4  C   UNL     1      31.020  18.734  15.577  0.00  0.00    +0.108 C 
ATOM      5  C   UNL     1      32.125  17.755  15.917  0.00  0.00    +0.026 C 
ATOM      6  C   UNL     1      33.079  17.503  14.736  0.00  0.00    -0.025 C 
ATOM      7  C   UNL     1      34.272  16.681  15.273  0.00  0.00    +0.017 C 
ATOM      8  C   UNL     1      35.296  16.288  14.216  0.00  0.00    +0.069 C 
ATOM      9  S   UNL     1      34.575  15.280  12.890  0.00  0.00    -0.161 S 
ATOM     10  C   UNL     1      33.175  16.337  12.437  0.00  0.00    +0.069 C 
ATOM     11  C   UNL     1      32.329  16.688  13.651  0.00  0.00    +0.017 C 
ATOM     12  C   UNL     1      33.562  18.888  14.222  0.00  0.00    +0.026 C 
ATOM     13  C   UNL     1      32.413  19.830  13.864  0.00  0.00    +0.108 C 
ENDROOT
BRANCH   1  17
ATOM     14  C   UNL     1      28.132  22.070  18.332  0.00  0.00    +0.037 A 
ATOM     15  C   UNL     1      29.458  21.860  18.710  0.00  0.00    +0.014 A 
ATOM     16  C   UNL     1      30.392  21.485  17.752  0.00  0.00    +0.014 A 
ATOM     17  C   UNL     1      30.039  21.426  16.397  0.00  0.00    +0.037 A 
ATOM     18  C   UNL     1      28.698  21.571  16.026  0.00  0.00    +0.014 A 
ATOM     19  C   UNL     1      27.742  21.881  16.999  0.00  0.00    +0.014 A 
BRANCH  14  21
ATOM     20  N   UNL     1      26.206  23.412  18.955  0.00  0.00    -0.325 N 
ATOM     21  C   UNL     1      27.128  22.475  19.342  0.00  0.00    +0.242 C 
ATOM     22  O   UNL     1      27.106  21.974  20.459  0.00  0.00    -0.270 OA
ATOM     23  H   UNL     1      25.470  23.605  19.629  0.00  0.00    +0.145 HD
ATOM     24  H   UNL     1      26.028  23.632  17.990  0.00  0.00    +0.145 HD
ENDBRANCH  14  21
ENDBRANCH   1  17
TORSDOF 2
ENDMDL
MODEL 3
REMARK VINA RESULT:      -6.4      0.549      1.150
REMARK  Name = ZINC000870248439
REMARK  2 active torsions:
REMARK  status: ('A' for Active; 'I' for Inactive)
REMARK    1  A    between atoms: C_2  and  C_4
REMARK    2  A    between atoms: C_7  and  C_8
REMARK                            x       y       z     vdW  Elec       q    Type
REMARK                         _______ _______ _______ _____ _____    ______ ____
ROOT
ATOM      1  C   UNL     1      31.163  22.020  15.254  0.00  0.00    +0.247 C 
ATOM      2  O   UNL     1      31.390  20.844  14.968  0.00  0.00    -0.270 OA
ATOM      3  N   UNL     1      31.771  23.099  14.599  0.00  0.00    -0.297 N 
ATOM      4  C   UNL     1      31.533  24.512  14.880  0.00  0.00    +0.108 C 
ATOM      5  C   UNL     1      31.378  25.359  13.633  0.00  0.00    +0.026 C 
ATOM      6  C   UNL     1      32.531  25.161  12.635  0.00  0.00    -0.025 C 
ATOM      7  C   UNL     1      32.143  25.892  11.329  0.00  0.00    +0.017 C 
ATOM      8  C   UNL     1      33.206  25.848  10.240  0.00  0.00    +0.069 C 
ATOM      9  S   UNL     1      34.772  26.601  10.765  0.00  0.00    -0.161 S 
ATOM     10  C   UNL     1      35.034  25.699  12.314  0.00  0.00    +0.069 C 
ATOM     11  C   UNL     1      33.818  25.794  13.224  0.00  0.00    +0.017 C 
ATOM     12  C   UNL     1      32.673  23.634  12.380  0.00  0.00    +0.026 C 
ATOM     13  C   UNL     1      32.857  22.826  13.664  0.00  0.00    +0.108 C 
ENDROOT
BRANCH   1  17
ATOM     14  C   UNL     1      28.282  22.461  18.376  0.00  0.00    +0.037 A 
ATOM     15  C   UNL     1      27.847  22.260  17.066  0.00  0.00    +0.014 A 
ATOM     16  C   UNL     1      28.775  22.233  16.032  0.00  0.00    +0.014 A 
ATOM     17  C   UNL     1      30.147  22.291  16.305  0.00  0.00    +0.037 A 
ATOM     18  C   UNL     1      30.581  22.560  17.607  0.00  0.00    +0.014 A 
ATOM     19  C   UNL     1      29.644  22.657  18.641  0.00  0.00    +0.014 A 
BRANCH  14  21
ATOM     20  N   UNL     1      26.243  23.345  19.355  0.00  0.00    -0.325 N 
ATOM     21  C   UNL     1      27.304  22.488  19.487  0.00  0.00    +0.242 C 
ATOM     22  O   UNL     1      27.423  21.757  20.462  0.00  0.00    -0.270 OA
ATOM     23  H   UNL     1      25.535  23.278  20.082  0.00  0.00    +0.145 HD
ATOM     24  H   UNL     1      25.973  23.743  18.472  0.00  0.00    +0.145 HD
ENDBRANCH  14  21
ENDBRANCH   1  17
TORSDOF 2
ENDMDL
MODEL 4
REMARK VINA RESULT:      -6.3      1.227      1.406
REMARK  Name = ZINC000870248439
REMARK  2 active torsions:
REMARK  status: ('A' for Active; 'I' for Inactive)
REMARK    1  A    between atoms: C_2  and  C_4
REMARK    2  A    between atoms: C_7  and  C_8
REMARK                            x       y       z     vdW  Elec       q    Type
REMARK                         _______ _______ _______ _____ _____    ______ ____
ROOT
ATOM      1  C   UNL     1      32.117  21.189  14.100  0.00  0.00    +0.247 C 
ATOM      2  O   UNL     1      32.616  20.151  13.664  0.00  0.00    -0.270 OA
ATOM      3  N   UNL     1      32.503  22.465  13.668  0.00  0.00    -0.297 N 
ATOM      4  C   UNL     1      31.940  23.730  14.133  0.00  0.00    +0.108 C 
ATOM      5  C   UNL     1      31.666  24.716  13.016  0.00  0.00    +0.026 C 
ATOM      6  C   UNL     1      32.886  24.934  12.105  0.00  0.00    -0.025 C 
ATOM      7  C   UNL     1      32.415  25.769  10.893  0.00  0.00    +0.017 C 
ATOM      8  C   UNL     1      33.517  26.131   9.907  0.00  0.00    +0.069 C 
ATOM      9  S   UNL     1      34.845  27.103  10.673  0.00  0.00    -0.161 S 
ATOM     10  C   UNL     1      35.219  26.036  12.089  0.00  0.00    +0.069 C 
ATOM     11  C   UNL     1      33.966  25.720  12.892  0.00  0.00    +0.017 C 
ATOM     12  C   UNL     1      33.380  23.534  11.641  0.00  0.00    +0.026 C 
ATOM     13  C   UNL     1      33.670  22.585  12.802  0.00  0.00    +0.108 C 
ENDROOT
BRANCH   1  17
ATOM     14  C   UNL     1      28.910  21.180  16.920  0.00  0.00    +0.037 A 
ATOM     15  C   UNL     1      30.225  21.097  17.378  0.00  0.00    +0.014 A 
ATOM     16  C   UNL     1      31.263  20.982  16.462  0.00  0.00    +0.014 A 
ATOM     17  C   UNL     1      31.012  21.063  15.086  0.00  0.00    +0.037 A 
ATOM     18  C   UNL     1      29.692  21.079  14.626  0.00  0.00    +0.014 A 
ATOM     19  C   UNL     1      28.639  21.125  15.546  0.00  0.00    +0.014 A 
BRANCH  14  21
ATOM     20  N   UNL     1      27.265  22.561  18.054  0.00  0.00    -0.325 N 
ATOM     21  C   UNL     1      27.794  21.308  17.885  0.00  0.00    +0.242 C 
ATOM     22  O   UNL     1      27.348  20.336  18.480  0.00  0.00    -0.270 OA
ATOM     23  H   UNL     1      26.440  22.611  18.647  0.00  0.00    +0.145 HD
ATOM     24  H   UNL     1      27.416  23.308  17.398  0.00  0.00    +0.145 HD
ENDBRANCH  14  21
ENDBRANCH   1  17
TORSDOF 2
ENDMDL
MODEL 5
REMARK VINA RESULT:      -6.2      5.571      6.948
REMARK  Name = ZINC000870248439
REMARK  2 active torsions:
REMARK  status: ('A' for Active; 'I' for Inactive)
REMARK    1  A    between atoms: C_2  and  C_4
REMARK    2  A    between atoms: C_7  and  C_8
REMARK                            x       y       z     vdW  Elec       q    Type
REMARK                         _______ _______ _______ _____ _____    ______ ____
ROOT
ATOM      1  C   UNL     1      32.675  17.818  16.680  0.00  0.00    +0.247 C 
ATOM      2  O   UNL     1      32.917  17.311  17.776  0.00  0.00    -0.270 OA
ATOM      3  N   UNL     1      33.346  17.456  15.504  0.00  0.00    -0.297 N 
ATOM      4  C   UNL     1      33.096  18.008  14.175  0.00  0.00    +0.108 C 
ATOM      5  C   UNL     1      33.053  16.958  13.083  0.00  0.00    +0.026 C 
ATOM      6  C   UNL     1      34.285  16.038  13.097  0.00  0.00    -0.025 C 
ATOM      7  C   UNL     1      34.015  14.888  12.101  0.00  0.00    +0.017 C 
ATOM      8  C   UNL     1      35.166  13.903  11.943  0.00  0.00    +0.069 C 
ATOM      9  S   UNL     1      36.687  14.701  11.356  0.00  0.00    -0.161 S 
ATOM     10  C   UNL     1      36.810  16.042  12.568  0.00  0.00    +0.069 C 
ATOM     11  C   UNL     1      35.523  16.849  12.635  0.00  0.00    +0.017 C 
ATOM     12  C   UNL     1      34.437  15.480  14.541  0.00  0.00    +0.026 C 
ATOM     13  C   UNL     1      34.504  16.576  15.603  0.00  0.00    +0.108 C 
ENDROOT
BRANCH   1  17
ATOM     14  C   UNL     1      29.484  20.652  16.825  0.00  0.00    +0.037 A 
ATOM     15  C   UNL     1      29.217  19.339  16.435  0.00  0.00    +0.014 A 
ATOM     16  C   UNL     1      30.268  18.446  16.274  0.00  0.00    +0.014 A 
ATOM     17  C   UNL     1      31.577  18.817  16.608  0.00  0.00    +0.037 A 
ATOM     18  C   UNL     1      31.854  20.148  16.935  0.00  0.00    +0.014 A 
ATOM     19  C   UNL     1      30.806  21.069  17.031  0.00  0.00    +0.014 A 
BRANCH  14  21
ATOM     20  N   UNL     1      28.397  22.739  16.226  0.00  0.00    -0.325 N 
ATOM     21  C   UNL     1      28.372  21.613  17.006  0.00  0.00    +0.242 C 
ATOM     22  O   UNL     1      27.459  21.396  17.793  0.00  0.00    -0.270 OA
ATOM     23  H   UNL     1      27.577  23.337  16.295  0.00  0.00    +0.145 HD
ATOM     24  H   UNL     1      28.963  22.814  15.398  0.00  0.00    +0.145 HD
ENDBRANCH  14  21
ENDBRANCH   1  17
TORSDOF 2
ENDMDL
MODEL 6
REMARK VINA RESULT:      -6.2      4.310      5.240
REMARK  Name = ZINC000870248439
REMARK  2 active torsions:
REMARK  status: ('A' for Active; 'I' for Inactive)
REMARK    1  A    between atoms: C_2  and  C_4
REMARK    2  A    between atoms: C_7  and  C_8
REMARK                            x       y       z     vdW  Elec       q    Type
REMARK                         _______ _______ _______ _____ _____    ______ ____
ROOT
ATOM      1  C   UNL     1      30.537  17.986  15.387  0.00  0.00    +0.247 C 
ATOM      2  O   UNL     1      29.923  16.920  15.352  0.00  0.00    -0.270 OA
ATOM      3  N   UNL     1      31.801  18.162  14.808  0.00  0.00    -0.297 N 
ATOM      4  C   UNL     1      32.572  19.402  14.802  0.00  0.00    +0.108 C 
ATOM      5  C   UNL     1      33.208  19.712  13.462  0.00  0.00    +0.026 C 
ATOM      6  C   UNL     1      34.021  18.530  12.904  0.00  0.00    -0.025 C 
ATOM      7  C   UNL     1      34.419  18.887  11.453  0.00  0.00    +0.017 C 
ATOM      8  C   UNL     1      35.285  17.844  10.760  0.00  0.00    +0.069 C 
ATOM      9  S   UNL     1      36.851  17.551  11.631  0.00  0.00    -0.161 S 
ATOM     10  C   UNL     1      36.213  17.228  13.296  0.00  0.00    +0.069 C 
ATOM     11  C   UNL     1      35.297  18.348  13.765  0.00  0.00    +0.017 C 
ATOM     12  C   UNL     1      33.099  17.278  12.921  0.00  0.00    +0.026 C 
ATOM     13  C   UNL     1      32.504  16.990  14.299  0.00  0.00    +0.108 C 
ENDROOT
BRANCH   1  17
ATOM     14  C   UNL     1      28.580  21.127  17.519  0.00  0.00    +0.037 A 
ATOM     15  C   UNL     1      27.846  20.342  16.630  0.00  0.00    +0.014 A 
ATOM     16  C   UNL     1      28.500  19.397  15.849  0.00  0.00    +0.014 A 
ATOM     17  C   UNL     1      29.867  19.148  16.028  0.00  0.00    +0.037 A 
ATOM     18  C   UNL     1      30.616  19.978  16.868  0.00  0.00    +0.014 A 
ATOM     19  C   UNL     1      29.971  20.977  17.605  0.00  0.00    +0.014 A 
BRANCH  14  21
ATOM     20  N   UNL     1      28.318  23.431  18.240  0.00  0.00    -0.325 N 
ATOM     21  C   UNL     1      27.894  22.134  18.361  0.00  0.00    +0.242 C 
ATOM     22  O   UNL     1      26.973  21.824  19.105  0.00  0.00    -0.270 OA
ATOM     23  H   UNL     1      27.772  24.119  18.753  0.00  0.00    +0.145 HD
ATOM     24  H   UNL     1      28.865  23.754  17.460  0.00  0.00    +0.145 HD
ENDBRANCH  14  21
ENDBRANCH   1  17
TORSDOF 2
ENDMDL
MODEL 7
REMARK VINA RESULT:      -6.0      5.667      8.602
REMARK  Name = ZINC000870248439
REMARK  2 active torsions:
REMARK  status: ('A' for Active; 'I' for Inactive)
REMARK    1  A    between atoms: C_2  and  C_4
REMARK    2  A    between atoms: C_7  and  C_8
REMARK                            x       y       z     vdW  Elec       q    Type
REMARK                         _______ _______ _______ _____ _____    ______ ____
ROOT
ATOM      1  C   UNL     1      33.352  18.987  13.400  0.00  0.00    +0.247 C 
ATOM      2  O   UNL     1      33.691  19.832  12.572  0.00  0.00    -0.270 OA
ATOM      3  N   UNL     1      32.402  19.231  14.400  0.00  0.00    -0.297 N 
ATOM      4  C   UNL     1      31.947  18.268  15.400  0.00  0.00    +0.108 C 
ATOM      5  C   UNL     1      30.446  18.275  15.607  0.00  0.00    +0.026 C 
ATOM      6  C   UNL     1      29.891  19.684  15.876  0.00  0.00    -0.025 C 
ATOM      7  C   UNL     1      28.348  19.587  15.840  0.00  0.00    +0.017 C 
ATOM      8  C   UNL     1      27.626  20.892  16.147  0.00  0.00    +0.069 C 
ATOM      9  S   UNL     1      28.029  21.540  17.795  0.00  0.00    -0.161 S 
ATOM     10  C   UNL     1      29.838  21.516  17.692  0.00  0.00    +0.069 C 
ATOM     11  C   UNL     1      30.352  20.144  17.283  0.00  0.00    +0.017 C 
ATOM     12  C   UNL     1      30.403  20.614  14.740  0.00  0.00    +0.026 C 
ATOM     13  C   UNL     1      31.923  20.596  14.590  0.00  0.00    +0.108 C 
ENDROOT
BRANCH   1  17
ATOM     14  C   UNL     1      34.798  14.970  13.278  0.00  0.00    +0.037 A 
ATOM     15  C   UNL     1      35.403  15.890  14.136  0.00  0.00    +0.014 A 
ATOM     16  C   UNL     1      35.014  17.223  14.094  0.00  0.00    +0.014 A 
ATOM     17  C   UNL     1      33.946  17.629  13.283  0.00  0.00    +0.037 A 
ATOM     18  C   UNL     1      33.384  16.723  12.377  0.00  0.00    +0.014 A 
ATOM     19  C   UNL     1      33.821  15.395  12.368  0.00  0.00    +0.014 A 
BRANCH  14  21
ATOM     20  N   UNL     1      36.061  13.120  12.339  0.00  0.00    -0.325 N 
ATOM     21  C   UNL     1      35.199  13.545  13.316  0.00  0.00    +0.242 C 
ATOM     22  O   UNL     1      34.803  12.792  14.197  0.00  0.00    -0.270 OA
ATOM     23  H   UNL     1      36.398  12.167  12.439  0.00  0.00    +0.145 HD
ATOM     24  H   UNL     1      36.607  13.756  11.783  0.00  0.00    +0.145 HD
ENDBRANCH  14  21
ENDBRANCH   1  17
TORSDOF 2
ENDMDL
MODEL 8
REMARK VINA RESULT:      -6.0      4.658      5.356
REMARK  Name = ZINC000870248439
REMARK  2 active torsions:
REMARK  status: ('A' for Active; 'I' for Inactive)
REMARK    1  A    between atoms: C_2  and  C_4
REMARK    2  A    between atoms: C_7  and  C_8
REMARK                            x       y       z     vdW  Elec       q    Type
REMARK                         _______ _______ _______ _____ _____    ______ ____
ROOT
ATOM      1  C   UNL     1      29.123  19.062  16.051  0.00  0.00    +0.247 C 
ATOM      2  O   UNL     1      28.418  18.393  15.295  0.00  0.00    -0.270 OA
ATOM      3  N   UNL     1      30.508  18.882  16.166  0.00  0.00    -0.297 N 
ATOM      4  C   UNL     1      31.399  19.651  17.030  0.00  0.00    +0.108 C 
ATOM      5  C   UNL     1      32.690  20.065  16.353  0.00  0.00    +0.026 C 
ATOM      6  C   UNL     1      33.417  18.883  15.689  0.00  0.00    -0.025 C 
ATOM      7  C   UNL     1      34.577  19.466  14.851  0.00  0.00    +0.017 C 
ATOM      8  C   UNL     1      35.447  18.422  14.163  0.00  0.00    +0.069 C 
ATOM      9  S   UNL     1      36.229  17.283  15.341  0.00  0.00    -0.161 S 
ATOM     10  C   UNL     1      34.764  16.762  16.272  0.00  0.00    +0.069 C 
ATOM     11  C   UNL     1      33.985  17.958  16.796  0.00  0.00    +0.017 C 
ATOM     12  C   UNL     1      32.392  18.161  14.769  0.00  0.00    +0.026 C 
ATOM     13  C   UNL     1      31.121  17.737  15.503  0.00  0.00    +0.108 C 
ENDROOT
BRANCH   1  17
ATOM     14  C   UNL     1      27.556  22.242  18.431  0.00  0.00    +0.037 A 
ATOM     15  C   UNL     1      27.378  20.923  18.848  0.00  0.00    +0.014 A 
ATOM     16  C   UNL     1      27.782  19.883  18.021  0.00  0.00    +0.014 A 
ATOM     17  C   UNL     1      28.467  20.146  16.828  0.00  0.00    +0.037 A 
ATOM     18  C   UNL     1      28.587  21.465  16.378  0.00  0.00    +0.014 A 
ATOM     19  C   UNL     1      28.119  22.513  17.177  0.00  0.00    +0.014 A 
BRANCH  14  21
ATOM     20  N   UNL     1      28.084  24.301  19.607  0.00  0.00    -0.325 N 
ATOM     21  C   UNL     1      27.134  23.360  19.306  0.00  0.00    +0.242 C 
ATOM     22  O   UNL     1      25.984  23.453  19.715  0.00  0.00    -0.270 OA
ATOM     23  H   UNL     1      27.750  25.108  20.128  0.00  0.00    +0.145 HD
ATOM     24  H   UNL     1      28.934  24.402  19.080  0.00  0.00    +0.145 HD
ENDBRANCH  14  21
ENDBRANCH   1  17
TORSDOF 2
ENDMDL
MODEL 9
REMARK VINA RESULT:      -5.9      3.865      7.672
REMARK  Name = ZINC000870248439
REMARK  2 active torsions:
REMARK  status: ('A' for Active; 'I' for Inactive)
REMARK    1  A    between atoms: C_2  and  C_4
REMARK    2  A    between atoms: C_7  and  C_8
REMARK                            x       y       z     vdW  Elec       q    Type
REMARK                         _______ _______ _______ _____ _____    ______ ____
ROOT
ATOM      1  C   UNL     1      32.231  24.402  15.370  0.00  0.00    +0.247 C 
ATOM      2  O   UNL     1      32.203  25.033  16.426  0.00  0.00    -0.270 OA
ATOM      3  N   UNL     1      31.960  23.029  15.290  0.00  0.00    -0.297 N 
ATOM      4  C   UNL     1      31.962  22.229  14.069  0.00  0.00    +0.108 C 
ATOM      5  C   UNL     1      30.789  21.274  13.970  0.00  0.00    +0.026 C 
ATOM      6  C   UNL     1      30.628  20.401  15.226  0.00  0.00    -0.025 C 
ATOM      7  C   UNL     1      29.284  19.649  15.097  0.00  0.00    +0.017 C 
ATOM      8  C   UNL     1      28.987  18.684  16.238  0.00  0.00    +0.069 C 
ATOM      9  S   UNL     1      30.249  17.390  16.401  0.00  0.00    -0.161 S 
ATOM     10  C   UNL     1      31.734  18.425  16.462  0.00  0.00    +0.069 C 
ATOM     11  C   UNL     1      31.794  19.380  15.280  0.00  0.00    +0.017 C 
ATOM     12  C   UNL     1      30.602  21.351  16.457  0.00  0.00    +0.026 C 
ATOM     13  C   UNL     1      31.818  22.273  16.529  0.00  0.00    +0.108 C 
ENDROOT
BRANCH   1  17
ATOM     14  C   UNL     1      32.981  26.269  11.603  0.00  0.00    +0.037 A 
ATOM     15  C   UNL     1      34.058  25.898  12.410  0.00  0.00    +0.014 A 
ATOM     16  C   UNL     1      33.818  25.398  13.684  0.00  0.00    +0.014 A 
ATOM     17  C   UNL     1      32.509  25.158  14.120  0.00  0.00    +0.037 A 
ATOM     18  C   UNL     1      31.431  25.591  13.341  0.00  0.00    +0.014 A 
ATOM     19  C   UNL     1      31.670  26.159  12.086  0.00  0.00    +0.014 A 
BRANCH  14  21
ATOM     20  N   UNL     1      32.951  25.957   9.195  0.00  0.00    -0.325 N 
ATOM     21  C   UNL     1      33.223  26.799  10.241  0.00  0.00    +0.242 C 
ATOM     22  O   UNL     1      33.618  27.943  10.061  0.00  0.00    -0.270 OA
ATOM     23  H   UNL     1      33.031  26.371   8.270  0.00  0.00    +0.145 HD
ATOM     24  H   UNL     1      32.380  25.135   9.293  0.00  0.00    +0.145 HD
ENDBRANCH  14  21
ENDBRANCH   1  17
TORSDOF 2
ENDMDL
