MODEL 1
REMARK VINA RESULT:      -6.1      0.000      0.000
REMARK  Name = ZINC000560333501
REMARK  5 active torsions:
REMARK  status: ('A' for Active; 'I' for Inactive)
REMARK    1  A    between atoms: C_2  and  C_3
REMARK    2  A    between atoms: C_7  and  C_8
REMARK    3  A    between atoms: C_8  and  C_9
REMARK    4  A    between atoms: N_11  and  C_12
REMARK    5  A    between atoms: C_12  and  C_13
REMARK                            x       y       z     vdW  Elec       q    Type
REMARK                         _______ _______ _______ _____ _____    ______ ____
ROOT
ATOM      1  C   UNL     1      31.558  22.958  12.966  0.00  0.00    +0.217 C 
ATOM      2  O   UNL     1      31.685  23.968  13.664  0.00  0.00    -0.275 OA
ATOM      3  N   UNL     1      32.001  22.882  11.657  0.00  0.00    -0.315 N 
ATOM      4  H   UNL     1      32.123  21.949  11.284  0.00  0.00    +0.149 HD
ENDROOT
BRANCH   1   5
ATOM      5  C   UNL     1      30.893  21.717  13.512  0.00  0.00    +0.131 C 
BRANCH   5  10
ATOM      6  C   UNL     1      33.299  18.783  14.065  0.00  0.00    +0.052 A 
ATOM      7  C   UNL     1      33.681  18.998  15.394  0.00  0.00    +0.019 A 
ATOM      8  C   UNL     1      33.144  20.070  16.107  0.00  0.00    +0.002 A 
ATOM      9  C   UNL     1      32.222  20.925  15.500  0.00  0.00    +0.004 A 
ATOM     10  C   UNL     1      31.822  20.721  14.172  0.00  0.00    -0.037 A 
ATOM     11  C   UNL     1      32.376  19.645  13.457  0.00  0.00    +0.023 A 
BRANCH   6  13
ATOM     12  N   UNL     1      34.323  16.805  12.735  0.00  0.00    -0.191 NA
ATOM     13  C   UNL     1      33.866  17.693  13.327  0.00  0.00    +0.099 C 
ENDBRANCH   6  13
ENDBRANCH   5  10
ENDBRANCH   1   5
BRANCH   3  14
ATOM     14  C   UNL     1      32.927  23.898  11.187  0.00  0.00    +0.108 C 
BRANCH  14  15
ATOM     15  C   UNL     1      34.420  23.652  11.477  0.00  0.00    +0.011 C 
ATOM     16  C   UNL     1      35.286  24.898  11.313  0.00  0.00    +0.033 C 
ATOM     17  C   UNL     1      35.212  25.420   9.887  0.00  0.00    +0.161 C 
ATOM     18  O   UNL     1      35.410  24.413   8.897  0.00  0.00    -0.373 OA
ATOM     19  C   UNL     1      34.882  23.065   9.062  0.00  0.00    +0.070 C 
ATOM     20  C   UNL     1      33.504  22.720   8.396  0.00  0.00    +0.035 C 
ATOM     21  C   UNL     1      34.259  22.340   7.122  0.00  0.00    +0.006 C 
ATOM     22  C   UNL     1      35.496  22.084   8.005  0.00  0.00    +0.035 C 
ATOM     23  C   UNL     1      34.998  22.591  10.516  0.00  0.00    +0.040 C 
ENDBRANCH  14  15
ENDBRANCH   3  14
TORSDOF 5
ENDMDL
MODEL 2
REMARK VINA RESULT:      -6.1      2.253      5.665
REMARK  Name = ZINC000560333501
REMARK  5 active torsions:
REMARK  status: ('A' for Active; 'I' for Inactive)
REMARK    1  A    between atoms: C_2  and  C_3
REMARK    2  A    between atoms: C_7  and  C_8
REMARK    3  A    between atoms: C_8  and  C_9
REMARK    4  A    between atoms: N_11  and  C_12
REMARK    5  A    between atoms: C_12  and  C_13
REMARK                            x       y       z     vdW  Elec       q    Type
REMARK                         _______ _______ _______ _____ _____    ______ ____
ROOT
ATOM      1  C   UNL     1      31.285  23.319  13.053  0.00  0.00    +0.217 C 
ATOM      2  O   UNL     1      30.616  22.327  12.752  0.00  0.00    -0.275 OA
ATOM      3  N   UNL     1      31.702  23.588  14.345  0.00  0.00    -0.315 N 
ATOM      4  H   UNL     1      32.474  24.237  14.435  0.00  0.00    +0.149 HD
ENDROOT
BRANCH   1   5
ATOM      5  C   UNL     1      31.694  24.325  12.003  0.00  0.00    +0.131 C 
BRANCH   5  10
ATOM      6  C   UNL     1      34.447  22.357  10.199  0.00  0.00    +0.052 A 
ATOM      7  C   UNL     1      34.197  22.708   8.867  0.00  0.00    +0.019 A 
ATOM      8  C   UNL     1      33.162  23.592   8.564  0.00  0.00    +0.002 A 
ATOM      9  C   UNL     1      32.378  24.131   9.586  0.00  0.00    +0.004 A 
ATOM     10  C   UNL     1      32.618  23.797  10.926  0.00  0.00    -0.037 A 
ATOM     11  C   UNL     1      33.656  22.897  11.222  0.00  0.00    +0.023 A 
BRANCH   6  13
ATOM     12  N   UNL     1      36.350  20.682  10.750  0.00  0.00    -0.191 NA
ATOM     13  C   UNL     1      35.498  21.432  10.508  0.00  0.00    +0.099 C 
ENDBRANCH   6  13
ENDBRANCH   5  10
ENDBRANCH   1   5
BRANCH   3  14
ATOM     14  C   UNL     1      31.632  22.518  15.324  0.00  0.00    +0.108 C 
BRANCH  14  15
ATOM     15  C   UNL     1      32.846  22.363  16.260  0.00  0.00    +0.011 C 
ATOM     16  C   UNL     1      34.097  23.082  15.761  0.00  0.00    +0.033 C 
ATOM     17  C   UNL     1      34.530  22.531  14.411  0.00  0.00    +0.161 C 
ATOM     18  O   UNL     1      34.593  21.108  14.366  0.00  0.00    -0.373 OA
ATOM     19  C   UNL     1      33.616  20.277  15.058  0.00  0.00    +0.070 C 
ATOM     20  C   UNL     1      32.393  19.732  14.243  0.00  0.00    +0.035 C 
ATOM     21  C   UNL     1      33.242  18.523  13.850  0.00  0.00    +0.006 C 
ATOM     22  C   UNL     1      34.084  18.782  15.114  0.00  0.00    +0.035 C 
ATOM     23  C   UNL     1      33.232  20.877  16.417  0.00  0.00    +0.040 C 
ENDBRANCH  14  15
ENDBRANCH   3  14
TORSDOF 5
ENDMDL
MODEL 3
REMARK VINA RESULT:      -6.0      2.096      6.456
REMARK  Name = ZINC000560333501
REMARK  5 active torsions:
REMARK  status: ('A' for Active; 'I' for Inactive)
REMARK    1  A    between atoms: C_2  and  C_3
REMARK    2  A    between atoms: C_7  and  C_8
REMARK    3  A    between atoms: C_8  and  C_9
REMARK    4  A    between atoms: N_11  and  C_12
REMARK    5  A    between atoms: C_12  and  C_13
REMARK                            x       y       z     vdW  Elec       q    Type
REMARK                         _______ _______ _______ _____ _____    ______ ____
ROOT
ATOM      1  C   UNL     1      32.149  23.798  11.599  0.00  0.00    +0.217 C 
ATOM      2  O   UNL     1      31.546  24.526  12.392  0.00  0.00    -0.275 OA
ATOM      3  N   UNL     1      32.901  22.706  11.995  0.00  0.00    -0.315 N 
ATOM      4  H   UNL     1      33.097  22.019  11.278  0.00  0.00    +0.149 HD
ENDROOT
BRANCH   1   5
ATOM      5  C   UNL     1      32.102  24.065  10.113  0.00  0.00    +0.131 C 
BRANCH   5  10
ATOM      6  C   UNL     1      34.804  22.723   7.747  0.00  0.00    +0.052 A 
ATOM      7  C   UNL     1      35.806  23.686   7.912  0.00  0.00    +0.019 A 
ATOM      8  C   UNL     1      35.614  24.744   8.800  0.00  0.00    +0.002 A 
ATOM      9  C   UNL     1      34.426  24.842   9.528  0.00  0.00    +0.004 A 
ATOM     10  C   UNL     1      33.414  23.882   9.381  0.00  0.00    -0.037 A 
ATOM     11  C   UNL     1      33.612  22.826   8.476  0.00  0.00    +0.023 A 
BRANCH   6  13
ATOM     12  N   UNL     1      35.150  20.781   6.062  0.00  0.00    -0.191 NA
ATOM     13  C   UNL     1      34.995  21.647   6.819  0.00  0.00    +0.099 C 
ENDBRANCH   6  13
ENDBRANCH   5  10
ENDBRANCH   1   5
BRANCH   3  14
ATOM     14  C   UNL     1      32.721  22.204  13.346  0.00  0.00    +0.108 C 
BRANCH  14  15
ATOM     15  C   UNL     1      31.498  21.299  13.585  0.00  0.00    +0.011 C 
ATOM     16  C   UNL     1      31.107  21.177  15.055  0.00  0.00    +0.033 C 
ATOM     17  C   UNL     1      32.244  20.574  15.865  0.00  0.00    +0.161 C 
ATOM     18  O   UNL     1      32.796  19.394  15.287  0.00  0.00    -0.373 OA
ATOM     19  C   UNL     1      32.956  19.250  13.846  0.00  0.00    +0.070 C 
ATOM     20  C   UNL     1      34.351  19.590  13.215  0.00  0.00    +0.035 C 
ATOM     21  C   UNL     1      34.776  18.144  13.473  0.00  0.00    +0.006 C 
ATOM     22  C   UNL     1      33.282  17.768  13.458  0.00  0.00    +0.035 C 
ATOM     23  C   UNL     1      31.773  19.864  13.087  0.00  0.00    +0.040 C 
ENDBRANCH  14  15
ENDBRANCH   3  14
TORSDOF 5
ENDMDL
MODEL 4
REMARK VINA RESULT:      -6.0      2.353      6.829
REMARK  Name = ZINC000560333501
REMARK  5 active torsions:
REMARK  status: ('A' for Active; 'I' for Inactive)
REMARK    1  A    between atoms: C_2  and  C_3
REMARK    2  A    between atoms: C_7  and  C_8
REMARK    3  A    between atoms: C_8  and  C_9
REMARK    4  A    between atoms: N_11  and  C_12
REMARK    5  A    between atoms: C_12  and  C_13
REMARK                            x       y       z     vdW  Elec       q    Type
REMARK                         _______ _______ _______ _____ _____    ______ ____
ROOT
ATOM      1  C   UNL     1      32.014  23.687  11.576  0.00  0.00    +0.217 C 
ATOM      2  O   UNL     1      31.536  24.434  12.434  0.00  0.00    -0.275 OA
ATOM      3  N   UNL     1      32.474  22.411  11.854  0.00  0.00    -0.315 N 
ATOM      4  H   UNL     1      32.560  21.790  11.059  0.00  0.00    +0.149 HD
ENDROOT
BRANCH   1   5
ATOM      5  C   UNL     1      32.133  24.135  10.138  0.00  0.00    +0.131 C 
BRANCH   5  10
ATOM      6  C   UNL     1      35.028  23.218   7.797  0.00  0.00    +0.052 A 
ATOM      7  C   UNL     1      36.068  23.973   8.351  0.00  0.00    +0.019 A 
ATOM      8  C   UNL     1      35.836  24.749   9.485  0.00  0.00    +0.002 A 
ATOM      9  C   UNL     1      34.570  24.772  10.072  0.00  0.00    +0.004 A 
ATOM     10  C   UNL     1      33.517  24.018   9.536  0.00  0.00    -0.037 A 
ATOM     11  C   UNL     1      33.756  23.246   8.386  0.00  0.00    +0.023 A 
BRANCH   6  13
ATOM     12  N   UNL     1      35.448  21.808   5.661  0.00  0.00    -0.191 NA
ATOM     13  C   UNL     1      35.263  22.436   6.619  0.00  0.00    +0.099 C 
ENDBRANCH   6  13
ENDBRANCH   5  10
ENDBRANCH   1   5
BRANCH   3  14
ATOM     14  C   UNL     1      32.092  21.805  13.117  0.00  0.00    +0.108 C 
BRANCH  14  15
ATOM     15  C   UNL     1      33.016  20.697  13.654  0.00  0.00    +0.011 C 
ATOM     16  C   UNL     1      32.287  19.641  14.479  0.00  0.00    +0.033 C 
ATOM     17  C   UNL     1      31.630  20.271  15.698  0.00  0.00    +0.161 C 
ATOM     18  O   UNL     1      32.498  21.124  16.440  0.00  0.00    -0.373 OA
ATOM     19  C   UNL     1      33.471  21.985  15.781  0.00  0.00    +0.070 C 
ATOM     20  C   UNL     1      33.079  23.480  15.511  0.00  0.00    +0.035 C 
ATOM     21  C   UNL     1      33.612  23.830  16.900  0.00  0.00    +0.006 C 
ATOM     22  C   UNL     1      34.497  22.572  16.810  0.00  0.00    +0.035 C 
ATOM     23  C   UNL     1      34.107  21.289  14.571  0.00  0.00    +0.040 C 
ENDBRANCH  14  15
ENDBRANCH   3  14
TORSDOF 5
ENDMDL
MODEL 5
REMARK VINA RESULT:      -6.0      3.614      5.811
REMARK  Name = ZINC000560333501
REMARK  5 active torsions:
REMARK  status: ('A' for Active; 'I' for Inactive)
REMARK    1  A    between atoms: C_2  and  C_3
REMARK    2  A    between atoms: C_7  and  C_8
REMARK    3  A    between atoms: C_8  and  C_9
REMARK    4  A    between atoms: N_11  and  C_12
REMARK    5  A    between atoms: C_12  and  C_13
REMARK                            x       y       z     vdW  Elec       q    Type
REMARK                         _______ _______ _______ _____ _____    ______ ____
ROOT
ATOM      1  C   UNL     1      34.013  19.736  16.724  0.00  0.00    +0.217 C 
ATOM      2  O   UNL     1      33.638  19.027  15.787  0.00  0.00    -0.275 OA
ATOM      3  N   UNL     1      34.138  21.112  16.631  0.00  0.00    -0.315 N 
ATOM      4  H   UNL     1      34.157  21.615  17.510  0.00  0.00    +0.149 HD
ENDROOT
BRANCH   1   5
ATOM      5  C   UNL     1      34.372  19.128  18.060  0.00  0.00    +0.131 C 
BRANCH   5  10
ATOM      6  C   UNL     1      36.683  16.080  17.793  0.00  0.00    +0.052 A 
ATOM      7  C   UNL     1      37.940  16.688  17.896  0.00  0.00    +0.019 A 
ATOM      8  C   UNL     1      38.032  18.068  18.074  0.00  0.00    +0.002 A 
ATOM      9  C   UNL     1      36.874  18.843  18.155  0.00  0.00    +0.004 A 
ATOM     10  C   UNL     1      35.606  18.251  18.061  0.00  0.00    -0.037 A 
ATOM     11  C   UNL     1      35.522  16.862  17.871  0.00  0.00    +0.023 A 
BRANCH   6  13
ATOM     12  N   UNL     1      36.507  13.518  17.427  0.00  0.00    -0.191 NA
ATOM     13  C   UNL     1      36.590  14.664  17.591  0.00  0.00    +0.099 C 
ENDBRANCH   6  13
ENDBRANCH   5  10
ENDBRANCH   1   5
BRANCH   3  14
ATOM     14  C   UNL     1      33.505  21.782  15.510  0.00  0.00    +0.108 C 
BRANCH  14  15
ATOM     15  C   UNL     1      32.131  22.424  15.780  0.00  0.00    +0.011 C 
ATOM     16  C   UNL     1      30.962  21.457  15.614  0.00  0.00    +0.033 C 
ATOM     17  C   UNL     1      30.907  20.921  14.191  0.00  0.00    +0.161 C 
ATOM     18  O   UNL     1      30.998  21.935  13.193  0.00  0.00    -0.373 OA
ATOM     19  C   UNL     1      31.869  23.092  13.356  0.00  0.00    +0.070 C 
ATOM     20  C   UNL     1      33.295  23.047  12.705  0.00  0.00    +0.035 C 
ATOM     21  C   UNL     1      32.683  23.604  11.420  0.00  0.00    +0.006 C 
ATOM     22  C   UNL     1      31.553  24.192  12.286  0.00  0.00    +0.035 C 
ATOM     23  C   UNL     1      31.870  23.593  14.806  0.00  0.00    +0.040 C 
ENDBRANCH  14  15
ENDBRANCH   3  14
TORSDOF 5
ENDMDL
MODEL 6
REMARK VINA RESULT:      -6.0      3.091      5.500
REMARK  Name = ZINC000560333501
REMARK  5 active torsions:
REMARK  status: ('A' for Active; 'I' for Inactive)
REMARK    1  A    between atoms: C_2  and  C_3
REMARK    2  A    between atoms: C_7  and  C_8
REMARK    3  A    between atoms: C_8  and  C_9
REMARK    4  A    between atoms: N_11  and  C_12
REMARK    5  A    between atoms: C_12  and  C_13
REMARK                            x       y       z     vdW  Elec       q    Type
REMARK                         _______ _______ _______ _____ _____    ______ ____
ROOT
ATOM      1  C   UNL     1      34.301  19.017  13.464  0.00  0.00    +0.217 C 
ATOM      2  O   UNL     1      33.923  19.215  12.306  0.00  0.00    -0.275 OA
ATOM      3  N   UNL     1      34.514  20.036  14.376  0.00  0.00    -0.315 N 
ATOM      4  H   UNL     1      34.526  19.762  15.350  0.00  0.00    +0.149 HD
ENDROOT
BRANCH   1   5
ATOM      5  C   UNL     1      34.564  17.616  13.963  0.00  0.00    +0.131 C 
BRANCH   5  10
ATOM      6  C   UNL     1      33.504  14.818  11.565  0.00  0.00    +0.052 A 
ATOM      7  C   UNL     1      34.658  14.684  10.785  0.00  0.00    +0.019 A 
ATOM      8  C   UNL     1      35.773  15.477  11.052  0.00  0.00    +0.002 A 
ATOM      9  C   UNL     1      35.744  16.400  12.099  0.00  0.00    +0.004 A 
ATOM     10  C   UNL     1      34.599  16.543  12.896  0.00  0.00    -0.037 A 
ATOM     11  C   UNL     1      33.476  15.749  12.613  0.00  0.00    +0.023 A 
BRANCH   6  13
ATOM     12  N   UNL     1      31.422  13.363  11.040  0.00  0.00    -0.191 NA
ATOM     13  C   UNL     1      32.351  14.017  11.277  0.00  0.00    +0.099 C 
ENDBRANCH   6  13
ENDBRANCH   5  10
ENDBRANCH   1   5
BRANCH   3  14
ATOM     14  C   UNL     1      33.972  21.349  14.075  0.00  0.00    +0.108 C 
BRANCH  14  15
ATOM     15  C   UNL     1      32.881  21.876  15.025  0.00  0.00    +0.011 C 
ATOM     16  C   UNL     1      31.664  20.960  15.125  0.00  0.00    +0.033 C 
ATOM     17  C   UNL     1      31.000  20.799  13.766  0.00  0.00    +0.161 C 
ATOM     18  O   UNL     1      30.773  22.033  13.090  0.00  0.00    -0.373 OA
ATOM     19  C   UNL     1      31.732  23.128  13.153  0.00  0.00    +0.070 C 
ATOM     20  C   UNL     1      32.771  23.275  11.987  0.00  0.00    +0.035 C 
ATOM     21  C   UNL     1      31.748  24.127  11.235  0.00  0.00    +0.006 C 
ATOM     22  C   UNL     1      31.112  24.456  12.599  0.00  0.00    +0.035 C 
ATOM     23  C   UNL     1      32.355  23.247  14.550  0.00  0.00    +0.040 C 
ENDBRANCH  14  15
ENDBRANCH   3  14
TORSDOF 5
ENDMDL
MODEL 7
REMARK VINA RESULT:      -5.9      5.124      7.330
REMARK  Name = ZINC000560333501
REMARK  5 active torsions:
REMARK  status: ('A' for Active; 'I' for Inactive)
REMARK    1  A    between atoms: C_2  and  C_3
REMARK    2  A    between atoms: C_7  and  C_8
REMARK    3  A    between atoms: C_8  and  C_9
REMARK    4  A    between atoms: N_11  and  C_12
REMARK    5  A    between atoms: C_12  and  C_13
REMARK                            x       y       z     vdW  Elec       q    Type
REMARK                         _______ _______ _______ _____ _____    ______ ____
ROOT
ATOM      1  C   UNL     1      35.612  22.804  16.220  0.00  0.00    +0.217 C 
ATOM      2  O   UNL     1      35.434  21.904  17.045  0.00  0.00    -0.275 OA
ATOM      3  N   UNL     1      34.992  22.831  14.983  0.00  0.00    -0.315 N 
ATOM      4  H   UNL     1      34.966  23.731  14.520  0.00  0.00    +0.149 HD
ENDROOT
BRANCH   1   5
ATOM      5  C   UNL     1      36.545  23.954  16.517  0.00  0.00    +0.131 C 
BRANCH   5  10
ATOM      6  C   UNL     1      36.157  27.189  18.539  0.00  0.00    +0.052 A 
ATOM      7  C   UNL     1      34.771  27.221  18.728  0.00  0.00    +0.019 A 
ATOM      8  C   UNL     1      33.977  26.191  18.225  0.00  0.00    +0.002 A 
ATOM      9  C   UNL     1      34.562  25.126  17.538  0.00  0.00    +0.004 A 
ATOM     10  C   UNL     1      35.949  25.073  17.345  0.00  0.00    -0.037 A 
ATOM     11  C   UNL     1      36.741  26.120  17.845  0.00  0.00    +0.023 A 
BRANCH   6  13
ATOM     12  N   UNL     1      37.628  29.128  19.436  0.00  0.00    -0.191 NA
ATOM     13  C   UNL     1      36.970  28.259  19.039  0.00  0.00    +0.099 C 
ENDBRANCH   6  13
ENDBRANCH   5  10
ENDBRANCH   1   5
BRANCH   3  14
ATOM     14  C   UNL     1      33.854  21.955  14.768  0.00  0.00    +0.108 C 
BRANCH  14  15
ATOM     15  C   UNL     1      32.524  22.385  15.416  0.00  0.00    +0.011 C 
ATOM     16  C   UNL     1      31.458  21.293  15.403  0.00  0.00    +0.033 C 
ATOM     17  C   UNL     1      31.121  20.889  13.976  0.00  0.00    +0.161 C 
ATOM     18  O   UNL     1      30.865  21.994  13.113  0.00  0.00    -0.373 OA
ATOM     19  C   UNL     1      31.623  23.234  13.213  0.00  0.00    +0.070 C 
ATOM     20  C   UNL     1      32.850  23.435  12.256  0.00  0.00    +0.035 C 
ATOM     21  C   UNL     1      31.894  24.025  11.218  0.00  0.00    +0.006 C 
ATOM     22  C   UNL     1      30.948  24.378  12.382  0.00  0.00    +0.035 C 
ATOM     23  C   UNL     1      31.918  23.594  14.674  0.00  0.00    +0.040 C 
ENDBRANCH  14  15
ENDBRANCH   3  14
TORSDOF 5
ENDMDL
MODEL 8
REMARK VINA RESULT:      -5.9      2.206      6.913
REMARK  Name = ZINC000560333501
REMARK  5 active torsions:
REMARK  status: ('A' for Active; 'I' for Inactive)
REMARK    1  A    between atoms: C_2  and  C_3
REMARK    2  A    between atoms: C_7  and  C_8
REMARK    3  A    between atoms: C_8  and  C_9
REMARK    4  A    between atoms: N_11  and  C_12
REMARK    5  A    between atoms: C_12  and  C_13
REMARK                            x       y       z     vdW  Elec       q    Type
REMARK                         _______ _______ _______ _____ _____    ______ ____
ROOT
ATOM      1  C   UNL     1      32.907  22.515  11.898  0.00  0.00    +0.217 C 
ATOM      2  O   UNL     1      33.971  21.898  11.993  0.00  0.00    -0.275 OA
ATOM      3  N   UNL     1      31.748  22.131  12.550  0.00  0.00    -0.315 N 
ATOM      4  H   UNL     1      31.038  22.846  12.649  0.00  0.00    +0.149 HD
ENDROOT
BRANCH   1   5
ATOM      5  C   UNL     1      32.804  23.754  11.040  0.00  0.00    +0.131 C 
BRANCH   5  10
ATOM      6  C   UNL     1      35.155  23.541   8.018  0.00  0.00    +0.052 A 
ATOM      7  C   UNL     1      36.045  24.584   8.299  0.00  0.00    +0.019 A 
ATOM      8  C   UNL     1      35.896  25.329   9.468  0.00  0.00    +0.002 A 
ATOM      9  C   UNL     1      34.865  25.035  10.361  0.00  0.00    +0.004 A 
ATOM     10  C   UNL     1      33.967  23.989  10.100  0.00  0.00    -0.037 A 
ATOM     11  C   UNL     1      34.117  23.250   8.915  0.00  0.00    +0.023 A 
BRANCH   6  13
ATOM     12  N   UNL     1      35.418  22.184   5.823  0.00  0.00    -0.191 NA
ATOM     13  C   UNL     1      35.296  22.789   6.806  0.00  0.00    +0.099 C 
ENDBRANCH   6  13
ENDBRANCH   5  10
ENDBRANCH   1   5
BRANCH   3  14
ATOM     14  C   UNL     1      31.857  21.167  13.630  0.00  0.00    +0.108 C 
BRANCH  14  15
ATOM     15  C   UNL     1      31.435  21.653  15.030  0.00  0.00    +0.011 C 
ATOM     16  C   UNL     1      32.078  22.976  15.435  0.00  0.00    +0.033 C 
ATOM     17  C   UNL     1      33.593  22.849  15.471  0.00  0.00    +0.161 C 
ATOM     18  O   UNL     1      34.056  21.708  16.189  0.00  0.00    -0.373 OA
ATOM     19  C   UNL     1      33.356  20.431  16.128  0.00  0.00    +0.070 C 
ATOM     20  C   UNL     1      33.864  19.352  15.110  0.00  0.00    +0.035 C 
ATOM     21  C   UNL     1      34.829  18.849  16.183  0.00  0.00    +0.006 C 
ATOM     22  C   UNL     1      33.875  19.449  17.234  0.00  0.00    +0.035 C 
ATOM     23  C   UNL     1      31.835  20.626  16.110  0.00  0.00    +0.040 C 
ENDBRANCH  14  15
ENDBRANCH   3  14
TORSDOF 5
ENDMDL
MODEL 9
REMARK VINA RESULT:      -5.9      0.898      2.266
REMARK  Name = ZINC000560333501
REMARK  5 active torsions:
REMARK  status: ('A' for Active; 'I' for Inactive)
REMARK    1  A    between atoms: C_2  and  C_3
REMARK    2  A    between atoms: C_7  and  C_8
REMARK    3  A    between atoms: C_8  and  C_9
REMARK    4  A    between atoms: N_11  and  C_12
REMARK    5  A    between atoms: C_12  and  C_13
REMARK                            x       y       z     vdW  Elec       q    Type
REMARK                         _______ _______ _______ _____ _____    ______ ____
ROOT
ATOM      1  C   UNL     1      31.627  22.947  12.997  0.00  0.00    +0.217 C 
ATOM      2  O   UNL     1      31.926  23.909  13.710  0.00  0.00    -0.275 OA
ATOM      3  N   UNL     1      31.888  22.901  11.639  0.00  0.00    -0.315 N 
ATOM      4  H   UNL     1      31.883  21.980  11.218  0.00  0.00    +0.149 HD
ENDROOT
BRANCH   1   5
ATOM      5  C   UNL     1      30.940  21.735  13.580  0.00  0.00    +0.131 C 
BRANCH   5  10
ATOM      6  C   UNL     1      33.301  18.756  14.082  0.00  0.00    +0.052 A 
ATOM      7  C   UNL     1      33.696  18.949  15.411  0.00  0.00    +0.019 A 
ATOM      8  C   UNL     1      33.181  20.020  16.140  0.00  0.00    +0.002 A 
ATOM      9  C   UNL     1      32.269  20.897  15.549  0.00  0.00    +0.004 A 
ATOM     10  C   UNL     1      31.857  20.715  14.222  0.00  0.00    -0.037 A 
ATOM     11  C   UNL     1      32.389  19.640  13.490  0.00  0.00    +0.023 A 
BRANCH   6  13
ATOM     12  N   UNL     1      34.284  16.786  12.710  0.00  0.00    -0.191 NA
ATOM     13  C   UNL     1      33.846  17.666  13.328  0.00  0.00    +0.099 C 
ENDBRANCH   6  13
ENDBRANCH   5  10
ENDBRANCH   1   5
BRANCH   3  14
ATOM     14  C   UNL     1      32.824  23.865  11.088  0.00  0.00    +0.108 C 
BRANCH  14  15
ATOM     15  C   UNL     1      33.144  23.730   9.587  0.00  0.00    +0.011 C 
ATOM     16  C   UNL     1      33.773  22.391   9.215  0.00  0.00    +0.033 C 
ATOM     17  C   UNL     1      35.092  22.194   9.948  0.00  0.00    +0.161 C 
ATOM     18  O   UNL     1      35.967  23.317   9.865  0.00  0.00    -0.373 OA
ATOM     19  C   UNL     1      35.464  24.683   9.908  0.00  0.00    +0.070 C 
ATOM     20  C   UNL     1      35.471  25.435  11.284  0.00  0.00    +0.035 C 
ATOM     21  C   UNL     1      36.896  25.898  10.980  0.00  0.00    +0.006 C 
ATOM     22  C   UNL     1      36.572  25.707   9.486  0.00  0.00    +0.035 C 
ATOM     23  C   UNL     1      34.143  24.819   9.140  0.00  0.00    +0.040 C 
ENDBRANCH  14  15
ENDBRANCH   3  14
TORSDOF 5
ENDMDL
