MODEL 1
REMARK VINA RESULT:      -7.8      0.000      0.000
REMARK  Name = ZINC001228612316
REMARK  5 active torsions:
REMARK  status: ('A' for Active; 'I' for Inactive)
REMARK    1  A    between atoms: C_2  and  C_4
REMARK    2  A    between atoms: C_8  and  O_9
REMARK    3  A    between atoms: O_9  and  C_10
REMARK    4  A    between atoms: C_10  and  C_11
REMARK    5  A    between atoms: C_10  and  C_17
REMARK                            x       y       z     vdW  Elec       q    Type
REMARK                         _______ _______ _______ _____ _____    ______ ____
ROOT
ATOM      1  C   UNL     1      28.993  22.175  17.007  0.00  0.00    +0.040 A 
ATOM      2  C   UNL     1      27.640  22.245  17.359  0.00  0.00    +0.013 A 
ATOM      3  C   UNL     1      26.802  21.153  17.132  0.00  0.00    +0.004 A 
ATOM      4  C   UNL     1      27.306  19.986  16.554  0.00  0.00    +0.046 A 
ATOM      5  C   UNL     1      28.652  19.906  16.194  0.00  0.00    +0.122 A 
ATOM      6  C   UNL     1      29.492  21.003  16.426  0.00  0.00    +0.058 A 
ENDROOT
BRANCH   1   8
ATOM      7  N   UNL     1      30.539  23.901  16.234  0.00  0.00    -0.325 N 
ATOM      8  C   UNL     1      29.850  23.359  17.285  0.00  0.00    +0.242 C 
ATOM      9  O   UNL     1      29.914  23.860  18.401  0.00  0.00    -0.270 OA
ATOM     10  H   UNL     1      31.030  24.766  16.423  0.00  0.00    +0.145 HD
ATOM     11  H   UNL     1      30.334  23.679  15.273  0.00  0.00    +0.145 HD
ENDBRANCH   1   8
BRANCH   5  12
ATOM     12  O   UNL     1      29.245  18.850  15.558  0.00  0.00    -0.484 OA
BRANCH  12  13
ATOM     13  C   UNL     1      28.733  17.527  15.785  0.00  0.00    +0.208 C 
BRANCH  13  14
ATOM     14  C   UNL     1      28.913  16.602  14.597  0.00  0.00    +0.011 A 
ATOM     15  C   UNL     1      27.844  16.053  13.883  0.00  0.00    +0.010 A 
ATOM     16  C   UNL     1      28.096  15.283  12.749  0.00  0.00    +0.020 A 
ATOM     17  C   UNL     1      29.412  15.088  12.362  0.00  0.00    +0.111 A 
ATOM     18  N   UNL     1      30.470  15.592  13.028  0.00  0.00    -0.263 NA
ATOM     19  C   UNL     1      30.197  16.335  14.122  0.00  0.00    +0.118 A 
ENDBRANCH  13  14
BRANCH  13  20
ATOM     20  C   UNL     1      29.467  16.898  16.965  0.00  0.00    +0.034 C 
ATOM     21  C   UNL     1      28.727  16.029  17.953  0.00  0.00    +0.008 C 
ATOM     22  C   UNL     1      29.281  17.356  18.394  0.00  0.00    +0.008 C 
ENDBRANCH  13  20
ENDBRANCH  12  13
ENDBRANCH   5  12
TORSDOF 5
ENDMDL
MODEL 2
REMARK VINA RESULT:      -7.4      1.989      6.841
REMARK  Name = ZINC001228612316
REMARK  5 active torsions:
REMARK  status: ('A' for Active; 'I' for Inactive)
REMARK    1  A    between atoms: C_2  and  C_4
REMARK    2  A    between atoms: C_8  and  O_9
REMARK    3  A    between atoms: O_9  and  C_10
REMARK    4  A    between atoms: C_10  and  C_11
REMARK    5  A    between atoms: C_10  and  C_17
REMARK                            x       y       z     vdW  Elec       q    Type
REMARK                         _______ _______ _______ _____ _____    ______ ____
ROOT
ATOM      1  C   UNL     1      29.652  15.386  12.720  0.00  0.00    +0.040 A 
ATOM      2  C   UNL     1      31.040  15.370  12.896  0.00  0.00    +0.013 A 
ATOM      3  C   UNL     1      31.632  16.178  13.867  0.00  0.00    +0.004 A 
ATOM      4  C   UNL     1      30.843  17.006  14.670  0.00  0.00    +0.046 A 
ATOM      5  C   UNL     1      29.459  17.034  14.501  0.00  0.00    +0.122 A 
ATOM      6  C   UNL     1      28.867  16.220  13.527  0.00  0.00    +0.058 A 
ENDROOT
BRANCH   1   8
ATOM      7  N   UNL     1      28.782  13.205  12.047  0.00  0.00    -0.325 N 
ATOM      8  C   UNL     1      29.068  14.494  11.683  0.00  0.00    +0.242 C 
ATOM      9  O   UNL     1      28.812  14.897  10.555  0.00  0.00    -0.270 OA
ATOM     10  H   UNL     1      28.288  12.648  11.360  0.00  0.00    +0.145 HD
ATOM     11  H   UNL     1      28.749  12.903  13.008  0.00  0.00    +0.145 HD
ENDBRANCH   1   8
BRANCH   5  12
ATOM     12  O   UNL     1      28.591  17.852  15.172  0.00  0.00    -0.484 OA
BRANCH  12  13
ATOM     13  C   UNL     1      29.002  18.418  16.428  0.00  0.00    +0.208 C 
BRANCH  13  14
ATOM     14  C   UNL     1      28.566  19.859  16.608  0.00  0.00    +0.011 A 
ATOM     15  C   UNL     1      27.244  20.235  16.860  0.00  0.00    +0.010 A 
ATOM     16  C   UNL     1      26.943  21.574  17.101  0.00  0.00    +0.020 A 
ATOM     17  C   UNL     1      27.976  22.497  17.084  0.00  0.00    +0.111 A 
ATOM     18  N   UNL     1      29.262  22.176  16.835  0.00  0.00    -0.263 NA
ATOM     19  C   UNL     1      29.526  20.872  16.607  0.00  0.00    +0.118 A 
ENDBRANCH  13  14
BRANCH  13  20
ATOM     20  C   UNL     1      28.387  17.613  17.569  0.00  0.00    +0.034 C 
ATOM     21  C   UNL     1      29.167  17.364  18.838  0.00  0.00    +0.008 C 
ATOM     22  C   UNL     1      28.835  16.213  17.927  0.00  0.00    +0.008 C 
ENDBRANCH  13  20
ENDBRANCH  12  13
ENDBRANCH   5  12
TORSDOF 5
ENDMDL
MODEL 3
REMARK VINA RESULT:      -7.4      2.389      6.403
REMARK  Name = ZINC001228612316
REMARK  5 active torsions:
REMARK  status: ('A' for Active; 'I' for Inactive)
REMARK    1  A    between atoms: C_2  and  C_4
REMARK    2  A    between atoms: C_8  and  O_9
REMARK    3  A    between atoms: O_9  and  C_10
REMARK    4  A    between atoms: C_10  and  C_11
REMARK    5  A    between atoms: C_10  and  C_17
REMARK                            x       y       z     vdW  Elec       q    Type
REMARK                         _______ _______ _______ _____ _____    ______ ____
ROOT
ATOM      1  C   UNL     1      30.667  15.552  12.800  0.00  0.00    +0.040 A 
ATOM      2  C   UNL     1      29.984  14.872  11.785  0.00  0.00    +0.013 A 
ATOM      3  C   UNL     1      28.589  14.857  11.770  0.00  0.00    +0.004 A 
ATOM      4  C   UNL     1      27.867  15.520  12.766  0.00  0.00    +0.046 A 
ATOM      5  C   UNL     1      28.537  16.197  13.785  0.00  0.00    +0.122 A 
ATOM      6  C   UNL     1      29.938  16.212  13.797  0.00  0.00    +0.058 A 
ENDROOT
BRANCH   1   8
ATOM      7  N   UNL     1      32.803  14.515  13.374  0.00  0.00    -0.325 N 
ATOM      8  C   UNL     1      32.154  15.554  12.763  0.00  0.00    +0.242 C 
ATOM      9  O   UNL     1      32.783  16.427  12.177  0.00  0.00    -0.270 OA
ATOM     10  H   UNL     1      33.807  14.480  13.245  0.00  0.00    +0.145 HD
ATOM     11  H   UNL     1      32.336  13.666  13.652  0.00  0.00    +0.145 HD
ENDBRANCH   1   8
BRANCH   5  12
ATOM     12  O   UNL     1      27.945  16.818  14.851  0.00  0.00    -0.484 OA
BRANCH  12  13
ATOM     13  C   UNL     1      28.762  17.601  15.737  0.00  0.00    +0.208 C 
BRANCH  13  14
ATOM     14  C   UNL     1      28.119  18.914  16.143  0.00  0.00    +0.011 A 
ATOM     15  C   UNL     1      26.811  19.011  16.624  0.00  0.00    +0.010 A 
ATOM     16  C   UNL     1      26.326  20.243  17.058  0.00  0.00    +0.020 A 
ATOM     17  C   UNL     1      27.169  21.342  17.000  0.00  0.00    +0.111 A 
ATOM     18  N   UNL     1      28.433  21.292  16.534  0.00  0.00    -0.263 NA
ATOM     19  C   UNL     1      28.877  20.085  16.121  0.00  0.00    +0.118 A 
ENDBRANCH  13  14
BRANCH  13  20
ATOM     20  C   UNL     1      29.021  16.810  17.015  0.00  0.00    +0.034 C 
ATOM     21  C   UNL     1      29.496  17.509  18.267  0.00  0.00    +0.008 C 
ATOM     22  C   UNL     1      30.408  16.546  17.557  0.00  0.00    +0.008 C 
ENDBRANCH  13  20
ENDBRANCH  12  13
ENDBRANCH   5  12
TORSDOF 5
ENDMDL
MODEL 4
REMARK VINA RESULT:      -7.2      1.489      2.144
REMARK  Name = ZINC001228612316
REMARK  5 active torsions:
REMARK  status: ('A' for Active; 'I' for Inactive)
REMARK    1  A    between atoms: C_2  and  C_4
REMARK    2  A    between atoms: C_8  and  O_9
REMARK    3  A    between atoms: O_9  and  C_10
REMARK    4  A    between atoms: C_10  and  C_11
REMARK    5  A    between atoms: C_10  and  C_17
REMARK                            x       y       z     vdW  Elec       q    Type
REMARK                         _______ _______ _______ _____ _____    ______ ____
ROOT
ATOM      1  C   UNL     1      28.954  21.604  16.557  0.00  0.00    +0.040 A 
ATOM      2  C   UNL     1      29.971  22.556  16.427  0.00  0.00    +0.013 A 
ATOM      3  C   UNL     1      31.224  22.179  15.943  0.00  0.00    +0.004 A 
ATOM      4  C   UNL     1      31.471  20.851  15.586  0.00  0.00    +0.046 A 
ATOM      5  C   UNL     1      30.466  19.892  15.715  0.00  0.00    +0.122 A 
ATOM      6  C   UNL     1      29.208  20.274  16.198  0.00  0.00    +0.058 A 
ENDROOT
BRANCH   1   8
ATOM      7  N   UNL     1      27.467  23.398  17.288  0.00  0.00    -0.325 N 
ATOM      8  C   UNL     1      27.630  22.058  17.060  0.00  0.00    +0.242 C 
ATOM      9  O   UNL     1      26.702  21.277  17.231  0.00  0.00    -0.270 OA
ATOM     10  H   UNL     1      26.530  23.698  17.528  0.00  0.00    +0.145 HD
ATOM     11  H   UNL     1      28.108  24.094  16.940  0.00  0.00    +0.145 HD
ENDBRANCH   1   8
BRANCH   5  12
ATOM     12  O   UNL     1      30.606  18.553  15.468  0.00  0.00    -0.484 OA
BRANCH  12  13
ATOM     13  C   UNL     1      29.501  17.678  15.745  0.00  0.00    +0.208 C 
BRANCH  13  14
ATOM     14  C   UNL     1      29.224  16.690  14.629  0.00  0.00    +0.011 A 
ATOM     15  C   UNL     1      27.936  16.333  14.221  0.00  0.00    +0.010 A 
ATOM     16  C   UNL     1      27.769  15.485  13.128  0.00  0.00    +0.020 A 
ATOM     17  C   UNL     1      28.898  15.021  12.474  0.00  0.00    +0.111 A 
ATOM     18  N   UNL     1      30.157  15.333  12.841  0.00  0.00    -0.263 NA
ATOM     19  C   UNL     1      30.290  16.158  13.902  0.00  0.00    +0.118 A 
ENDBRANCH  13  14
BRANCH  13  20
ATOM     20  C   UNL     1      29.800  16.869  17.002  0.00  0.00    +0.034 C 
ATOM     21  C   UNL     1      28.680  16.235  17.792  0.00  0.00    +0.008 C 
ATOM     22  C   UNL     1      29.476  17.359  18.396  0.00  0.00    +0.008 C 
ENDBRANCH  13  20
ENDBRANCH  12  13
ENDBRANCH   5  12
TORSDOF 5
ENDMDL
MODEL 5
REMARK VINA RESULT:      -7.1      2.401      6.700
REMARK  Name = ZINC001228612316
REMARK  5 active torsions:
REMARK  status: ('A' for Active; 'I' for Inactive)
REMARK    1  A    between atoms: C_2  and  C_4
REMARK    2  A    between atoms: C_8  and  O_9
REMARK    3  A    between atoms: O_9  and  C_10
REMARK    4  A    between atoms: C_10  and  C_11
REMARK    5  A    between atoms: C_10  and  C_17
REMARK                            x       y       z     vdW  Elec       q    Type
REMARK                         _______ _______ _______ _____ _____    ______ ____
ROOT
ATOM      1  C   UNL     1      29.847  15.252  12.606  0.00  0.00    +0.040 A 
ATOM      2  C   UNL     1      28.516  15.038  12.229  0.00  0.00    +0.013 A 
ATOM      3  C   UNL     1      27.478  15.544  13.012  0.00  0.00    +0.004 A 
ATOM      4  C   UNL     1      27.760  16.267  14.174  0.00  0.00    +0.046 A 
ATOM      5  C   UNL     1      29.083  16.483  14.562  0.00  0.00    +0.122 A 
ATOM      6  C   UNL     1      30.123  15.975  13.773  0.00  0.00    +0.058 A 
ENDROOT
BRANCH   1   8
ATOM      7  N   UNL     1      31.092  13.349  11.713  0.00  0.00    -0.325 N 
ATOM      8  C   UNL     1      30.918  14.707  11.729  0.00  0.00    +0.242 C 
ATOM      9  O   UNL     1      31.599  15.434  11.016  0.00  0.00    -0.270 OA
ATOM     10  H   UNL     1      31.752  12.993  11.033  0.00  0.00    +0.145 HD
ATOM     11  H   UNL     1      30.412  12.706  12.089  0.00  0.00    +0.145 HD
ENDBRANCH   1   8
BRANCH   5  12
ATOM     12  O   UNL     1      29.484  17.109  15.711  0.00  0.00    -0.484 OA
BRANCH  12  13
ATOM     13  C   UNL     1      29.872  18.491  15.647  0.00  0.00    +0.208 C 
BRANCH  13  14
ATOM     14  C   UNL     1      28.781  19.442  16.097  0.00  0.00    +0.011 A 
ATOM     15  C   UNL     1      27.493  19.024  16.443  0.00  0.00    +0.010 A 
ATOM     16  C   UNL     1      26.575  19.951  16.931  0.00  0.00    +0.020 A 
ATOM     17  C   UNL     1      26.975  21.271  17.062  0.00  0.00    +0.111 A 
ATOM     18  N   UNL     1      28.204  21.717  16.731  0.00  0.00    -0.263 NA
ATOM     19  C   UNL     1      29.074  20.796  16.262  0.00  0.00    +0.118 A 
ENDBRANCH  13  14
BRANCH  13  20
ATOM     20  C   UNL     1      31.075  18.719  16.556  0.00  0.00    +0.034 C 
ATOM     21  C   UNL     1      32.378  19.230  15.991  0.00  0.00    +0.008 C 
ATOM     22  C   UNL     1      32.301  17.833  16.543  0.00  0.00    +0.008 C 
ENDBRANCH  13  20
ENDBRANCH  12  13
ENDBRANCH   5  12
TORSDOF 5
ENDMDL
MODEL 6
REMARK VINA RESULT:      -7.0      2.398      6.909
REMARK  Name = ZINC001228612316
REMARK  5 active torsions:
REMARK  status: ('A' for Active; 'I' for Inactive)
REMARK    1  A    between atoms: C_2  and  C_4
REMARK    2  A    between atoms: C_8  and  O_9
REMARK    3  A    between atoms: O_9  and  C_10
REMARK    4  A    between atoms: C_10  and  C_11
REMARK    5  A    between atoms: C_10  and  C_17
REMARK                            x       y       z     vdW  Elec       q    Type
REMARK                         _______ _______ _______ _____ _____    ______ ____
ROOT
ATOM      1  C   UNL     1      29.595  15.331  12.988  0.00  0.00    +0.040 A 
ATOM      2  C   UNL     1      28.212  15.132  13.066  0.00  0.00    +0.013 A 
ATOM      3  C   UNL     1      27.461  15.808  14.029  0.00  0.00    +0.004 A 
ATOM      4  C   UNL     1      28.085  16.685  14.919  0.00  0.00    +0.046 A 
ATOM      5  C   UNL     1      29.464  16.888  14.855  0.00  0.00    +0.122 A 
ATOM      6  C   UNL     1      30.214  16.210  13.885  0.00  0.00    +0.058 A 
ENDROOT
BRANCH   1   8
ATOM      7  N   UNL     1      30.381  13.235  12.011  0.00  0.00    -0.325 N 
ATOM      8  C   UNL     1      30.348  14.601  11.933  0.00  0.00    +0.242 C 
ATOM      9  O   UNL     1      30.889  15.189  11.004  0.00  0.00    -0.270 OA
ATOM     10  H   UNL     1      30.807  12.755  11.227  0.00  0.00    +0.145 HD
ATOM     11  H   UNL     1      29.762  12.706  12.605  0.00  0.00    +0.145 HD
ENDBRANCH   1   8
BRANCH   5  12
ATOM     12  O   UNL     1      30.197  17.662  15.713  0.00  0.00    -0.484 OA
BRANCH  12  13
ATOM     13  C   UNL     1      30.457  19.031  15.361  0.00  0.00    +0.208 C 
BRANCH  13  14
ATOM     14  C   UNL     1      29.721  20.026  16.237  0.00  0.00    +0.011 A 
ATOM     15  C   UNL     1      28.806  20.957  15.739  0.00  0.00    +0.010 A 
ATOM     16  C   UNL     1      28.106  21.776  16.622  0.00  0.00    +0.020 A 
ATOM     17  C   UNL     1      28.342  21.637  17.980  0.00  0.00    +0.111 A 
ATOM     18  N   UNL     1      29.223  20.758  18.500  0.00  0.00    -0.263 NA
ATOM     19  C   UNL     1      29.886  19.975  17.621  0.00  0.00    +0.118 A 
ENDBRANCH  13  14
BRANCH  13  20
ATOM     20  C   UNL     1      31.949  19.314  15.509  0.00  0.00    +0.034 C 
ATOM     21  C   UNL     1      32.534  20.615  15.016  0.00  0.00    +0.008 C 
ATOM     22  C   UNL     1      32.907  19.325  14.339  0.00  0.00    +0.008 C 
ENDBRANCH  13  20
ENDBRANCH  12  13
ENDBRANCH   5  12
TORSDOF 5
ENDMDL
MODEL 7
REMARK VINA RESULT:      -6.6      1.536      1.765
REMARK  Name = ZINC001228612316
REMARK  5 active torsions:
REMARK  status: ('A' for Active; 'I' for Inactive)
REMARK    1  A    between atoms: C_2  and  C_4
REMARK    2  A    between atoms: C_8  and  O_9
REMARK    3  A    between atoms: O_9  and  C_10
REMARK    4  A    between atoms: C_10  and  C_11
REMARK    5  A    between atoms: C_10  and  C_17
REMARK                            x       y       z     vdW  Elec       q    Type
REMARK                         _______ _______ _______ _____ _____    ______ ____
ROOT
ATOM      1  C   UNL     1      29.510  22.060  17.464  0.00  0.00    +0.040 A 
ATOM      2  C   UNL     1      28.125  22.045  17.662  0.00  0.00    +0.013 A 
ATOM      3  C   UNL     1      27.342  21.068  17.046  0.00  0.00    +0.004 A 
ATOM      4  C   UNL     1      27.935  20.101  16.230  0.00  0.00    +0.046 A 
ATOM      5  C   UNL     1      29.315  20.109  16.022  0.00  0.00    +0.122 A 
ATOM      6  C   UNL     1      30.099  21.090  16.644  0.00  0.00    +0.058 A 
ENDROOT
BRANCH   1   8
ATOM      7  N   UNL     1      29.614  24.108  18.793  0.00  0.00    -0.325 N 
ATOM      8  C   UNL     1      30.304  23.111  18.157  0.00  0.00    +0.242 C 
ATOM      9  O   UNL     1      31.528  23.074  18.195  0.00  0.00    -0.270 OA
ATOM     10  H   UNL     1      30.168  24.750  19.345  0.00  0.00    +0.145 HD
ATOM     11  H   UNL     1      28.627  24.049  18.991  0.00  0.00    +0.145 HD
ENDBRANCH   1   8
BRANCH   5  12
ATOM     12  O   UNL     1      30.000  19.264  15.192  0.00  0.00    -0.484 OA
BRANCH  12  13
ATOM     13  C   UNL     1      30.235  17.913  15.619  0.00  0.00    +0.208 C 
BRANCH  13  14
ATOM     14  C   UNL     1      29.556  16.880  14.740  0.00  0.00    +0.011 A 
ATOM     15  C   UNL     1      28.178  16.648  14.752  0.00  0.00    +0.010 A 
ATOM     16  C   UNL     1      27.623  15.743  13.849  0.00  0.00    +0.020 A 
ATOM     17  C   UNL     1      28.466  15.098  12.959  0.00  0.00    +0.111 A 
ATOM     18  N   UNL     1      29.801  15.286  12.922  0.00  0.00    -0.263 NA
ATOM     19  C   UNL     1      30.312  16.170  13.806  0.00  0.00    +0.118 A 
ENDBRANCH  13  14
BRANCH  13  20
ATOM     20  C   UNL     1      31.732  17.625  15.583  0.00  0.00    +0.034 C 
ATOM     21  C   UNL     1      32.383  16.808  16.673  0.00  0.00    +0.008 C 
ATOM     22  C   UNL     1      32.720  18.267  16.532  0.00  0.00    +0.008 C 
ENDBRANCH  13  20
ENDBRANCH  12  13
ENDBRANCH   5  12
TORSDOF 5
ENDMDL
MODEL 8
REMARK VINA RESULT:      -6.5      1.750      3.020
REMARK  Name = ZINC001228612316
REMARK  5 active torsions:
REMARK  status: ('A' for Active; 'I' for Inactive)
REMARK    1  A    between atoms: C_2  and  C_4
REMARK    2  A    between atoms: C_8  and  O_9
REMARK    3  A    between atoms: O_9  and  C_10
REMARK    4  A    between atoms: C_10  and  C_11
REMARK    5  A    between atoms: C_10  and  C_17
REMARK                            x       y       z     vdW  Elec       q    Type
REMARK                         _______ _______ _______ _____ _____    ______ ____
ROOT
ATOM      1  C   UNL     1      28.479  20.946  16.522  0.00  0.00    +0.040 A 
ATOM      2  C   UNL     1      27.101  20.965  16.762  0.00  0.00    +0.013 A 
ATOM      3  C   UNL     1      26.381  19.770  16.798  0.00  0.00    +0.004 A 
ATOM      4  C   UNL     1      27.031  18.550  16.597  0.00  0.00    +0.046 A 
ATOM      5  C   UNL     1      28.404  18.518  16.353  0.00  0.00    +0.122 A 
ATOM      6  C   UNL     1      29.125  19.720  16.319  0.00  0.00    +0.058 A 
ENDROOT
BRANCH   1   8
ATOM      7  N   UNL     1      28.633  23.295  17.175  0.00  0.00    -0.325 N 
ATOM      8  C   UNL     1      29.205  22.244  16.510  0.00  0.00    +0.242 C 
ATOM      9  O   UNL     1      30.293  22.369  15.961  0.00  0.00    -0.270 OA
ATOM     10  H   UNL     1      29.192  24.135  17.244  0.00  0.00    +0.145 HD
ATOM     11  H   UNL     1      27.876  23.179  17.831  0.00  0.00    +0.145 HD
ENDBRANCH   1   8
BRANCH   5  12
ATOM     12  O   UNL     1      29.138  17.399  16.070  0.00  0.00    -0.484 OA
BRANCH  12  13
ATOM     13  C   UNL     1      29.513  17.142  14.707  0.00  0.00    +0.208 C 
BRANCH  13  14
ATOM     14  C   UNL     1      30.997  16.884  14.532  0.00  0.00    +0.011 A 
ATOM     15  C   UNL     1      31.921  16.979  15.576  0.00  0.00    +0.010 A 
ATOM     16  C   UNL     1      33.253  16.640  15.350  0.00  0.00    +0.020 A 
ATOM     17  C   UNL     1      33.620  16.212  14.085  0.00  0.00    +0.111 A 
ATOM     18  N   UNL     1      32.763  16.116  13.049  0.00  0.00    -0.263 NA
ATOM     19  C   UNL     1      31.477  16.450  13.296  0.00  0.00    +0.118 A 
ENDBRANCH  13  14
BRANCH  13  20
ATOM     20  C   UNL     1      28.776  15.905  14.205  0.00  0.00    +0.034 C 
ATOM     21  C   UNL     1      28.117  15.903  12.846  0.00  0.00    +0.008 C 
ATOM     22  C   UNL     1      27.270  15.831  14.087  0.00  0.00    +0.008 C 
ENDBRANCH  13  20
ENDBRANCH  12  13
ENDBRANCH   5  12
TORSDOF 5
ENDMDL
MODEL 9
REMARK VINA RESULT:      -6.5      2.252      3.944
REMARK  Name = ZINC001228612316
REMARK  5 active torsions:
REMARK  status: ('A' for Active; 'I' for Inactive)
REMARK    1  A    between atoms: C_2  and  C_4
REMARK    2  A    between atoms: C_8  and  O_9
REMARK    3  A    between atoms: O_9  and  C_10
REMARK    4  A    between atoms: C_10  and  C_11
REMARK    5  A    between atoms: C_10  and  C_17
REMARK                            x       y       z     vdW  Elec       q    Type
REMARK                         _______ _______ _______ _____ _____    ______ ____
ROOT
ATOM      1  C   UNL     1      28.910  19.866  15.359  0.00  0.00    +0.040 A 
ATOM      2  C   UNL     1      27.792  19.664  16.176  0.00  0.00    +0.013 A 
ATOM      3  C   UNL     1      27.474  18.381  16.622  0.00  0.00    +0.004 A 
ATOM      4  C   UNL     1      28.270  17.292  16.258  0.00  0.00    +0.046 A 
ATOM      5  C   UNL     1      29.385  17.480  15.440  0.00  0.00    +0.122 A 
ATOM      6  C   UNL     1      29.702  18.770  14.996  0.00  0.00    +0.058 A 
ENDROOT
BRANCH   1   8
ATOM      7  N   UNL     1      29.200  22.235  15.880  0.00  0.00    -0.325 N 
ATOM      8  C   UNL     1      29.216  21.255  14.924  0.00  0.00    +0.242 C 
ATOM      9  O   UNL     1      29.511  21.517  13.764  0.00  0.00    -0.270 OA
ATOM     10  H   UNL     1      29.514  23.151  15.584  0.00  0.00    +0.145 HD
ATOM     11  H   UNL     1      29.202  22.035  16.868  0.00  0.00    +0.145 HD
ENDBRANCH   1   8
BRANCH   5  12
ATOM     12  O   UNL     1      30.196  16.489  14.958  0.00  0.00    -0.484 OA
BRANCH  12  13
ATOM     13  C   UNL     1      30.301  16.311  13.536  0.00  0.00    +0.208 C 
BRANCH  13  14
ATOM     14  C   UNL     1      31.704  15.963  13.077  0.00  0.00    +0.011 A 
ATOM     15  C   UNL     1      32.649  15.344  13.900  0.00  0.00    +0.010 A 
ATOM     16  C   UNL     1      33.886  14.978  13.374  0.00  0.00    +0.020 A 
ATOM     17  C   UNL     1      34.139  15.241  12.038  0.00  0.00    +0.111 A 
ATOM     18  N   UNL     1      33.259  15.844  11.214  0.00  0.00    -0.263 NA
ATOM     19  C   UNL     1      32.067  16.187  11.749  0.00  0.00    +0.118 A 
ENDBRANCH  13  14
BRANCH  13  20
ATOM     20  C   UNL     1      29.386  15.170  13.102  0.00  0.00    +0.034 C 
ATOM     21  C   UNL     1      28.884  15.088  11.680  0.00  0.00    +0.008 C 
ATOM     22  C   UNL     1      27.916  15.358  12.799  0.00  0.00    +0.008 C 
ENDBRANCH  13  20
ENDBRANCH  12  13
ENDBRANCH   5  12
TORSDOF 5
ENDMDL
