MODEL 1
REMARK VINA RESULT:      -6.8      0.000      0.000
REMARK  Name = ZINC001228612316
REMARK  5 active torsions:
REMARK  status: ('A' for Active; 'I' for Inactive)
REMARK    1  A    between atoms: C_2  and  C_4
REMARK    2  A    between atoms: C_8  and  O_9
REMARK    3  A    between atoms: O_9  and  C_10
REMARK    4  A    between atoms: C_10  and  C_11
REMARK    5  A    between atoms: C_10  and  C_17
REMARK                            x       y       z     vdW  Elec       q    Type
REMARK                         _______ _______ _______ _____ _____    ______ ____
ROOT
ATOM      1  C   UNL     1      28.618  22.297  17.760  0.00  0.00    +0.040 A 
ATOM      2  C   UNL     1      29.053  23.069  18.844  0.00  0.00    +0.013 A 
ATOM      3  C   UNL     1      30.402  23.403  18.968  0.00  0.00    +0.004 A 
ATOM      4  C   UNL     1      31.325  22.970  18.012  0.00  0.00    +0.046 A 
ATOM      5  C   UNL     1      30.904  22.197  16.930  0.00  0.00    +0.122 A 
ATOM      6  C   UNL     1      29.549  21.865  16.807  0.00  0.00    +0.058 A 
ENDROOT
BRANCH   1   8
ATOM      7  N   UNL     1      26.384  22.273  18.747  0.00  0.00    -0.325 N 
ATOM      8  C   UNL     1      27.168  21.982  17.663  0.00  0.00    +0.242 C 
ATOM      9  O   UNL     1      26.676  21.515  16.643  0.00  0.00    -0.270 OA
ATOM     10  H   UNL     1      25.387  22.150  18.621  0.00  0.00    +0.145 HD
ATOM     11  H   UNL     1      26.692  22.868  19.501  0.00  0.00    +0.145 HD
ENDBRANCH   1   8
BRANCH   5  12
ATOM     12  O   UNL     1      31.719  21.655  15.973  0.00  0.00    -0.484 OA
BRANCH  12  13
ATOM     13  C   UNL     1      31.136  21.211  14.737  0.00  0.00    +0.208 C 
BRANCH  13  14
ATOM     14  C   UNL     1      31.460  22.114  13.563  0.00  0.00    +0.011 A 
ATOM     15  C   UNL     1      30.637  23.167  13.155  0.00  0.00    +0.010 A 
ATOM     16  C   UNL     1      31.050  24.005  12.121  0.00  0.00    +0.020 A 
ATOM     17  C   UNL     1      32.279  23.763  11.527  0.00  0.00    +0.111 A 
ATOM     18  N   UNL     1      33.097  22.753  11.885  0.00  0.00    -0.263 NA
ATOM     19  C   UNL     1      32.672  21.958  12.890  0.00  0.00    +0.118 A 
ENDBRANCH  13  14
BRANCH  13  20
ATOM     20  C   UNL     1      31.666  19.821  14.400  0.00  0.00    +0.034 C 
ATOM     21  C   UNL     1      30.819  18.846  13.619  0.00  0.00    +0.008 C 
ATOM     22  C   UNL     1      31.153  18.559  15.057  0.00  0.00    +0.008 C 
ENDBRANCH  13  20
ENDBRANCH  12  13
ENDBRANCH   5  12
TORSDOF 5
ENDMDL
MODEL 2
REMARK VINA RESULT:      -6.6      2.163      3.806
REMARK  Name = ZINC001228612316
REMARK  5 active torsions:
REMARK  status: ('A' for Active; 'I' for Inactive)
REMARK    1  A    between atoms: C_2  and  C_4
REMARK    2  A    between atoms: C_8  and  O_9
REMARK    3  A    between atoms: O_9  and  C_10
REMARK    4  A    between atoms: C_10  and  C_11
REMARK    5  A    between atoms: C_10  and  C_17
REMARK                            x       y       z     vdW  Elec       q    Type
REMARK                         _______ _______ _______ _____ _____    ______ ____
ROOT
ATOM      1  C   UNL     1      28.030  22.060  17.381  0.00  0.00    +0.040 A 
ATOM      2  C   UNL     1      28.845  22.699  18.322  0.00  0.00    +0.013 A 
ATOM      3  C   UNL     1      30.217  22.813  18.096  0.00  0.00    +0.004 A 
ATOM      4  C   UNL     1      30.785  22.291  16.931  0.00  0.00    +0.046 A 
ATOM      5  C   UNL     1      29.983  21.648  15.987  0.00  0.00    +0.122 A 
ATOM      6  C   UNL     1      28.606  21.537  16.215  0.00  0.00    +0.058 A 
ENDROOT
BRANCH   1   8
ATOM      7  N   UNL     1      26.148  22.314  18.917  0.00  0.00    -0.325 N 
ATOM      8  C   UNL     1      26.571  21.979  17.659  0.00  0.00    +0.242 C 
ATOM      9  O   UNL     1      25.766  21.663  16.791  0.00  0.00    -0.270 OA
ATOM     10  H   UNL     1      25.146  22.354  19.053  0.00  0.00    +0.145 HD
ATOM     11  H   UNL     1      26.732  22.802  19.578  0.00  0.00    +0.145 HD
ENDBRANCH   1   8
BRANCH   5  12
ATOM     12  O   UNL     1      30.429  21.036  14.847  0.00  0.00    -0.484 OA
BRANCH  12  13
ATOM     13  C   UNL     1      31.759  20.491  14.829  0.00  0.00    +0.208 C 
BRANCH  13  14
ATOM     14  C   UNL     1      31.794  18.990  15.045  0.00  0.00    +0.011 A 
ATOM     15  C   UNL     1      31.142  18.079  14.210  0.00  0.00    +0.010 A 
ATOM     16  C   UNL     1      31.298  16.711  14.427  0.00  0.00    +0.020 A 
ATOM     17  C   UNL     1      32.106  16.297  15.473  0.00  0.00    +0.111 A 
ATOM     18  N   UNL     1      32.744  17.143  16.307  0.00  0.00    -0.263 NA
ATOM     19  C   UNL     1      32.576  18.463  16.072  0.00  0.00    +0.118 A 
ENDBRANCH  13  14
BRANCH  13  20
ATOM     20  C   UNL     1      32.398  20.768  13.472  0.00  0.00    +0.034 C 
ATOM     21  C   UNL     1      33.872  20.519  13.254  0.00  0.00    +0.008 C 
ATOM     22  C   UNL     1      33.340  21.926  13.224  0.00  0.00    +0.008 C 
ENDBRANCH  13  20
ENDBRANCH  12  13
ENDBRANCH   5  12
TORSDOF 5
ENDMDL
MODEL 3
REMARK VINA RESULT:      -6.5      2.995      5.684
REMARK  Name = ZINC001228612316
REMARK  5 active torsions:
REMARK  status: ('A' for Active; 'I' for Inactive)
REMARK    1  A    between atoms: C_2  and  C_4
REMARK    2  A    between atoms: C_8  and  O_9
REMARK    3  A    between atoms: O_9  and  C_10
REMARK    4  A    between atoms: C_10  and  C_11
REMARK    5  A    between atoms: C_10  and  C_17
REMARK                            x       y       z     vdW  Elec       q    Type
REMARK                         _______ _______ _______ _____ _____    ______ ____
ROOT
ATOM      1  C   UNL     1      28.467  21.820  16.981  0.00  0.00    +0.040 A 
ATOM      2  C   UNL     1      28.713  21.188  15.757  0.00  0.00    +0.013 A 
ATOM      3  C   UNL     1      30.009  21.139  15.243  0.00  0.00    +0.004 A 
ATOM      4  C   UNL     1      31.067  21.719  15.947  0.00  0.00    +0.046 A 
ATOM      5  C   UNL     1      30.834  22.356  17.166  0.00  0.00    +0.122 A 
ATOM      6  C   UNL     1      29.532  22.401  17.680  0.00  0.00    +0.058 A 
ENDROOT
BRANCH   1   8
ATOM      7  N   UNL     1      26.883  22.173  18.807  0.00  0.00    -0.325 N 
ATOM      8  C   UNL     1      27.071  21.830  17.495  0.00  0.00    +0.242 C 
ATOM      9  O   UNL     1      26.115  21.580  16.770  0.00  0.00    -0.270 OA
ATOM     10  H   UNL     1      25.921  22.276  19.106  0.00  0.00    +0.145 HD
ATOM     11  H   UNL     1      27.598  22.612  19.365  0.00  0.00    +0.145 HD
ENDBRANCH   1   8
BRANCH   5  12
ATOM     12  O   UNL     1      31.771  23.021  17.910  0.00  0.00    -0.484 OA
BRANCH  12  13
ATOM     13  C   UNL     1      32.071  22.545  19.232  0.00  0.00    +0.208 C 
BRANCH  13  14
ATOM     14  C   UNL     1      33.545  22.267  19.449  0.00  0.00    +0.011 A 
ATOM     15  C   UNL     1      34.034  21.052  19.936  0.00  0.00    +0.010 A 
ATOM     16  C   UNL     1      35.409  20.846  20.023  0.00  0.00    +0.020 A 
ATOM     17  C   UNL     1      36.256  21.865  19.616  0.00  0.00    +0.111 A 
ATOM     18  N   UNL     1      35.825  23.055  19.150  0.00  0.00    -0.263 NA
ATOM     19  C   UNL     1      34.487  23.226  19.075  0.00  0.00    +0.118 A 
ENDBRANCH  13  14
BRANCH  13  20
ATOM     20  C   UNL     1      31.653  23.597  20.254  0.00  0.00    +0.034 C 
ATOM     21  C   UNL     1      31.711  23.297  21.732  0.00  0.00    +0.008 C 
ATOM     22  C   UNL     1      30.379  23.502  21.064  0.00  0.00    +0.008 C 
ENDBRANCH  13  20
ENDBRANCH  12  13
ENDBRANCH   5  12
TORSDOF 5
ENDMDL
MODEL 4
REMARK VINA RESULT:      -6.4      2.151      4.074
REMARK  Name = ZINC001228612316
REMARK  5 active torsions:
REMARK  status: ('A' for Active; 'I' for Inactive)
REMARK    1  A    between atoms: C_2  and  C_4
REMARK    2  A    between atoms: C_8  and  O_9
REMARK    3  A    between atoms: O_9  and  C_10
REMARK    4  A    between atoms: C_10  and  C_11
REMARK    5  A    between atoms: C_10  and  C_17
REMARK                            x       y       z     vdW  Elec       q    Type
REMARK                         _______ _______ _______ _____ _____    ______ ____
ROOT
ATOM      1  C   UNL     1      29.348  22.961  18.891  0.00  0.00    +0.040 A 
ATOM      2  C   UNL     1      28.074  22.747  19.428  0.00  0.00    +0.013 A 
ATOM      3  C   UNL     1      27.084  22.137  18.657  0.00  0.00    +0.004 A 
ATOM      4  C   UNL     1      27.358  21.736  17.347  0.00  0.00    +0.046 A 
ATOM      5  C   UNL     1      28.624  21.948  16.799  0.00  0.00    +0.122 A 
ATOM      6  C   UNL     1      29.616  22.559  17.576  0.00  0.00    +0.058 A 
ENDROOT
BRANCH   1   8
ATOM      7  N   UNL     1      30.167  23.568  21.111  0.00  0.00    -0.325 N 
ATOM      8  C   UNL     1      30.375  23.599  19.758  0.00  0.00    +0.242 C 
ATOM      9  O   UNL     1      31.390  24.102  19.292  0.00  0.00    -0.270 OA
ATOM     10  H   UNL     1      30.926  23.912  21.685  0.00  0.00    +0.145 HD
ATOM     11  H   UNL     1      29.484  22.967  21.545  0.00  0.00    +0.145 HD
ENDBRANCH   1   8
BRANCH   5  12
ATOM     12  O   UNL     1      28.991  21.668  15.511  0.00  0.00    -0.484 OA
BRANCH  12  13
ATOM     13  C   UNL     1      30.387  21.687  15.169  0.00  0.00    +0.208 C 
BRANCH  13  14
ATOM     14  C   UNL     1      31.024  20.311  15.171  0.00  0.00    +0.011 A 
ATOM     15  C   UNL     1      30.599  19.268  14.343  0.00  0.00    +0.010 A 
ATOM     16  C   UNL     1      31.295  18.061  14.343  0.00  0.00    +0.020 A 
ATOM     17  C   UNL     1      32.399  17.935  15.171  0.00  0.00    +0.111 A 
ATOM     18  N   UNL     1      32.834  18.913  15.991  0.00  0.00    -0.263 NA
ATOM     19  C   UNL     1      32.142  20.073  15.970  0.00  0.00    +0.118 A 
ENDBRANCH  13  14
BRANCH  13  20
ATOM     20  C   UNL     1      30.555  22.262  13.767  0.00  0.00    +0.034 C 
ATOM     21  C   UNL     1      31.917  22.684  13.269  0.00  0.00    +0.008 C 
ATOM     22  C   UNL     1      30.852  23.721  13.502  0.00  0.00    +0.008 C 
ENDBRANCH  13  20
ENDBRANCH  12  13
ENDBRANCH   5  12
TORSDOF 5
ENDMDL
MODEL 5
REMARK VINA RESULT:      -6.4      2.202      3.103
REMARK  Name = ZINC001228612316
REMARK  5 active torsions:
REMARK  status: ('A' for Active; 'I' for Inactive)
REMARK    1  A    between atoms: C_2  and  C_4
REMARK    2  A    between atoms: C_8  and  O_9
REMARK    3  A    between atoms: O_9  and  C_10
REMARK    4  A    between atoms: C_10  and  C_11
REMARK    5  A    between atoms: C_10  and  C_17
REMARK                            x       y       z     vdW  Elec       q    Type
REMARK                         _______ _______ _______ _____ _____    ______ ____
ROOT
ATOM      1  C   UNL     1      28.672  22.316  17.734  0.00  0.00    +0.040 A 
ATOM      2  C   UNL     1      29.124  23.171  18.744  0.00  0.00    +0.013 A 
ATOM      3  C   UNL     1      30.476  23.509  18.822  0.00  0.00    +0.004 A 
ATOM      4  C   UNL     1      31.384  22.997  17.892  0.00  0.00    +0.046 A 
ATOM      5  C   UNL     1      30.946  22.140  16.882  0.00  0.00    +0.122 A 
ATOM      6  C   UNL     1      29.588  21.804  16.806  0.00  0.00    +0.058 A 
ENDROOT
BRANCH   1   8
ATOM      7  N   UNL     1      26.473  22.277  18.796  0.00  0.00    -0.325 N 
ATOM      8  C   UNL     1      27.220  22.000  17.683  0.00  0.00    +0.242 C 
ATOM      9  O   UNL     1      26.694  21.544  16.674  0.00  0.00    -0.270 OA
ATOM     10  H   UNL     1      25.473  22.153  18.703  0.00  0.00    +0.145 HD
ATOM     11  H   UNL     1      26.806  22.863  19.546  0.00  0.00    +0.145 HD
ENDBRANCH   1   8
BRANCH   5  12
ATOM     12  O   UNL     1      31.746  21.519  15.961  0.00  0.00    -0.484 OA
BRANCH  12  13
ATOM     13  C   UNL     1      32.102  20.143  16.169  0.00  0.00    +0.208 C 
BRANCH  13  14
ATOM     14  C   UNL     1      32.042  19.310  14.904  0.00  0.00    +0.011 A 
ATOM     15  C   UNL     1      31.179  18.222  14.741  0.00  0.00    +0.010 A 
ATOM     16  C   UNL     1      31.122  17.564  13.515  0.00  0.00    +0.020 A 
ATOM     17  C   UNL     1      31.931  18.017  12.485  0.00  0.00    +0.111 A 
ATOM     18  N   UNL     1      32.783  19.055  12.604  0.00  0.00    -0.263 NA
ATOM     19  C   UNL     1      32.816  19.676  13.803  0.00  0.00    +0.118 A 
ENDBRANCH  13  14
BRANCH  13  20
ATOM     20  C   UNL     1      33.533  20.066  16.694  0.00  0.00    +0.034 C 
ATOM     21  C   UNL     1      34.010  18.846  17.443  0.00  0.00    +0.008 C 
ATOM     22  C   UNL     1      33.880  20.160  18.163  0.00  0.00    +0.008 C 
ENDBRANCH  13  20
ENDBRANCH  12  13
ENDBRANCH   5  12
TORSDOF 5
ENDMDL
MODEL 6
REMARK VINA RESULT:      -6.3      1.512      2.089
REMARK  Name = ZINC001228612316
REMARK  5 active torsions:
REMARK  status: ('A' for Active; 'I' for Inactive)
REMARK    1  A    between atoms: C_2  and  C_4
REMARK    2  A    between atoms: C_8  and  O_9
REMARK    3  A    between atoms: O_9  and  C_10
REMARK    4  A    between atoms: C_10  and  C_11
REMARK    5  A    between atoms: C_10  and  C_17
REMARK                            x       y       z     vdW  Elec       q    Type
REMARK                         _______ _______ _______ _____ _____    ______ ____
ROOT
ATOM      1  C   UNL     1      28.994  22.741  18.195  0.00  0.00    +0.040 A 
ATOM      2  C   UNL     1      27.813  22.100  17.803  0.00  0.00    +0.013 A 
ATOM      3  C   UNL     1      27.765  21.399  16.598  0.00  0.00    +0.004 A 
ATOM      4  C   UNL     1      28.894  21.331  15.777  0.00  0.00    +0.046 A 
ATOM      5  C   UNL     1      30.075  21.970  16.155  0.00  0.00    +0.122 A 
ATOM      6  C   UNL     1      30.121  22.671  17.367  0.00  0.00    +0.058 A 
ENDROOT
BRANCH   1   8
ATOM      7  N   UNL     1      27.918  24.246  19.790  0.00  0.00    -0.325 N 
ATOM      8  C   UNL     1      29.000  23.460  19.497  0.00  0.00    +0.242 C 
ATOM      9  O   UNL     1      29.916  23.332  20.300  0.00  0.00    -0.270 OA
ATOM     10  H   UNL     1      27.894  24.640  20.722  0.00  0.00    +0.145 HD
ATOM     11  H   UNL     1      27.049  24.192  19.280  0.00  0.00    +0.145 HD
ENDBRANCH   1   8
BRANCH   5  12
ATOM     12  O   UNL     1      31.219  22.037  15.407  0.00  0.00    -0.484 OA
BRANCH  12  13
ATOM     13  C   UNL     1      31.213  21.484  14.081  0.00  0.00    +0.208 C 
BRANCH  13  14
ATOM     14  C   UNL     1      31.610  22.484  13.012  0.00  0.00    +0.011 A 
ATOM     15  C   UNL     1      30.803  23.559  12.629  0.00  0.00    +0.010 A 
ATOM     16  C   UNL     1      31.279  24.483  11.702  0.00  0.00    +0.020 A 
ATOM     17  C   UNL     1      32.553  24.304  11.187  0.00  0.00    +0.111 A 
ATOM     18  N   UNL     1      33.358  23.276  11.522  0.00  0.00    -0.263 NA
ATOM     19  C   UNL     1      32.872  22.396  12.424  0.00  0.00    +0.118 A 
ENDBRANCH  13  14
BRANCH  13  20
ATOM     20  C   UNL     1      32.207  20.329  14.012  0.00  0.00    +0.034 C 
ATOM     21  C   UNL     1      31.788  18.989  13.458  0.00  0.00    +0.008 C 
ATOM     22  C   UNL     1      32.132  19.119  14.916  0.00  0.00    +0.008 C 
ENDBRANCH  13  20
ENDBRANCH  12  13
ENDBRANCH   5  12
TORSDOF 5
ENDMDL
MODEL 7
REMARK VINA RESULT:      -6.2      2.141      6.242
REMARK  Name = ZINC001228612316
REMARK  5 active torsions:
REMARK  status: ('A' for Active; 'I' for Inactive)
REMARK    1  A    between atoms: C_2  and  C_4
REMARK    2  A    between atoms: C_8  and  O_9
REMARK    3  A    between atoms: O_9  and  C_10
REMARK    4  A    between atoms: C_10  and  C_11
REMARK    5  A    between atoms: C_10  and  C_17
REMARK                            x       y       z     vdW  Elec       q    Type
REMARK                         _______ _______ _______ _____ _____    ______ ____
ROOT
ATOM      1  C   UNL     1      32.215  23.266  11.323  0.00  0.00    +0.040 A 
ATOM      2  C   UNL     1      31.938  24.633  11.210  0.00  0.00    +0.013 A 
ATOM      3  C   UNL     1      30.986  25.224  12.041  0.00  0.00    +0.004 A 
ATOM      4  C   UNL     1      30.306  24.456  12.990  0.00  0.00    +0.046 A 
ATOM      5  C   UNL     1      30.571  23.092  13.109  0.00  0.00    +0.122 A 
ATOM      6  C   UNL     1      31.529  22.502  12.275  0.00  0.00    +0.058 A 
ENDROOT
BRANCH   1   8
ATOM      7  N   UNL     1      32.841  21.764   9.501  0.00  0.00    -0.325 N 
ATOM      8  C   UNL     1      33.251  22.686  10.426  0.00  0.00    +0.242 C 
ATOM      9  O   UNL     1      34.422  23.042  10.479  0.00  0.00    -0.270 OA
ATOM     10  H   UNL     1      33.540  21.463   8.834  0.00  0.00    +0.145 HD
ATOM     11  H   UNL     1      31.872  21.622   9.262  0.00  0.00    +0.145 HD
ENDBRANCH   1   8
BRANCH   5  12
ATOM     12  O   UNL     1      29.923  22.225  13.946  0.00  0.00    -0.484 OA
BRANCH  12  13
ATOM     13  C   UNL     1      30.658  21.623  15.024  0.00  0.00    +0.208 C 
BRANCH  13  14
ATOM     14  C   UNL     1      30.294  22.184  16.385  0.00  0.00    +0.011 A 
ATOM     15  C   UNL     1      28.985  22.228  16.872  0.00  0.00    +0.010 A 
ATOM     16  C   UNL     1      28.746  22.679  18.169  0.00  0.00    +0.020 A 
ATOM     17  C   UNL     1      29.828  23.070  18.941  0.00  0.00    +0.111 A 
ATOM     18  N   UNL     1      31.104  23.052  18.506  0.00  0.00    -0.263 NA
ATOM     19  C   UNL     1      31.306  22.610  17.246  0.00  0.00    +0.118 A 
ENDBRANCH  13  14
BRANCH  13  20
ATOM     20  C   UNL     1      30.367  20.126  15.060  0.00  0.00    +0.034 C 
ATOM     21  C   UNL     1      31.444  19.144  15.454  0.00  0.00    +0.008 C 
ATOM     22  C   UNL     1      30.921  19.152  14.043  0.00  0.00    +0.008 C 
ENDBRANCH  13  20
ENDBRANCH  12  13
ENDBRANCH   5  12
TORSDOF 5
ENDMDL
MODEL 8
REMARK VINA RESULT:      -6.2      2.992      5.072
REMARK  Name = ZINC001228612316
REMARK  5 active torsions:
REMARK  status: ('A' for Active; 'I' for Inactive)
REMARK    1  A    between atoms: C_2  and  C_4
REMARK    2  A    between atoms: C_8  and  O_9
REMARK    3  A    between atoms: O_9  and  C_10
REMARK    4  A    between atoms: C_10  and  C_11
REMARK    5  A    between atoms: C_10  and  C_17
REMARK                            x       y       z     vdW  Elec       q    Type
REMARK                         _______ _______ _______ _____ _____    ______ ____
ROOT
ATOM      1  C   UNL     1      28.168  22.104  17.355  0.00  0.00    +0.040 A 
ATOM      2  C   UNL     1      28.795  21.386  16.331  0.00  0.00    +0.013 A 
ATOM      3  C   UNL     1      30.164  21.540  16.106  0.00  0.00    +0.004 A 
ATOM      4  C   UNL     1      30.915  22.409  16.902  0.00  0.00    +0.046 A 
ATOM      5  C   UNL     1      30.300  23.134  17.923  0.00  0.00    +0.122 A 
ATOM      6  C   UNL     1      28.926  22.976  18.148  0.00  0.00    +0.058 A 
ENDROOT
BRANCH   1   8
ATOM      7  N   UNL     1      26.175  22.323  18.751  0.00  0.00    -0.325 N 
ATOM      8  C   UNL     1      26.711  21.893  17.567  0.00  0.00    +0.242 C 
ATOM      9  O   UNL     1      26.001  21.388  16.705  0.00  0.00    -0.270 OA
ATOM     10  H   UNL     1      25.167  22.266  18.830  0.00  0.00    +0.145 HD
ATOM     11  H   UNL     1      26.660  22.948  19.375  0.00  0.00    +0.145 HD
ENDBRANCH   1   8
BRANCH   5  12
ATOM     12  O   UNL     1      30.910  24.066  18.717  0.00  0.00    -0.484 OA
BRANCH  12  13
ATOM     13  C   UNL     1      32.273  23.850  19.117  0.00  0.00    +0.208 C 
BRANCH  13  14
ATOM     14  C   UNL     1      33.272  24.637  18.290  0.00  0.00    +0.011 A 
ATOM     15  C   UNL     1      33.245  26.029  18.174  0.00  0.00    +0.010 A 
ATOM     16  C   UNL     1      34.253  26.682  17.466  0.00  0.00    +0.020 A 
ATOM     17  C   UNL     1      35.260  25.919  16.897  0.00  0.00    +0.111 A 
ATOM     18  N   UNL     1      35.316  24.574  16.977  0.00  0.00    -0.263 NA
ATOM     19  C   UNL     1      34.328  23.968  17.670  0.00  0.00    +0.118 A 
ENDBRANCH  13  14
BRANCH  13  20
ATOM     20  C   UNL     1      32.448  24.282  20.569  0.00  0.00    +0.034 C 
ATOM     21  C   UNL     1      33.561  23.707  21.412  0.00  0.00    +0.008 C 
ATOM     22  C   UNL     1      32.130  23.383  21.743  0.00  0.00    +0.008 C 
ENDBRANCH  13  20
ENDBRANCH  12  13
ENDBRANCH   5  12
TORSDOF 5
ENDMDL
MODEL 9
REMARK VINA RESULT:      -6.1      2.977      6.336
REMARK  Name = ZINC001228612316
REMARK  5 active torsions:
REMARK  status: ('A' for Active; 'I' for Inactive)
REMARK    1  A    between atoms: C_2  and  C_4
REMARK    2  A    between atoms: C_8  and  O_9
REMARK    3  A    between atoms: O_9  and  C_10
REMARK    4  A    between atoms: C_10  and  C_11
REMARK    5  A    between atoms: C_10  and  C_17
REMARK                            x       y       z     vdW  Elec       q    Type
REMARK                         _______ _______ _______ _____ _____    ______ ____
ROOT
ATOM      1  C   UNL     1      32.424  23.670  11.160  0.00  0.00    +0.040 A 
ATOM      2  C   UNL     1      31.490  24.703  11.296  0.00  0.00    +0.013 A 
ATOM      3  C   UNL     1      30.694  24.779  12.439  0.00  0.00    +0.004 A 
ATOM      4  C   UNL     1      30.825  23.826  13.453  0.00  0.00    +0.046 A 
ATOM      5  C   UNL     1      31.750  22.789  13.327  0.00  0.00    +0.122 A 
ATOM      6  C   UNL     1      32.549  22.717  12.178  0.00  0.00    +0.058 A 
ENDROOT
BRANCH   1   8
ATOM      7  N   UNL     1      32.659  23.976   8.747  0.00  0.00    -0.325 N 
ATOM      8  C   UNL     1      33.262  23.642   9.931  0.00  0.00    +0.242 C 
ATOM      9  O   UNL     1      34.456  23.370   9.970  0.00  0.00    -0.270 OA
ATOM     10  H   UNL     1      33.270  24.053   7.944  0.00  0.00    +0.145 HD
ATOM     11  H   UNL     1      31.761  24.431   8.701  0.00  0.00    +0.145 HD
ENDBRANCH   1   8
BRANCH   5  12
ATOM     12  O   UNL     1      31.920  21.761  14.213  0.00  0.00    -0.484 OA
BRANCH  12  13
ATOM     13  C   UNL     1      30.861  20.802  14.373  0.00  0.00    +0.208 C 
BRANCH  13  14
ATOM     14  C   UNL     1      31.304  19.373  14.130  0.00  0.00    +0.011 A 
ATOM     15  C   UNL     1      30.795  18.280  14.837  0.00  0.00    +0.010 A 
ATOM     16  C   UNL     1      31.190  16.990  14.491  0.00  0.00    +0.020 A 
ATOM     17  C   UNL     1      32.083  16.832  13.444  0.00  0.00    +0.111 A 
ATOM     18  N   UNL     1      32.604  17.859  12.743  0.00  0.00    -0.263 NA
ATOM     19  C   UNL     1      32.203  19.098  13.099  0.00  0.00    +0.118 A 
ENDBRANCH  13  14
BRANCH  13  20
ATOM     20  C   UNL     1      30.328  20.875  15.800  0.00  0.00    +0.034 C 
ATOM     21  C   UNL     1      28.939  21.399  16.074  0.00  0.00    +0.008 C 
ATOM     22  C   UNL     1      30.137  22.177  16.546  0.00  0.00    +0.008 C 
ENDBRANCH  13  20
ENDBRANCH  12  13
ENDBRANCH   5  12
TORSDOF 5
ENDMDL
