MODEL 1
REMARK VINA RESULT:      -5.7      0.000      0.000
REMARK  Name = ZINC001228612316
REMARK  5 active torsions:
REMARK  status: ('A' for Active; 'I' for Inactive)
REMARK    1  A    between atoms: C_2  and  C_4
REMARK    2  A    between atoms: C_8  and  O_9
REMARK    3  A    between atoms: O_9  and  C_10
REMARK    4  A    between atoms: C_10  and  C_11
REMARK    5  A    between atoms: C_10  and  C_17
REMARK                            x       y       z     vdW  Elec       q    Type
REMARK                         _______ _______ _______ _____ _____    ______ ____
ROOT
ATOM      1  C   UNL     1      31.751  22.389  16.142  0.00  0.00    +0.040 A 
ATOM      2  C   UNL     1      32.386  22.162  14.919  0.00  0.00    +0.013 A 
ATOM      3  C   UNL     1      33.686  22.635  14.719  0.00  0.00    +0.004 A 
ATOM      4  C   UNL     1      34.348  23.321  15.743  0.00  0.00    +0.046 A 
ATOM      5  C   UNL     1      33.719  23.541  16.970  0.00  0.00    +0.122 A 
ATOM      6  C   UNL     1      32.412  23.100  17.149  0.00  0.00    +0.058 A 
ENDROOT
BRANCH   1   8
ATOM      7  N   UNL     1      29.771  21.112  15.518  0.00  0.00    -0.325 N 
ATOM      8  C   UNL     1      30.381  21.905  16.447  0.00  0.00    +0.242 C 
ATOM      9  O   UNL     1      29.836  22.149  17.517  0.00  0.00    -0.270 OA
ATOM     10  H   UNL     1      28.904  20.680  15.813  0.00  0.00    +0.145 HD
ATOM     11  H   UNL     1      30.283  20.669  14.770  0.00  0.00    +0.145 HD
ENDBRANCH   1   8
BRANCH   5  12
ATOM     12  O   UNL     1      34.453  24.212  17.909  0.00  0.00    -0.484 OA
BRANCH  12  13
ATOM     13  C   UNL     1      34.337  25.647  17.950  0.00  0.00    +0.208 C 
BRANCH  13  14
ATOM     14  C   UNL     1      33.726  26.052  19.275  0.00  0.00    +0.011 A 
ATOM     15  C   UNL     1      32.337  26.008  19.452  0.00  0.00    +0.010 A 
ATOM     16  C   UNL     1      31.774  26.386  20.665  0.00  0.00    +0.020 A 
ATOM     17  C   UNL     1      32.625  26.798  21.675  0.00  0.00    +0.111 A 
ATOM     18  N   UNL     1      33.968  26.861  21.548  0.00  0.00    -0.263 NA
ATOM     19  C   UNL     1      34.488  26.490  20.352  0.00  0.00    +0.118 A 
ENDBRANCH  13  14
BRANCH  13  20
ATOM     20  C   UNL     1      35.705  26.271  17.788  0.00  0.00    +0.034 C 
ATOM     21  C   UNL     1      35.899  27.627  17.141  0.00  0.00    +0.008 C 
ATOM     22  C   UNL     1      36.344  26.393  16.418  0.00  0.00    +0.008 C 
ENDBRANCH  13  20
ENDBRANCH  12  13
ENDBRANCH   5  12
TORSDOF 5
ENDMDL
MODEL 2
REMARK VINA RESULT:      -5.6      3.511      7.692
REMARK  Name = ZINC001228612316
REMARK  5 active torsions:
REMARK  status: ('A' for Active; 'I' for Inactive)
REMARK    1  A    between atoms: C_2  and  C_4
REMARK    2  A    between atoms: C_8  and  O_9
REMARK    3  A    between atoms: O_9  and  C_10
REMARK    4  A    between atoms: C_10  and  C_11
REMARK    5  A    between atoms: C_10  and  C_17
REMARK                            x       y       z     vdW  Elec       q    Type
REMARK                         _______ _______ _______ _____ _____    ______ ____
ROOT
ATOM      1  C   UNL     1      32.154  23.084  16.534  0.00  0.00    +0.040 A 
ATOM      2  C   UNL     1      31.121  22.601  17.341  0.00  0.00    +0.013 A 
ATOM      3  C   UNL     1      30.242  21.640  16.834  0.00  0.00    +0.004 A 
ATOM      4  C   UNL     1      30.404  21.160  15.531  0.00  0.00    +0.046 A 
ATOM      5  C   UNL     1      31.441  21.634  14.724  0.00  0.00    +0.122 A 
ATOM      6  C   UNL     1      32.290  22.617  15.223  0.00  0.00    +0.058 A 
ENDROOT
BRANCH   1   8
ATOM      7  N   UNL     1      32.833  24.812  18.113  0.00  0.00    -0.325 N 
ATOM      8  C   UNL     1      33.144  24.088  16.998  0.00  0.00    +0.242 C 
ATOM      9  O   UNL     1      34.230  24.223  16.446  0.00  0.00    -0.270 OA
ATOM     10  H   UNL     1      33.583  25.380  18.489  0.00  0.00    +0.145 HD
ATOM     11  H   UNL     1      32.093  24.539  18.742  0.00  0.00    +0.145 HD
ENDBRANCH   1   8
BRANCH   5  12
ATOM     12  O   UNL     1      31.521  21.095  13.470  0.00  0.00    -0.484 OA
BRANCH  12  13
ATOM     13  C   UNL     1      32.722  20.379  13.125  0.00  0.00    +0.208 C 
BRANCH  13  14
ATOM     14  C   UNL     1      32.640  18.978  13.694  0.00  0.00    +0.011 A 
ATOM     15  C   UNL     1      31.502  18.193  13.468  0.00  0.00    +0.010 A 
ATOM     16  C   UNL     1      31.423  16.910  13.995  0.00  0.00    +0.020 A 
ATOM     17  C   UNL     1      32.493  16.446  14.738  0.00  0.00    +0.111 A 
ATOM     18  N   UNL     1      33.606  17.169  14.986  0.00  0.00    -0.263 NA
ATOM     19  C   UNL     1      33.654  18.418  14.462  0.00  0.00    +0.118 A 
ENDBRANCH  13  14
BRANCH  13  20
ATOM     20  C   UNL     1      32.867  20.328  11.620  0.00  0.00    +0.034 C 
ATOM     21  C   UNL     1      33.973  19.545  10.945  0.00  0.00    +0.008 C 
ATOM     22  C   UNL     1      34.011  21.042  10.927  0.00  0.00    +0.008 C 
ENDBRANCH  13  20
ENDBRANCH  12  13
ENDBRANCH   5  12
TORSDOF 5
ENDMDL
MODEL 3
REMARK VINA RESULT:      -5.5      2.650      4.084
REMARK  Name = ZINC001228612316
REMARK  5 active torsions:
REMARK  status: ('A' for Active; 'I' for Inactive)
REMARK    1  A    between atoms: C_2  and  C_4
REMARK    2  A    between atoms: C_8  and  O_9
REMARK    3  A    between atoms: O_9  and  C_10
REMARK    4  A    between atoms: C_10  and  C_11
REMARK    5  A    between atoms: C_10  and  C_17
REMARK                            x       y       z     vdW  Elec       q    Type
REMARK                         _______ _______ _______ _____ _____    ______ ____
ROOT
ATOM      1  C   UNL     1      31.065  21.570  14.684  0.00  0.00    +0.040 A 
ATOM      2  C   UNL     1      30.211  21.079  15.675  0.00  0.00    +0.013 A 
ATOM      3  C   UNL     1      30.301  21.584  16.975  0.00  0.00    +0.004 A 
ATOM      4  C   UNL     1      31.235  22.581  17.277  0.00  0.00    +0.046 A 
ATOM      5  C   UNL     1      32.084  23.080  16.286  0.00  0.00    +0.122 A 
ATOM      6  C   UNL     1      32.013  22.547  15.004  0.00  0.00    +0.058 A 
ENDROOT
BRANCH   1   8
ATOM      7  N   UNL     1      32.099  21.395  12.484  0.00  0.00    -0.325 N 
ATOM      8  C   UNL     1      31.024  21.106  13.274  0.00  0.00    +0.242 C 
ATOM      9  O   UNL     1      30.094  20.432  12.846  0.00  0.00    -0.270 OA
ATOM     10  H   UNL     1      32.109  20.943  11.578  0.00  0.00    +0.145 HD
ATOM     11  H   UNL     1      32.983  21.694  12.867  0.00  0.00    +0.145 HD
ENDBRANCH   1   8
BRANCH   5  12
ATOM     12  O   UNL     1      32.954  24.060  16.679  0.00  0.00    -0.484 OA
BRANCH  12  13
ATOM     13  C   UNL     1      33.369  24.072  18.057  0.00  0.00    +0.208 C 
BRANCH  13  14
ATOM     14  C   UNL     1      34.756  23.472  18.158  0.00  0.00    +0.011 A 
ATOM     15  C   UNL     1      34.993  22.387  19.013  0.00  0.00    +0.010 A 
ATOM     16  C   UNL     1      36.265  21.840  19.111  0.00  0.00    +0.020 A 
ATOM     17  C   UNL     1      37.272  22.395  18.343  0.00  0.00    +0.111 A 
ATOM     18  N   UNL     1      37.092  23.443  17.509  0.00  0.00    -0.263 NA
ATOM     19  C   UNL     1      35.840  23.958  17.438  0.00  0.00    +0.118 A 
ENDBRANCH  13  14
BRANCH  13  20
ATOM     20  C   UNL     1      33.373  25.495  18.573  0.00  0.00    +0.034 C 
ATOM     21  C   UNL     1      33.862  25.845  19.963  0.00  0.00    +0.008 C 
ATOM     22  C   UNL     1      32.400  25.931  19.651  0.00  0.00    +0.008 C 
ENDBRANCH  13  20
ENDBRANCH  12  13
ENDBRANCH   5  12
TORSDOF 5
ENDMDL
MODEL 4
REMARK VINA RESULT:      -5.4      6.010      8.389
REMARK  Name = ZINC001228612316
REMARK  5 active torsions:
REMARK  status: ('A' for Active; 'I' for Inactive)
REMARK    1  A    between atoms: C_2  and  C_4
REMARK    2  A    between atoms: C_8  and  O_9
REMARK    3  A    between atoms: O_9  and  C_10
REMARK    4  A    between atoms: C_10  and  C_11
REMARK    5  A    between atoms: C_10  and  C_17
REMARK                            x       y       z     vdW  Elec       q    Type
REMARK                         _______ _______ _______ _____ _____    ______ ____
ROOT
ATOM      1  C   UNL     1      32.489  15.449  10.866  0.00  0.00    +0.040 A 
ATOM      2  C   UNL     1      33.424  16.124  10.076  0.00  0.00    +0.013 A 
ATOM      3  C   UNL     1      33.962  17.332  10.526  0.00  0.00    +0.004 A 
ATOM      4  C   UNL     1      33.573  17.856  11.764  0.00  0.00    +0.046 A 
ATOM      5  C   UNL     1      32.645  17.180  12.559  0.00  0.00    +0.122 A 
ATOM      6  C   UNL     1      32.087  15.996  12.088  0.00  0.00    +0.058 A 
ENDROOT
BRANCH   1   8
ATOM      7  N   UNL     1      30.558  14.149  10.143  0.00  0.00    -0.325 N 
ATOM      8  C   UNL     1      31.883  14.152  10.475  0.00  0.00    +0.242 C 
ATOM      9  O   UNL     1      32.552  13.129  10.388  0.00  0.00    -0.270 OA
ATOM     10  H   UNL     1      30.209  13.287   9.743  0.00  0.00    +0.145 HD
ATOM     11  H   UNL     1      30.054  14.998   9.936  0.00  0.00    +0.145 HD
ENDBRANCH   1   8
BRANCH   5  12
ATOM     12  O   UNL     1      32.338  17.767  13.755  0.00  0.00    -0.484 OA
BRANCH  12  13
ATOM     13  C   UNL     1      33.259  18.744  14.276  0.00  0.00    +0.208 C 
BRANCH  13  14
ATOM     14  C   UNL     1      32.477  19.949  14.757  0.00  0.00    +0.011 A 
ATOM     15  C   UNL     1      31.091  19.860  14.941  0.00  0.00    +0.010 A 
ATOM     16  C   UNL     1      30.372  20.966  15.375  0.00  0.00    +0.020 A 
ATOM     17  C   UNL     1      31.066  22.139  15.616  0.00  0.00    +0.111 A 
ATOM     18  N   UNL     1      32.399  22.272  15.448  0.00  0.00    -0.263 NA
ATOM     19  C   UNL     1      33.074  21.177  15.019  0.00  0.00    +0.118 A 
ENDBRANCH  13  14
BRANCH  13  20
ATOM     20  C   UNL     1      34.048  18.139  15.417  0.00  0.00    +0.034 C 
ATOM     21  C   UNL     1      35.398  18.681  15.837  0.00  0.00    +0.008 C 
ATOM     22  C   UNL     1      35.316  17.352  15.151  0.00  0.00    +0.008 C 
ENDBRANCH  13  20
ENDBRANCH  12  13
ENDBRANCH   5  12
TORSDOF 5
ENDMDL
MODEL 5
REMARK VINA RESULT:      -5.4      5.114      9.333
REMARK  Name = ZINC001228612316
REMARK  5 active torsions:
REMARK  status: ('A' for Active; 'I' for Inactive)
REMARK    1  A    between atoms: C_2  and  C_4
REMARK    2  A    between atoms: C_8  and  O_9
REMARK    3  A    between atoms: O_9  and  C_10
REMARK    4  A    between atoms: C_10  and  C_11
REMARK    5  A    between atoms: C_10  and  C_17
REMARK                            x       y       z     vdW  Elec       q    Type
REMARK                         _______ _______ _______ _____ _____    ______ ____
ROOT
ATOM      1  C   UNL     1      31.809  21.378  15.365  0.00  0.00    +0.040 A 
ATOM      2  C   UNL     1      32.859  22.293  15.263  0.00  0.00    +0.013 A 
ATOM      3  C   UNL     1      33.922  22.028  14.396  0.00  0.00    +0.004 A 
ATOM      4  C   UNL     1      33.927  20.859  13.628  0.00  0.00    +0.046 A 
ATOM      5  C   UNL     1      32.874  19.946  13.721  0.00  0.00    +0.122 A 
ATOM      6  C   UNL     1      31.837  20.199  14.614  0.00  0.00    +0.058 A 
ENDROOT
BRANCH   1   8
ATOM      7  N   UNL     1      29.425  21.124  15.805  0.00  0.00    -0.325 N 
ATOM      8  C   UNL     1      30.631  21.588  16.245  0.00  0.00    +0.242 C 
ATOM      9  O   UNL     1      30.740  22.100  17.353  0.00  0.00    -0.270 OA
ATOM     10  H   UNL     1      28.673  21.149  16.483  0.00  0.00    +0.145 HD
ATOM     11  H   UNL     1      29.347  20.464  15.045  0.00  0.00    +0.145 HD
ENDBRANCH   1   8
BRANCH   5  12
ATOM     12  O   UNL     1      32.966  18.839  12.923  0.00  0.00    -0.484 OA
BRANCH  12  13
ATOM     13  C   UNL     1      32.814  17.550  13.546  0.00  0.00    +0.208 C 
BRANCH  13  14
ATOM     14  C   UNL     1      32.391  16.544  12.496  0.00  0.00    +0.011 A 
ATOM     15  C   UNL     1      31.089  16.026  12.503  0.00  0.00    +0.010 A 
ATOM     16  C   UNL     1      30.701  15.098  11.544  0.00  0.00    +0.020 A 
ATOM     17  C   UNL     1      31.634  14.714  10.598  0.00  0.00    +0.111 A 
ATOM     18  N   UNL     1      32.900  15.182  10.556  0.00  0.00    -0.263 NA
ATOM     19  C   UNL     1      33.251  16.083  11.506  0.00  0.00    +0.118 A 
ENDBRANCH  13  14
BRANCH  13  20
ATOM     20  C   UNL     1      34.125  17.134  14.175  0.00  0.00    +0.034 C 
ATOM     21  C   UNL     1      34.231  15.939  15.099  0.00  0.00    +0.008 C 
ATOM     22  C   UNL     1      34.365  17.320  15.661  0.00  0.00    +0.008 C 
ENDBRANCH  13  20
ENDBRANCH  12  13
ENDBRANCH   5  12
TORSDOF 5
ENDMDL
MODEL 6
REMARK VINA RESULT:      -5.4      4.580      7.451
REMARK  Name = ZINC001228612316
REMARK  5 active torsions:
REMARK  status: ('A' for Active; 'I' for Inactive)
REMARK    1  A    between atoms: C_2  and  C_4
REMARK    2  A    between atoms: C_8  and  O_9
REMARK    3  A    between atoms: O_9  and  C_10
REMARK    4  A    between atoms: C_10  and  C_11
REMARK    5  A    between atoms: C_10  and  C_17
REMARK                            x       y       z     vdW  Elec       q    Type
REMARK                         _______ _______ _______ _____ _____    ______ ____
ROOT
ATOM      1  C   UNL     1      31.371  21.443  15.339  0.00  0.00    +0.040 A 
ATOM      2  C   UNL     1      30.645  20.295  15.012  0.00  0.00    +0.013 A 
ATOM      3  C   UNL     1      30.992  19.561  13.875  0.00  0.00    +0.004 A 
ATOM      4  C   UNL     1      32.065  19.970  13.076  0.00  0.00    +0.046 A 
ATOM      5  C   UNL     1      32.798  21.113  13.405  0.00  0.00    +0.122 A 
ATOM      6  C   UNL     1      32.424  21.858  14.518  0.00  0.00    +0.058 A 
ENDROOT
BRANCH   1   8
ATOM      7  N   UNL     1      31.745  23.459  16.657  0.00  0.00    -0.325 N 
ATOM      8  C   UNL     1      31.085  22.270  16.539  0.00  0.00    +0.242 C 
ATOM      9  O   UNL     1      30.242  21.937  17.363  0.00  0.00    -0.270 OA
ATOM     10  H   UNL     1      31.425  24.065  17.403  0.00  0.00    +0.145 HD
ATOM     11  H   UNL     1      32.224  23.888  15.879  0.00  0.00    +0.145 HD
ENDBRANCH   1   8
BRANCH   5  12
ATOM     12  O   UNL     1      33.834  21.423  12.568  0.00  0.00    -0.484 OA
BRANCH  12  13
ATOM     13  C   UNL     1      33.513  21.781  11.211  0.00  0.00    +0.208 C 
BRANCH  13  14
ATOM     14  C   UNL     1      33.949  23.210  10.964  0.00  0.00    +0.011 A 
ATOM     15  C   UNL     1      33.216  24.030  10.095  0.00  0.00    +0.010 A 
ATOM     16  C   UNL     1      33.619  25.339   9.862  0.00  0.00    +0.020 A 
ATOM     17  C   UNL     1      34.752  25.795  10.512  0.00  0.00    +0.111 A 
ATOM     18  N   UNL     1      35.492  25.040  11.353  0.00  0.00    -0.263 NA
ATOM     19  C   UNL     1      35.077  23.766  11.557  0.00  0.00    +0.118 A 
ENDBRANCH  13  14
BRANCH  13  20
ATOM     20  C   UNL     1      34.220  20.843  10.258  0.00  0.00    +0.034 C 
ATOM     21  C   UNL     1      33.826  20.730   8.800  0.00  0.00    +0.008 C 
ATOM     22  C   UNL     1      33.525  19.600   9.736  0.00  0.00    +0.008 C 
ENDBRANCH  13  20
ENDBRANCH  12  13
ENDBRANCH   5  12
TORSDOF 5
ENDMDL
MODEL 7
REMARK VINA RESULT:      -5.4      4.842      8.344
REMARK  Name = ZINC001228612316
REMARK  5 active torsions:
REMARK  status: ('A' for Active; 'I' for Inactive)
REMARK    1  A    between atoms: C_2  and  C_4
REMARK    2  A    between atoms: C_8  and  O_9
REMARK    3  A    between atoms: O_9  and  C_10
REMARK    4  A    between atoms: C_10  and  C_11
REMARK    5  A    between atoms: C_10  and  C_17
REMARK                            x       y       z     vdW  Elec       q    Type
REMARK                         _______ _______ _______ _____ _____    ______ ____
ROOT
ATOM      1  C   UNL     1      30.935  21.365  15.308  0.00  0.00    +0.040 A 
ATOM      2  C   UNL     1      30.512  21.774  14.041  0.00  0.00    +0.013 A 
ATOM      3  C   UNL     1      30.540  20.866  12.979  0.00  0.00    +0.004 A 
ATOM      4  C   UNL     1      30.980  19.555  13.189  0.00  0.00    +0.046 A 
ATOM      5  C   UNL     1      31.395  19.141  14.457  0.00  0.00    +0.122 A 
ATOM      6  C   UNL     1      31.398  20.060  15.500  0.00  0.00    +0.058 A 
ENDROOT
BRANCH   1   8
ATOM      7  N   UNL     1      31.594  23.439  16.406  0.00  0.00    -0.325 N 
ATOM      8  C   UNL     1      30.918  22.256  16.496  0.00  0.00    +0.242 C 
ATOM      9  O   UNL     1      30.271  21.979  17.499  0.00  0.00    -0.270 OA
ATOM     10  H   UNL     1      31.445  24.087  17.170  0.00  0.00    +0.145 HD
ATOM     11  H   UNL     1      31.896  23.820  15.521  0.00  0.00    +0.145 HD
ENDBRANCH   1   8
BRANCH   5  12
ATOM     12  O   UNL     1      31.797  17.837  14.561  0.00  0.00    -0.484 OA
BRANCH  12  13
ATOM     13  C   UNL     1      32.919  17.417  13.762  0.00  0.00    +0.208 C 
BRANCH  13  14
ATOM     14  C   UNL     1      34.179  17.513  14.597  0.00  0.00    +0.011 A 
ATOM     15  C   UNL     1      34.258  16.854  15.831  0.00  0.00    +0.010 A 
ATOM     16  C   UNL     1      35.410  16.946  16.601  0.00  0.00    +0.020 A 
ATOM     17  C   UNL     1      36.461  17.700  16.109  0.00  0.00    +0.111 A 
ATOM     18  N   UNL     1      36.428  18.357  14.929  0.00  0.00    -0.263 NA
ATOM     19  C   UNL     1      35.289  18.251  14.202  0.00  0.00    +0.118 A 
ENDBRANCH  13  14
BRANCH  13  20
ATOM     20  C   UNL     1      32.705  15.995  13.295  0.00  0.00    +0.034 C 
ATOM     21  C   UNL     1      33.693  15.287  12.391  0.00  0.00    +0.008 C 
ATOM     22  C   UNL     1      32.359  15.699  11.848  0.00  0.00    +0.008 C 
ENDBRANCH  13  20
ENDBRANCH  12  13
ENDBRANCH   5  12
TORSDOF 5
ENDMDL
MODEL 8
REMARK VINA RESULT:      -5.3      2.584      3.918
REMARK  Name = ZINC001228612316
REMARK  5 active torsions:
REMARK  status: ('A' for Active; 'I' for Inactive)
REMARK    1  A    between atoms: C_2  and  C_4
REMARK    2  A    between atoms: C_8  and  O_9
REMARK    3  A    between atoms: O_9  and  C_10
REMARK    4  A    between atoms: C_10  and  C_11
REMARK    5  A    between atoms: C_10  and  C_17
REMARK                            x       y       z     vdW  Elec       q    Type
REMARK                         _______ _______ _______ _____ _____    ______ ____
ROOT
ATOM      1  C   UNL     1      31.525  21.732  14.657  0.00  0.00    +0.040 A 
ATOM      2  C   UNL     1      30.534  21.155  15.455  0.00  0.00    +0.013 A 
ATOM      3  C   UNL     1      30.374  21.587  16.774  0.00  0.00    +0.004 A 
ATOM      4  C   UNL     1      31.195  22.597  17.287  0.00  0.00    +0.046 A 
ATOM      5  C   UNL     1      32.180  23.182  16.488  0.00  0.00    +0.122 A 
ATOM      6  C   UNL     1      32.358  22.722  15.187  0.00  0.00    +0.058 A 
ENDROOT
BRANCH   1   8
ATOM      7  N   UNL     1      30.974  20.352  12.726  0.00  0.00    -0.325 N 
ATOM      8  C   UNL     1      31.751  21.349  13.240  0.00  0.00    +0.242 C 
ATOM      9  O   UNL     1      32.556  21.944  12.534  0.00  0.00    -0.270 OA
ATOM     10  H   UNL     1      31.046  20.212  11.725  0.00  0.00    +0.145 HD
ATOM     11  H   UNL     1      30.129  20.038  13.181  0.00  0.00    +0.145 HD
ENDBRANCH   1   8
BRANCH   5  12
ATOM     12  O   UNL     1      32.923  24.168  17.077  0.00  0.00    -0.484 OA
BRANCH  12  13
ATOM     13  C   UNL     1      34.328  23.921  17.272  0.00  0.00    +0.208 C 
BRANCH  13  14
ATOM     14  C   UNL     1      35.089  25.213  17.056  0.00  0.00    +0.011 A 
ATOM     15  C   UNL     1      34.678  26.387  17.701  0.00  0.00    +0.010 A 
ATOM     16  C   UNL     1      35.370  27.574  17.499  0.00  0.00    +0.020 A 
ATOM     17  C   UNL     1      36.464  27.552  16.652  0.00  0.00    +0.111 A 
ATOM     18  N   UNL     1      36.892  26.446  16.006  0.00  0.00    -0.263 NA
ATOM     19  C   UNL     1      36.195  25.304  16.219  0.00  0.00    +0.118 A 
ENDBRANCH  13  14
BRANCH  13  20
ATOM     20  C   UNL     1      34.562  23.400  18.673  0.00  0.00    +0.034 C 
ATOM     21  C   UNL     1      35.953  23.233  19.248  0.00  0.00    +0.008 C 
ATOM     22  C   UNL     1      35.147  22.020  18.899  0.00  0.00    +0.008 C 
ENDBRANCH  13  20
ENDBRANCH  12  13
ENDBRANCH   5  12
TORSDOF 5
ENDMDL
MODEL 9
REMARK VINA RESULT:      -5.3      5.011      9.229
REMARK  Name = ZINC001228612316
REMARK  5 active torsions:
REMARK  status: ('A' for Active; 'I' for Inactive)
REMARK    1  A    between atoms: C_2  and  C_4
REMARK    2  A    between atoms: C_8  and  O_9
REMARK    3  A    between atoms: O_9  and  C_10
REMARK    4  A    between atoms: C_10  and  C_11
REMARK    5  A    between atoms: C_10  and  C_17
REMARK                            x       y       z     vdW  Elec       q    Type
REMARK                         _______ _______ _______ _____ _____    ______ ____
ROOT
ATOM      1  C   UNL     1      32.117  22.052  15.567  0.00  0.00    +0.040 A 
ATOM      2  C   UNL     1      30.797  21.691  15.844  0.00  0.00    +0.013 A 
ATOM      3  C   UNL     1      30.273  20.518  15.294  0.00  0.00    +0.004 A 
ATOM      4  C   UNL     1      31.071  19.708  14.480  0.00  0.00    +0.046 A 
ATOM      5  C   UNL     1      32.395  20.062  14.207  0.00  0.00    +0.122 A 
ATOM      6  C   UNL     1      32.898  21.249  14.729  0.00  0.00    +0.058 A 
ENDROOT
BRANCH   1   8
ATOM      7  N   UNL     1      32.189  23.833  17.228  0.00  0.00    -0.325 N 
ATOM      8  C   UNL     1      32.760  23.268  16.125  0.00  0.00    +0.242 C 
ATOM      9  O   UNL     1      33.801  23.717  15.660  0.00  0.00    -0.270 OA
ATOM     10  H   UNL     1      32.726  24.568  17.672  0.00  0.00    +0.145 HD
ATOM     11  H   UNL     1      31.511  23.343  17.794  0.00  0.00    +0.145 HD
ENDBRANCH   1   8
BRANCH   5  12
ATOM     12  O   UNL     1      33.095  19.199  13.410  0.00  0.00    -0.484 OA
BRANCH  12  13
ATOM     13  C   UNL     1      33.165  17.819  13.816  0.00  0.00    +0.208 C 
BRANCH  13  14
ATOM     14  C   UNL     1      32.960  16.939  12.600  0.00  0.00    +0.011 A 
ATOM     15  C   UNL     1      31.950  15.968  12.597  0.00  0.00    +0.010 A 
ATOM     16  C   UNL     1      31.765  15.156  11.486  0.00  0.00    +0.020 A 
ATOM     17  C   UNL     1      32.602  15.341  10.400  0.00  0.00    +0.111 A 
ATOM     18  N   UNL     1      33.591  16.260  10.360  0.00  0.00    -0.263 NA
ATOM     19  C   UNL     1      33.749  17.035  11.460  0.00  0.00    +0.118 A 
ENDBRANCH  13  14
BRANCH  13  20
ATOM     20  C   UNL     1      34.512  17.543  14.445  0.00  0.00    +0.034 C 
ATOM     21  C   UNL     1      34.786  16.283  15.239  0.00  0.00    +0.008 C 
ATOM     22  C   UNL     1      34.690  17.597  15.950  0.00  0.00    +0.008 C 
ENDBRANCH  13  20
ENDBRANCH  12  13
ENDBRANCH   5  12
TORSDOF 5
ENDMDL
