MODEL 1
REMARK VINA RESULT:      -6.6      0.000      0.000
REMARK  Name = ZINC000583127796
REMARK  2 active torsions:
REMARK  status: ('A' for Active; 'I' for Inactive)
REMARK    1  A    between atoms: C_2  and  C_4
REMARK    2  A    between atoms: C_7  and  C_8
REMARK                            x       y       z     vdW  Elec       q    Type
REMARK                         _______ _______ _______ _____ _____    ______ ____
ROOT
ATOM      1  C   UNL     1      30.183  20.434  14.876  0.00  0.00    +0.247 C 
ATOM      2  O   UNL     1      30.549  21.414  14.225  0.00  0.00    -0.270 OA
ATOM      3  N   UNL     1      30.599  19.126  14.584  0.00  0.00    -0.297 N 
ATOM      4  C   UNL     1      30.214  17.906  15.297  0.00  0.00    +0.108 C 
ATOM      5  C   UNL     1      31.412  17.103  15.769  0.00  0.00    +0.020 C 
ATOM      6  C   UNL     1      32.412  16.875  14.650  0.00  0.00    +0.011 C 
ATOM      7  C   UNL     1      32.816  18.180  13.921  0.00  0.00    -0.004 C 
ATOM      8  C   UNL     1      33.715  17.769  12.735  0.00  0.00    +0.020 C 
ATOM      9  C   UNL     1      34.615  18.920  12.346  0.00  0.00    +0.070 C 
ATOM     10  S   UNL     1      35.120  19.636  13.917  0.00  0.00    -0.160 S 
ATOM     11  C   UNL     1      33.649  19.103  14.838  0.00  0.00    +0.077 C 
ATOM     12  C   UNL     1      31.529  18.913  13.459  0.00  0.00    +0.115 C 
ENDROOT
BRANCH   1  16
ATOM     13  C   UNL     1      27.637  21.500  18.149  0.00  0.00    +0.037 A 
ATOM     14  C   UNL     1      29.022  21.499  18.334  0.00  0.00    +0.014 A 
ATOM     15  C   UNL     1      29.858  21.040  17.315  0.00  0.00    +0.014 A 
ATOM     16  C   UNL     1      29.324  20.689  16.073  0.00  0.00    +0.037 A 
ATOM     17  C   UNL     1      27.933  20.598  15.923  0.00  0.00    +0.014 A 
ATOM     18  C   UNL     1      27.091  20.992  16.967  0.00  0.00    +0.014 A 
BRANCH  13  20
ATOM     19  N   UNL     1      27.276  22.305  20.415  0.00  0.00    -0.325 N 
ATOM     20  C   UNL     1      26.723  22.035  19.194  0.00  0.00    +0.242 C 
ATOM     21  O   UNL     1      25.550  22.272  18.958  0.00  0.00    -0.270 OA
ATOM     22  H   UNL     1      26.676  22.782  21.077  0.00  0.00    +0.145 HD
ATOM     23  H   UNL     1      28.274  22.391  20.550  0.00  0.00    +0.145 HD
ENDBRANCH  13  20
ENDBRANCH   1  16
TORSDOF 2
ENDMDL
MODEL 2
REMARK VINA RESULT:      -6.6      3.278      4.499
REMARK  Name = ZINC000583127796
REMARK  2 active torsions:
REMARK  status: ('A' for Active; 'I' for Inactive)
REMARK    1  A    between atoms: C_2  and  C_4
REMARK    2  A    between atoms: C_7  and  C_8
REMARK                            x       y       z     vdW  Elec       q    Type
REMARK                         _______ _______ _______ _____ _____    ______ ____
ROOT
ATOM      1  C   UNL     1      32.490  16.996  15.040  0.00  0.00    +0.247 C 
ATOM      2  O   UNL     1      32.552  16.097  15.881  0.00  0.00    -0.270 OA
ATOM      3  N   UNL     1      33.123  16.915  13.790  0.00  0.00    -0.297 N 
ATOM      4  C   UNL     1      33.107  17.929  12.734  0.00  0.00    +0.108 C 
ATOM      5  C   UNL     1      32.634  17.378  11.401  0.00  0.00    +0.020 C 
ATOM      6  C   UNL     1      33.374  16.107  11.025  0.00  0.00    +0.011 C 
ATOM      7  C   UNL     1      33.363  15.043  12.150  0.00  0.00    -0.004 C 
ATOM      8  C   UNL     1      34.264  13.882  11.674  0.00  0.00    +0.020 C 
ATOM      9  C   UNL     1      33.864  12.599  12.370  0.00  0.00    +0.070 C 
ATOM     10  S   UNL     1      32.066  12.659  12.403  0.00  0.00    -0.160 S 
ATOM     11  C   UNL     1      31.946  14.470  12.373  0.00  0.00    +0.077 C 
ATOM     12  C   UNL     1      33.883  15.694  13.459  0.00  0.00    +0.115 C 
ENDROOT
BRANCH   1  16
ATOM     13  C   UNL     1      29.933  20.198  16.280  0.00  0.00    +0.037 A 
ATOM     14  C   UNL     1      29.514  19.349  15.252  0.00  0.00    +0.014 A 
ATOM     15  C   UNL     1      30.385  18.377  14.756  0.00  0.00    +0.014 A 
ATOM     16  C   UNL     1      31.627  18.175  15.359  0.00  0.00    +0.037 A 
ATOM     17  C   UNL     1      32.082  19.087  16.322  0.00  0.00    +0.014 A 
ATOM     18  C   UNL     1      31.237  20.106  16.773  0.00  0.00    +0.014 A 
BRANCH  13  20
ATOM     19  N   UNL     1      27.920  21.552  16.119  0.00  0.00    -0.325 N 
ATOM     20  C   UNL     1      29.010  21.206  16.868  0.00  0.00    +0.242 C 
ATOM     21  O   UNL     1      29.187  21.662  17.985  0.00  0.00    -0.270 OA
ATOM     22  H   UNL     1      27.237  22.143  16.577  0.00  0.00    +0.145 HD
ATOM     23  H   UNL     1      27.600  20.994  15.339  0.00  0.00    +0.145 HD
ENDBRANCH  13  20
ENDBRANCH   1  16
TORSDOF 2
ENDMDL
MODEL 3
REMARK VINA RESULT:      -6.5      1.103      1.125
REMARK  Name = ZINC000583127796
REMARK  2 active torsions:
REMARK  status: ('A' for Active; 'I' for Inactive)
REMARK    1  A    between atoms: C_2  and  C_4
REMARK    2  A    between atoms: C_7  and  C_8
REMARK                            x       y       z     vdW  Elec       q    Type
REMARK                         _______ _______ _______ _____ _____    ______ ____
ROOT
ATOM      1  C   UNL     1      29.971  20.201  14.718  0.00  0.00    +0.247 C 
ATOM      2  O   UNL     1      30.094  21.082  13.865  0.00  0.00    -0.270 OA
ATOM      3  N   UNL     1      30.324  18.863  14.489  0.00  0.00    -0.297 N 
ATOM      4  C   UNL     1      30.210  17.753  15.437  0.00  0.00    +0.108 C 
ATOM      5  C   UNL     1      31.520  17.012  15.628  0.00  0.00    +0.020 C 
ATOM      6  C   UNL     1      32.146  16.627  14.300  0.00  0.00    +0.011 C 
ATOM      7  C   UNL     1      32.271  17.818  13.319  0.00  0.00    -0.004 C 
ATOM      8  C   UNL     1      32.788  17.244  11.983  0.00  0.00    +0.020 C 
ATOM      9  C   UNL     1      33.492  18.325  11.193  0.00  0.00    +0.070 C 
ATOM     10  S   UNL     1      34.420  19.242  12.433  0.00  0.00    -0.160 S 
ATOM     11  C   UNL     1      33.309  18.850  13.814  0.00  0.00    +0.077 C 
ATOM     12  C   UNL     1      30.881  18.493  13.174  0.00  0.00    +0.115 C 
ENDROOT
BRANCH   1  16
ATOM     13  C   UNL     1      28.537  21.742  18.447  0.00  0.00    +0.037 A 
ATOM     14  C   UNL     1      29.913  21.580  18.259  0.00  0.00    +0.014 A 
ATOM     15  C   UNL     1      30.387  20.968  17.097  0.00  0.00    +0.014 A 
ATOM     16  C   UNL     1      29.502  20.623  16.074  0.00  0.00    +0.037 A 
ATOM     17  C   UNL     1      28.121  20.697  16.304  0.00  0.00    +0.014 A 
ATOM     18  C   UNL     1      27.640  21.246  17.497  0.00  0.00    +0.014 A 
BRANCH  13  20
ATOM     19  N   UNL     1      27.976  23.806  19.603  0.00  0.00    -0.325 N 
ATOM     20  C   UNL     1      28.003  22.440  19.647  0.00  0.00    +0.242 C 
ATOM     21  O   UNL     1      27.560  21.824  20.603  0.00  0.00    -0.270 OA
ATOM     22  H   UNL     1      27.499  24.265  20.369  0.00  0.00    +0.145 HD
ATOM     23  H   UNL     1      28.063  24.321  18.737  0.00  0.00    +0.145 HD
ENDBRANCH  13  20
ENDBRANCH   1  16
TORSDOF 2
ENDMDL
MODEL 4
REMARK VINA RESULT:      -6.5      1.431      1.849
REMARK  Name = ZINC000583127796
REMARK  2 active torsions:
REMARK  status: ('A' for Active; 'I' for Inactive)
REMARK    1  A    between atoms: C_2  and  C_4
REMARK    2  A    between atoms: C_7  and  C_8
REMARK                            x       y       z     vdW  Elec       q    Type
REMARK                         _______ _______ _______ _____ _____    ______ ____
ROOT
ATOM      1  C   UNL     1      30.776  19.628  14.301  0.00  0.00    +0.247 C 
ATOM      2  O   UNL     1      31.090  20.298  13.315  0.00  0.00    -0.270 OA
ATOM      3  N   UNL     1      31.083  18.264  14.425  0.00  0.00    -0.297 N 
ATOM      4  C   UNL     1      30.749  17.391  15.552  0.00  0.00    +0.108 C 
ATOM      5  C   UNL     1      31.963  16.682  16.121  0.00  0.00    +0.020 C 
ATOM      6  C   UNL     1      32.777  16.003  15.035  0.00  0.00    +0.011 C 
ATOM      7  C   UNL     1      33.133  16.948  13.862  0.00  0.00    -0.004 C 
ATOM      8  C   UNL     1      33.829  16.085  12.788  0.00  0.00    +0.020 C 
ATOM      9  C   UNL     1      34.716  16.952  11.923  0.00  0.00    +0.070 C 
ATOM     10  S   UNL     1      35.478  18.098  13.082  0.00  0.00    -0.160 S 
ATOM     11  C   UNL     1      34.133  18.041  14.300  0.00  0.00    +0.077 C 
ATOM     12  C   UNL     1      31.828  17.604  13.336  0.00  0.00    +0.115 C 
ENDROOT
BRANCH   1  16
ATOM     13  C   UNL     1      28.934  21.369  17.752  0.00  0.00    +0.037 A 
ATOM     14  C   UNL     1      28.136  20.999  16.666  0.00  0.00    +0.014 A 
ATOM     15  C   UNL     1      28.733  20.542  15.489  0.00  0.00    +0.014 A 
ATOM     16  C   UNL     1      30.114  20.345  15.434  0.00  0.00    +0.037 A 
ATOM     17  C   UNL     1      30.918  20.807  16.486  0.00  0.00    +0.014 A 
ATOM     18  C   UNL     1      30.327  21.330  17.640  0.00  0.00    +0.014 A 
BRANCH  13  20
ATOM     19  N   UNL     1      26.976  21.641  19.167  0.00  0.00    -0.325 N 
ATOM     20  C   UNL     1      28.327  21.806  19.038  0.00  0.00    +0.242 C 
ATOM     21  O   UNL     1      29.007  22.241  19.953  0.00  0.00    -0.270 OA
ATOM     22  H   UNL     1      26.592  21.826  20.086  0.00  0.00    +0.145 HD
ATOM     23  H   UNL     1      26.444  21.035  18.557  0.00  0.00    +0.145 HD
ENDBRANCH  13  20
ENDBRANCH   1  16
TORSDOF 2
ENDMDL
MODEL 5
REMARK VINA RESULT:      -6.3      4.011      7.553
REMARK  Name = ZINC000583127796
REMARK  2 active torsions:
REMARK  status: ('A' for Active; 'I' for Inactive)
REMARK    1  A    between atoms: C_2  and  C_4
REMARK    2  A    between atoms: C_7  and  C_8
REMARK                            x       y       z     vdW  Elec       q    Type
REMARK                         _______ _______ _______ _____ _____    ______ ____
ROOT
ATOM      1  C   UNL     1      33.098  17.318  14.303  0.00  0.00    +0.247 C 
ATOM      2  O   UNL     1      34.199  17.692  13.895  0.00  0.00    -0.270 OA
ATOM      3  N   UNL     1      32.263  18.124  15.093  0.00  0.00    -0.297 N 
ATOM      4  C   UNL     1      30.947  17.764  15.623  0.00  0.00    +0.108 C 
ATOM      5  C   UNL     1      29.872  18.768  15.250  0.00  0.00    +0.020 C 
ATOM      6  C   UNL     1      30.298  20.190  15.566  0.00  0.00    +0.011 C 
ATOM      7  C   UNL     1      31.685  20.554  14.982  0.00  0.00    -0.004 C 
ATOM      8  C   UNL     1      32.033  21.964  15.504  0.00  0.00    +0.020 C 
ATOM      9  C   UNL     1      33.013  22.634  14.566  0.00  0.00    +0.070 C 
ATOM     10  S   UNL     1      32.437  22.175  12.925  0.00  0.00    -0.160 S 
ATOM     11  C   UNL     1      31.646  20.625  13.439  0.00  0.00    +0.077 C 
ATOM     12  C   UNL     1      32.714  19.486  15.438  0.00  0.00    +0.115 C 
ENDROOT
BRANCH   1  16
ATOM     13  C   UNL     1      32.079  13.414  12.871  0.00  0.00    +0.037 A 
ATOM     14  C   UNL     1      31.565  14.536  12.216  0.00  0.00    +0.014 A 
ATOM     15  C   UNL     1      31.790  15.810  12.742  0.00  0.00    +0.014 A 
ATOM     16  C   UNL     1      32.621  15.974  13.852  0.00  0.00    +0.037 A 
ATOM     17  C   UNL     1      33.054  14.845  14.561  0.00  0.00    +0.014 A 
ATOM     18  C   UNL     1      32.771  13.564  14.076  0.00  0.00    +0.014 A 
BRANCH  13  20
ATOM     19  N   UNL     1      33.024  11.443  11.805  0.00  0.00    -0.325 N 
ATOM     20  C   UNL     1      31.905  12.048  12.306  0.00  0.00    +0.242 C 
ATOM     21  O   UNL     1      30.829  11.475  12.337  0.00  0.00    -0.270 OA
ATOM     22  H   UNL     1      32.920  10.472  11.537  0.00  0.00    +0.145 HD
ATOM     23  H   UNL     1      33.957  11.766  12.022  0.00  0.00    +0.145 HD
ENDBRANCH  13  20
ENDBRANCH   1  16
TORSDOF 2
ENDMDL
MODEL 6
REMARK VINA RESULT:      -6.2      2.072      2.346
REMARK  Name = ZINC000583127796
REMARK  2 active torsions:
REMARK  status: ('A' for Active; 'I' for Inactive)
REMARK    1  A    between atoms: C_2  and  C_4
REMARK    2  A    between atoms: C_7  and  C_8
REMARK                            x       y       z     vdW  Elec       q    Type
REMARK                         _______ _______ _______ _____ _____    ______ ____
ROOT
ATOM      1  C   UNL     1      31.568  20.695  15.124  0.00  0.00    +0.247 C 
ATOM      2  O   UNL     1      32.359  21.447  14.551  0.00  0.00    -0.270 OA
ATOM      3  N   UNL     1      31.083  19.513  14.543  0.00  0.00    -0.297 N 
ATOM      4  C   UNL     1      30.143  18.565  15.144  0.00  0.00    +0.108 C 
ATOM      5  C   UNL     1      30.677  17.144  15.159  0.00  0.00    +0.020 C 
ATOM      6  C   UNL     1      31.191  16.723  13.794  0.00  0.00    +0.011 C 
ATOM      7  C   UNL     1      32.195  17.732  13.186  0.00  0.00    -0.004 C 
ATOM      8  C   UNL     1      32.512  17.240  11.757  0.00  0.00    +0.020 C 
ATOM      9  C   UNL     1      33.862  17.764  11.318  0.00  0.00    +0.070 C 
ATOM     10  S   UNL     1      34.889  17.622  12.789  0.00  0.00    -0.160 S 
ATOM     11  C   UNL     1      33.523  17.754  13.976  0.00  0.00    +0.077 C 
ATOM     12  C   UNL     1      31.551  19.144  13.193  0.00  0.00    +0.115 C 
ENDROOT
BRANCH   1  16
ATOM     13  C   UNL     1      30.516  22.044  19.049  0.00  0.00    +0.037 A 
ATOM     14  C   UNL     1      31.779  21.487  18.835  0.00  0.00    +0.014 A 
ATOM     15  C   UNL     1      32.093  20.935  17.592  0.00  0.00    +0.014 A 
ATOM     16  C   UNL     1      31.192  21.039  16.530  0.00  0.00    +0.037 A 
ATOM     17  C   UNL     1      29.893  21.508  16.773  0.00  0.00    +0.014 A 
ATOM     18  C   UNL     1      29.552  21.999  18.037  0.00  0.00    +0.014 A 
BRANCH  13  20
ATOM     19  N   UNL     1      29.157  23.608  20.321  0.00  0.00    -0.325 N 
ATOM     20  C   UNL     1      30.170  22.690  20.344  0.00  0.00    +0.242 C 
ATOM     21  O   UNL     1      30.726  22.379  21.384  0.00  0.00    -0.270 OA
ATOM     22  H   UNL     1      28.848  23.950  21.223  0.00  0.00    +0.145 HD
ATOM     23  H   UNL     1      28.502  23.673  19.553  0.00  0.00    +0.145 HD
ENDBRANCH  13  20
ENDBRANCH   1  16
TORSDOF 2
ENDMDL
MODEL 7
REMARK VINA RESULT:      -6.2      1.841      2.805
REMARK  Name = ZINC000583127796
REMARK  2 active torsions:
REMARK  status: ('A' for Active; 'I' for Inactive)
REMARK    1  A    between atoms: C_2  and  C_4
REMARK    2  A    between atoms: C_7  and  C_8
REMARK                            x       y       z     vdW  Elec       q    Type
REMARK                         _______ _______ _______ _____ _____    ______ ____
ROOT
ATOM      1  C   UNL     1      31.439  20.134  16.195  0.00  0.00    +0.247 C 
ATOM      2  O   UNL     1      31.761  19.006  16.576  0.00  0.00    -0.270 OA
ATOM      3  N   UNL     1      32.134  20.826  15.190  0.00  0.00    -0.297 N 
ATOM      4  C   UNL     1      31.828  22.162  14.678  0.00  0.00    +0.108 C 
ATOM      5  C   UNL     1      31.657  22.185  13.170  0.00  0.00    +0.020 C 
ATOM      6  C   UNL     1      32.814  21.503  12.464  0.00  0.00    +0.011 C 
ATOM      7  C   UNL     1      33.109  20.085  13.010  0.00  0.00    -0.004 C 
ATOM      8  C   UNL     1      34.384  19.587  12.296  0.00  0.00    +0.020 C 
ATOM      9  C   UNL     1      34.415  18.074  12.290  0.00  0.00    +0.070 C 
ATOM     10  S   UNL     1      32.711  17.600  11.964  0.00  0.00    -0.160 S 
ATOM     11  C   UNL     1      31.969  19.099  12.668  0.00  0.00    +0.077 C 
ATOM     12  C   UNL     1      33.290  20.171  14.549  0.00  0.00    +0.115 C 
ENDROOT
BRANCH   1  16
ATOM     13  C   UNL     1      27.909  21.564  18.149  0.00  0.00    +0.037 A 
ATOM     14  C   UNL     1      27.794  20.942  16.903  0.00  0.00    +0.014 A 
ATOM     15  C   UNL     1      28.945  20.579  16.200  0.00  0.00    +0.014 A 
ATOM     16  C   UNL     1      30.203  20.730  16.787  0.00  0.00    +0.037 A 
ATOM     17  C   UNL     1      30.320  21.441  17.990  0.00  0.00    +0.014 A 
ATOM     18  C   UNL     1      29.172  21.868  18.664  0.00  0.00    +0.014 A 
BRANCH  13  20
ATOM     19  N   UNL     1      26.920  22.484  20.171  0.00  0.00    -0.325 N 
ATOM     20  C   UNL     1      26.702  21.913  18.947  0.00  0.00    +0.242 C 
ATOM     21  O   UNL     1      25.576  21.747  18.512  0.00  0.00    -0.270 OA
ATOM     22  H   UNL     1      26.097  22.829  20.651  0.00  0.00    +0.145 HD
ATOM     23  H   UNL     1      27.809  22.888  20.429  0.00  0.00    +0.145 HD
ENDBRANCH  13  20
ENDBRANCH   1  16
TORSDOF 2
ENDMDL
MODEL 8
REMARK VINA RESULT:      -6.2      3.546      7.004
REMARK  Name = ZINC000583127796
REMARK  2 active torsions:
REMARK  status: ('A' for Active; 'I' for Inactive)
REMARK    1  A    between atoms: C_2  and  C_4
REMARK    2  A    between atoms: C_7  and  C_8
REMARK                            x       y       z     vdW  Elec       q    Type
REMARK                         _______ _______ _______ _____ _____    ______ ____
ROOT
ATOM      1  C   UNL     1      31.776  19.941  14.094  0.00  0.00    +0.247 C 
ATOM      2  O   UNL     1      31.047  20.823  13.638  0.00  0.00    -0.270 OA
ATOM      3  N   UNL     1      32.568  20.122  15.239  0.00  0.00    -0.297 N 
ATOM      4  C   UNL     1      33.463  19.137  15.849  0.00  0.00    +0.108 C 
ATOM      5  C   UNL     1      33.169  18.914  17.321  0.00  0.00    +0.020 C 
ATOM      6  C   UNL     1      33.082  20.224  18.082  0.00  0.00    +0.011 C 
ATOM      7  C   UNL     1      32.118  21.244  17.428  0.00  0.00    -0.004 C 
ATOM      8  C   UNL     1      32.248  22.557  18.229  0.00  0.00    +0.020 C 
ATOM      9  C   UNL     1      30.986  23.379  18.082  0.00  0.00    +0.070 C 
ATOM     10  S   UNL     1      29.659  22.166  18.157  0.00  0.00    -0.160 S 
ATOM     11  C   UNL     1      30.649  20.779  17.532  0.00  0.00    +0.077 C 
ATOM     12  C   UNL     1      32.514  21.421  15.938  0.00  0.00    +0.115 C 
ENDROOT
BRANCH   1  16
ATOM     13  C   UNL     1      31.865  15.981  12.470  0.00  0.00    +0.037 A 
ATOM     14  C   UNL     1      32.597  16.992  11.842  0.00  0.00    +0.014 A 
ATOM     15  C   UNL     1      32.483  18.310  12.288  0.00  0.00    +0.014 A 
ATOM     16  C   UNL     1      31.732  18.603  13.428  0.00  0.00    +0.037 A 
ATOM     17  C   UNL     1      30.925  17.607  13.995  0.00  0.00    +0.014 A 
ATOM     18  C   UNL     1      30.983  16.297  13.507  0.00  0.00    +0.014 A 
BRANCH  13  20
ATOM     19  N   UNL     1      33.275  14.121  11.787  0.00  0.00    -0.325 N 
ATOM     20  C   UNL     1      32.007  14.558  12.055  0.00  0.00    +0.242 C 
ATOM     21  O   UNL     1      31.049  13.806  12.008  0.00  0.00    -0.270 OA
ATOM     22  H   UNL     1      33.375  13.126  11.626  0.00  0.00    +0.145 HD
ATOM     23  H   UNL     1      34.097  14.626  12.088  0.00  0.00    +0.145 HD
ENDBRANCH  13  20
ENDBRANCH   1  16
TORSDOF 2
ENDMDL
MODEL 9
REMARK VINA RESULT:      -6.1     21.563     22.944
REMARK  Name = ZINC000583127796
REMARK  2 active torsions:
REMARK  status: ('A' for Active; 'I' for Inactive)
REMARK    1  A    between atoms: C_2  and  C_4
REMARK    2  A    between atoms: C_7  and  C_8
REMARK                            x       y       z     vdW  Elec       q    Type
REMARK                         _______ _______ _______ _____ _____    ______ ____
ROOT
ATOM      1  C   UNL     1      20.448   6.303  29.667  0.00  0.00    +0.247 C 
ATOM      2  O   UNL     1      21.090   7.328  29.907  0.00  0.00    -0.270 OA
ATOM      3  N   UNL     1      21.033   5.144  29.135  0.00  0.00    -0.297 N 
ATOM      4  C   UNL     1      20.351   3.888  28.816  0.00  0.00    +0.108 C 
ATOM      5  C   UNL     1      20.994   2.688  29.486  0.00  0.00    +0.020 C 
ATOM      6  C   UNL     1      22.494   2.652  29.257  0.00  0.00    +0.011 C 
ATOM      7  C   UNL     1      23.195   3.985  29.617  0.00  0.00    -0.004 C 
ATOM      8  C   UNL     1      24.674   3.837  29.199  0.00  0.00    +0.020 C 
ATOM      9  C   UNL     1      25.537   4.778  30.012  0.00  0.00    +0.070 C 
ATOM     10  S   UNL     1      24.843   4.690  31.670  0.00  0.00    -0.160 S 
ATOM     11  C   UNL     1      23.165   4.245  31.139  0.00  0.00    +0.077 C 
ATOM     12  C   UNL     1      22.484   5.142  28.867  0.00  0.00    +0.115 C 
ENDROOT
BRANCH   1  16
ATOM     13  C   UNL     1      16.331   6.663  30.785  0.00  0.00    +0.037 A 
ATOM     14  C   UNL     1      17.241   6.123  31.698  0.00  0.00    +0.014 A 
ATOM     15  C   UNL     1      18.560   5.889  31.306  0.00  0.00    +0.014 A 
ATOM     16  C   UNL     1      19.001   6.298  30.046  0.00  0.00    +0.037 A 
ATOM     17  C   UNL     1      18.067   6.747  29.102  0.00  0.00    +0.014 A 
ATOM     18  C   UNL     1      16.729   6.918  29.470  0.00  0.00    +0.014 A 
BRANCH  13  20
ATOM     19  N   UNL     1      14.342   8.046  30.574  0.00  0.00    -0.325 N 
ATOM     20  C   UNL     1      14.933   6.977  31.188  0.00  0.00    +0.242 C 
ATOM     21  O   UNL     1      14.325   6.284  31.987  0.00  0.00    -0.270 OA
ATOM     22  H   UNL     1      13.355   8.175  30.763  0.00  0.00    +0.145 HD
ATOM     23  H   UNL     1      14.707   8.451  29.723  0.00  0.00    +0.145 HD
ENDBRANCH  13  20
ENDBRANCH   1  16
TORSDOF 2
ENDMDL
