MODEL 1
REMARK VINA RESULT:      -6.3      0.000      0.000
REMARK  Name = ZINC000583127796
REMARK  2 active torsions:
REMARK  status: ('A' for Active; 'I' for Inactive)
REMARK    1  A    between atoms: C_2  and  C_4
REMARK    2  A    between atoms: C_7  and  C_8
REMARK                            x       y       z     vdW  Elec       q    Type
REMARK                         _______ _______ _______ _____ _____    ______ ____
ROOT
ATOM      1  C   UNL     1      32.775  23.648  14.553  0.00  0.00    +0.247 C 
ATOM      2  O   UNL     1      33.782  22.947  14.473  0.00  0.00    -0.270 OA
ATOM      3  N   UNL     1      32.573  24.780  13.748  0.00  0.00    -0.297 N 
ATOM      4  C   UNL     1      31.407  25.667  13.768  0.00  0.00    +0.108 C 
ATOM      5  C   UNL     1      30.770  25.818  12.398  0.00  0.00    +0.020 C 
ATOM      6  C   UNL     1      31.798  26.183  11.343  0.00  0.00    +0.011 C 
ATOM      7  C   UNL     1      33.013  25.223  11.327  0.00  0.00    -0.004 C 
ATOM      8  C   UNL     1      34.023  25.792  10.307  0.00  0.00    +0.020 C 
ATOM      9  C   UNL     1      34.918  24.682   9.798  0.00  0.00    +0.070 C 
ATOM     10  S   UNL     1      33.804  23.286   9.579  0.00  0.00    -0.160 S 
ATOM     11  C   UNL     1      32.608  23.813  10.838  0.00  0.00    +0.077 C 
ATOM     12  C   UNL     1      33.604  25.143  12.761  0.00  0.00    +0.115 C 
ENDROOT
BRANCH   1  16
ATOM     13  C   UNL     1      29.444  22.551  17.003  0.00  0.00    +0.037 A 
ATOM     14  C   UNL     1      30.429  23.396  17.528  0.00  0.00    +0.014 A 
ATOM     15  C   UNL     1      31.579  23.670  16.784  0.00  0.00    +0.014 A 
ATOM     16  C   UNL     1      31.701  23.187  15.477  0.00  0.00    +0.037 A 
ATOM     17  C   UNL     1      30.766  22.260  14.995  0.00  0.00    +0.014 A 
ATOM     18  C   UNL     1      29.645  21.933  15.764  0.00  0.00    +0.014 A 
BRANCH  13  20
ATOM     19  N   UNL     1      27.897  23.119  18.791  0.00  0.00    -0.325 N 
ATOM     20  C   UNL     1      28.179  22.295  17.737  0.00  0.00    +0.242 C 
ATOM     21  O   UNL     1      27.401  21.422  17.382  0.00  0.00    -0.270 OA
ATOM     22  H   UNL     1      26.974  23.015  19.197  0.00  0.00    +0.145 HD
ATOM     23  H   UNL     1      28.368  24.002  18.925  0.00  0.00    +0.145 HD
ENDBRANCH  13  20
ENDBRANCH   1  16
TORSDOF 2
ENDMDL
MODEL 2
REMARK VINA RESULT:      -6.0      2.866      4.726
REMARK  Name = ZINC000583127796
REMARK  2 active torsions:
REMARK  status: ('A' for Active; 'I' for Inactive)
REMARK    1  A    between atoms: C_2  and  C_4
REMARK    2  A    between atoms: C_7  and  C_8
REMARK                            x       y       z     vdW  Elec       q    Type
REMARK                         _______ _______ _______ _____ _____    ______ ____
ROOT
ATOM      1  C   UNL     1      33.633  25.118  10.339  0.00  0.00    +0.247 C 
ATOM      2  O   UNL     1      34.218  26.198  10.279  0.00  0.00    -0.270 OA
ATOM      3  N   UNL     1      33.785  24.118   9.364  0.00  0.00    -0.297 N 
ATOM      4  C   UNL     1      33.136  22.804   9.356  0.00  0.00    +0.108 C 
ATOM      5  C   UNL     1      34.135  21.667   9.239  0.00  0.00    +0.020 C 
ATOM      6  C   UNL     1      35.093  21.884   8.082  0.00  0.00    +0.011 C 
ATOM      7  C   UNL     1      35.781  23.271   8.120  0.00  0.00    -0.004 C 
ATOM      8  C   UNL     1      36.613  23.397   6.825  0.00  0.00    +0.020 C 
ATOM      9  C   UNL     1      37.733  24.394   7.030  0.00  0.00    +0.070 C 
ATOM     10  S   UNL     1      38.331  24.046   8.692  0.00  0.00    -0.160 S 
ATOM     11  C   UNL     1      36.761  23.380   9.311  0.00  0.00    +0.077 C 
ATOM     12  C   UNL     1      34.685  24.367   8.226  0.00  0.00    +0.115 C 
ENDROOT
BRANCH   1  16
ATOM     13  C   UNL     1      31.204  24.018  13.684  0.00  0.00    +0.037 A 
ATOM     14  C   UNL     1      30.765  25.032  12.826  0.00  0.00    +0.014 A 
ATOM     15  C   UNL     1      31.597  25.483  11.798  0.00  0.00    +0.014 A 
ATOM     16  C   UNL     1      32.823  24.854  11.561  0.00  0.00    +0.037 A 
ATOM     17  C   UNL     1      33.304  23.913  12.482  0.00  0.00    +0.014 A 
ATOM     18  C   UNL     1      32.499  23.505  13.550  0.00  0.00    +0.014 A 
BRANCH  13  20
ATOM     19  N   UNL     1      30.026  24.289  15.794  0.00  0.00    -0.325 N 
ATOM     20  C   UNL     1      30.318  23.468  14.741  0.00  0.00    +0.242 C 
ATOM     21  O   UNL     1      29.830  22.351  14.647  0.00  0.00    -0.270 OA
ATOM     22  H   UNL     1      29.321  23.948  16.437  0.00  0.00    +0.145 HD
ATOM     23  H   UNL     1      30.180  25.287  15.757  0.00  0.00    +0.145 HD
ENDBRANCH  13  20
ENDBRANCH   1  16
TORSDOF 2
ENDMDL
MODEL 3
REMARK VINA RESULT:      -6.0      2.957      3.525
REMARK  Name = ZINC000583127796
REMARK  2 active torsions:
REMARK  status: ('A' for Active; 'I' for Inactive)
REMARK    1  A    between atoms: C_2  and  C_4
REMARK    2  A    between atoms: C_7  and  C_8
REMARK                            x       y       z     vdW  Elec       q    Type
REMARK                         _______ _______ _______ _____ _____    ______ ____
ROOT
ATOM      1  C   UNL     1      33.674  23.985  14.874  0.00  0.00    +0.247 C 
ATOM      2  O   UNL     1      34.849  24.307  15.037  0.00  0.00    -0.270 OA
ATOM      3  N   UNL     1      32.693  24.892  14.440  0.00  0.00    -0.297 N 
ATOM      4  C   UNL     1      31.275  24.599  14.212  0.00  0.00    +0.108 C 
ATOM      5  C   UNL     1      30.821  24.986  12.816  0.00  0.00    +0.020 C 
ATOM      6  C   UNL     1      31.213  26.413  12.478  0.00  0.00    +0.011 C 
ATOM      7  C   UNL     1      32.718  26.696  12.709  0.00  0.00    -0.004 C 
ATOM      8  C   UNL     1      32.937  28.203  12.454  0.00  0.00    +0.020 C 
ATOM      9  C   UNL     1      34.382  28.456  12.083  0.00  0.00    +0.070 C 
ATOM     10  S   UNL     1      34.801  27.085  10.994  0.00  0.00    -0.160 S 
ATOM     11  C   UNL     1      33.596  25.925  11.697  0.00  0.00    +0.077 C 
ATOM     12  C   UNL     1      33.086  26.283  14.161  0.00  0.00    +0.115 C 
ENDROOT
BRANCH   1  16
ATOM     13  C   UNL     1      32.366  19.925  15.191  0.00  0.00    +0.037 A 
ATOM     14  C   UNL     1      32.361  20.735  16.332  0.00  0.00    +0.014 A 
ATOM     15  C   UNL     1      32.893  22.025  16.272  0.00  0.00    +0.014 A 
ATOM     16  C   UNL     1      33.334  22.546  15.051  0.00  0.00    +0.037 A 
ATOM     17  C   UNL     1      33.434  21.700  13.937  0.00  0.00    +0.014 A 
ATOM     18  C   UNL     1      32.961  20.387  14.012  0.00  0.00    +0.014 A 
BRANCH  13  20
ATOM     19  N   UNL     1      31.730  17.891  14.019  0.00  0.00    -0.325 N 
ATOM     20  C   UNL     1      31.745  18.575  15.202  0.00  0.00    +0.242 C 
ATOM     21  O   UNL     1      31.317  18.079  16.233  0.00  0.00    -0.270 OA
ATOM     22  H   UNL     1      31.423  16.927  14.071  0.00  0.00    +0.145 HD
ATOM     23  H   UNL     1      32.315  18.153  13.238  0.00  0.00    +0.145 HD
ENDBRANCH  13  20
ENDBRANCH   1  16
TORSDOF 2
ENDMDL
MODEL 4
REMARK VINA RESULT:      -5.9      5.084      5.899
REMARK  Name = ZINC000583127796
REMARK  2 active torsions:
REMARK  status: ('A' for Active; 'I' for Inactive)
REMARK    1  A    between atoms: C_2  and  C_4
REMARK    2  A    between atoms: C_7  and  C_8
REMARK                            x       y       z     vdW  Elec       q    Type
REMARK                         _______ _______ _______ _____ _____    ______ ____
ROOT
ATOM      1  C   UNL     1      34.094  19.625  15.886  0.00  0.00    +0.247 C 
ATOM      2  O   UNL     1      34.784  19.105  16.762  0.00  0.00    -0.270 OA
ATOM      3  N   UNL     1      34.389  19.505  14.518  0.00  0.00    -0.297 N 
ATOM      4  C   UNL     1      33.624  20.081  13.409  0.00  0.00    +0.108 C 
ATOM      5  C   UNL     1      33.211  19.037  12.387  0.00  0.00    +0.020 C 
ATOM      6  C   UNL     1      34.393  18.194  11.943  0.00  0.00    +0.011 C 
ATOM      7  C   UNL     1      35.177  17.581  13.129  0.00  0.00    -0.004 C 
ATOM      8  C   UNL     1      36.412  16.871  12.535  0.00  0.00    +0.020 C 
ATOM      9  C   UNL     1      36.889  15.792  13.483  0.00  0.00    +0.070 C 
ATOM     10  S   UNL     1      35.372  15.036  14.086  0.00  0.00    -0.160 S 
ATOM     11  C   UNL     1      34.337  16.510  13.863  0.00  0.00    +0.077 C 
ATOM     12  C   UNL     1      35.566  18.720  14.111  0.00  0.00    +0.115 C 
ENDROOT
BRANCH   1  16
ATOM     13  C   UNL     1      30.431  21.650  16.766  0.00  0.00    +0.037 A 
ATOM     14  C   UNL     1      31.646  22.300  17.011  0.00  0.00    +0.014 A 
ATOM     15  C   UNL     1      32.850  21.612  16.839  0.00  0.00    +0.014 A 
ATOM     16  C   UNL     1      32.847  20.312  16.325  0.00  0.00    +0.037 A 
ATOM     17  C   UNL     1      31.631  19.630  16.180  0.00  0.00    +0.014 A 
ATOM     18  C   UNL     1      30.424  20.296  16.413  0.00  0.00    +0.014 A 
BRANCH  13  20
ATOM     19  N   UNL     1      29.140  23.699  16.543  0.00  0.00    -0.325 N 
ATOM     20  C   UNL     1      29.137  22.372  16.871  0.00  0.00    +0.242 C 
ATOM     21  O   UNL     1      28.107  21.794  17.185  0.00  0.00    -0.270 OA
ATOM     22  H   UNL     1      28.231  24.144  16.495  0.00  0.00    +0.145 HD
ATOM     23  H   UNL     1      29.895  24.123  16.023  0.00  0.00    +0.145 HD
ENDBRANCH  13  20
ENDBRANCH   1  16
TORSDOF 2
ENDMDL
MODEL 5
REMARK VINA RESULT:      -5.7      4.109      6.877
REMARK  Name = ZINC000583127796
REMARK  2 active torsions:
REMARK  status: ('A' for Active; 'I' for Inactive)
REMARK    1  A    between atoms: C_2  and  C_4
REMARK    2  A    between atoms: C_7  and  C_8
REMARK                            x       y       z     vdW  Elec       q    Type
REMARK                         _______ _______ _______ _____ _____    ______ ____
ROOT
ATOM      1  C   UNL     1      34.240  21.952  14.939  0.00  0.00    +0.247 C 
ATOM      2  O   UNL     1      35.326  22.218  15.450  0.00  0.00    -0.270 OA
ATOM      3  N   UNL     1      33.619  20.700  15.084  0.00  0.00    -0.297 N 
ATOM      4  C   UNL     1      32.328  20.297  14.519  0.00  0.00    +0.108 C 
ATOM      5  C   UNL     1      31.373  19.774  15.576  0.00  0.00    +0.020 C 
ATOM      6  C   UNL     1      32.024  18.707  16.437  0.00  0.00    +0.011 C 
ATOM      7  C   UNL     1      33.377  19.160  17.038  0.00  0.00    -0.004 C 
ATOM      8  C   UNL     1      33.976  17.940  17.770  0.00  0.00    +0.020 C 
ATOM      9  C   UNL     1      34.943  18.405  18.838  0.00  0.00    +0.070 C 
ATOM     10  S   UNL     1      34.132  19.836  19.569  0.00  0.00    -0.160 S 
ATOM     11  C   UNL     1      33.179  20.277  18.089  0.00  0.00    +0.077 C 
ATOM     12  C   UNL     1      34.290  19.665  15.887  0.00  0.00    +0.115 C 
ENDROOT
BRANCH   1  16
ATOM     13  C   UNL     1      31.882  24.934  12.978  0.00  0.00    +0.037 A 
ATOM     14  C   UNL     1      32.693  24.092  12.210  0.00  0.00    +0.014 A 
ATOM     15  C   UNL     1      33.555  23.192  12.841  0.00  0.00    +0.014 A 
ATOM     16  C   UNL     1      33.535  23.058  14.233  0.00  0.00    +0.037 A 
ATOM     17  C   UNL     1      32.801  23.972  15.002  0.00  0.00    +0.014 A 
ATOM     18  C   UNL     1      31.984  24.917  14.374  0.00  0.00    +0.014 A 
BRANCH  13  20
ATOM     19  N   UNL     1      29.841  26.250  13.102  0.00  0.00    -0.325 N 
ATOM     20  C   UNL     1      30.903  25.852  12.340  0.00  0.00    +0.242 C 
ATOM     21  O   UNL     1      31.070  26.273  11.206  0.00  0.00    -0.270 OA
ATOM     22  H   UNL     1      29.256  26.973  12.700  0.00  0.00    +0.145 HD
ATOM     23  H   UNL     1      29.830  26.147  14.107  0.00  0.00    +0.145 HD
ENDBRANCH  13  20
ENDBRANCH   1  16
TORSDOF 2
ENDMDL
MODEL 6
REMARK VINA RESULT:      -5.7      4.597      5.751
REMARK  Name = ZINC000583127796
REMARK  2 active torsions:
REMARK  status: ('A' for Active; 'I' for Inactive)
REMARK    1  A    between atoms: C_2  and  C_4
REMARK    2  A    between atoms: C_7  and  C_8
REMARK                            x       y       z     vdW  Elec       q    Type
REMARK                         _______ _______ _______ _____ _____    ______ ____
ROOT
ATOM      1  C   UNL     1      31.116  20.267  15.176  0.00  0.00    +0.247 C 
ATOM      2  O   UNL     1      30.778  20.601  14.042  0.00  0.00    -0.270 OA
ATOM      3  N   UNL     1      31.806  19.074  15.442  0.00  0.00    -0.297 N 
ATOM      4  C   UNL     1      32.253  18.600  16.755  0.00  0.00    +0.108 C 
ATOM      5  C   UNL     1      33.739  18.291  16.783  0.00  0.00    +0.020 C 
ATOM      6  C   UNL     1      34.143  17.384  15.635  0.00  0.00    +0.011 C 
ATOM      7  C   UNL     1      33.676  17.913  14.256  0.00  0.00    -0.004 C 
ATOM      8  C   UNL     1      34.037  16.833  13.213  0.00  0.00    +0.020 C 
ATOM      9  C   UNL     1      34.168  17.465  11.844  0.00  0.00    +0.070 C 
ATOM     10  S   UNL     1      35.022  19.018  12.158  0.00  0.00    -0.160 S 
ATOM     11  C   UNL     1      34.433  19.203  13.864  0.00  0.00    +0.077 C 
ATOM     12  C   UNL     1      32.148  18.186  14.318  0.00  0.00    +0.115 C 
ENDROOT
BRANCH   1  16
ATOM     13  C   UNL     1      30.274  23.322  18.050  0.00  0.00    +0.037 A 
ATOM     14  C   UNL     1      31.604  22.969  17.799  0.00  0.00    +0.014 A 
ATOM     15  C   UNL     1      31.892  21.897  16.951  0.00  0.00    +0.014 A 
ATOM     16  C   UNL     1      30.858  21.242  16.274  0.00  0.00    +0.037 A 
ATOM     17  C   UNL     1      29.527  21.527  16.607  0.00  0.00    +0.014 A 
ATOM     18  C   UNL     1      29.236  22.559  17.504  0.00  0.00    +0.014 A 
BRANCH  13  20
ATOM     19  N   UNL     1      28.791  24.421  19.633  0.00  0.00    -0.325 N 
ATOM     20  C   UNL     1      29.935  24.500  18.890  0.00  0.00    +0.242 C 
ATOM     21  O   UNL     1      30.673  25.471  18.953  0.00  0.00    -0.270 OA
ATOM     22  H   UNL     1      28.642  25.174  20.295  0.00  0.00    +0.145 HD
ATOM     23  H   UNL     1      28.325  23.543  19.814  0.00  0.00    +0.145 HD
ENDBRANCH  13  20
ENDBRANCH   1  16
TORSDOF 2
ENDMDL
MODEL 7
REMARK VINA RESULT:      -5.7      4.120      7.342
REMARK  Name = ZINC000583127796
REMARK  2 active torsions:
REMARK  status: ('A' for Active; 'I' for Inactive)
REMARK    1  A    between atoms: C_2  and  C_4
REMARK    2  A    between atoms: C_7  and  C_8
REMARK                            x       y       z     vdW  Elec       q    Type
REMARK                         _______ _______ _______ _____ _____    ______ ____
ROOT
ATOM      1  C   UNL     1      33.329  23.648  17.062  0.00  0.00    +0.247 C 
ATOM      2  O   UNL     1      34.542  23.461  17.136  0.00  0.00    -0.270 OA
ATOM      3  N   UNL     1      32.471  23.504  18.164  0.00  0.00    -0.297 N 
ATOM      4  C   UNL     1      31.020  23.712  18.171  0.00  0.00    +0.108 C 
ATOM      5  C   UNL     1      30.584  24.705  19.233  0.00  0.00    +0.020 C 
ATOM      6  C   UNL     1      31.158  24.354  20.593  0.00  0.00    +0.011 C 
ATOM      7  C   UNL     1      32.694  24.156  20.567  0.00  0.00    -0.004 C 
ATOM      8  C   UNL     1      33.112  23.679  21.974  0.00  0.00    +0.020 C 
ATOM      9  C   UNL     1      34.566  24.017  22.220  0.00  0.00    +0.070 C 
ATOM     10  S   UNL     1      34.760  25.661  21.515  0.00  0.00    -0.160 S 
ATOM     11  C   UNL     1      33.427  25.490  20.295  0.00  0.00    +0.077 C 
ATOM     12  C   UNL     1      33.043  23.119  19.464  0.00  0.00    +0.115 C 
ENDROOT
BRANCH   1  16
ATOM     13  C   UNL     1      31.562  25.309  13.538  0.00  0.00    +0.037 A 
ATOM     14  C   UNL     1      31.290  23.979  13.876  0.00  0.00    +0.014 A 
ATOM     15  C   UNL     1      31.948  23.387  14.956  0.00  0.00    +0.014 A 
ATOM     16  C   UNL     1      32.800  24.149  15.762  0.00  0.00    +0.037 A 
ATOM     17  C   UNL     1      33.150  25.446  15.361  0.00  0.00    +0.014 A 
ATOM     18  C   UNL     1      32.540  26.021  14.243  0.00  0.00    +0.014 A 
BRANCH  13  20
ATOM     19  N   UNL     1      29.619  26.545  12.756  0.00  0.00    -0.325 N 
ATOM     20  C   UNL     1      30.828  25.990  12.440  0.00  0.00    +0.242 C 
ATOM     21  O   UNL     1      31.308  26.095  11.322  0.00  0.00    -0.270 OA
ATOM     22  H   UNL     1      29.194  27.115  12.033  0.00  0.00    +0.145 HD
ATOM     23  H   UNL     1      29.338  26.717  13.710  0.00  0.00    +0.145 HD
ENDBRANCH  13  20
ENDBRANCH   1  16
TORSDOF 2
ENDMDL
MODEL 8
REMARK VINA RESULT:      -5.7      4.199      5.297
REMARK  Name = ZINC000583127796
REMARK  2 active torsions:
REMARK  status: ('A' for Active; 'I' for Inactive)
REMARK    1  A    between atoms: C_2  and  C_4
REMARK    2  A    between atoms: C_7  and  C_8
REMARK                            x       y       z     vdW  Elec       q    Type
REMARK                         _______ _______ _______ _____ _____    ______ ____
ROOT
ATOM      1  C   UNL     1      32.825  21.133  14.132  0.00  0.00    +0.247 C 
ATOM      2  O   UNL     1      33.783  21.898  14.037  0.00  0.00    -0.270 OA
ATOM      3  N   UNL     1      32.783  19.885  13.489  0.00  0.00    -0.297 N 
ATOM      4  C   UNL     1      31.691  18.910  13.550  0.00  0.00    +0.108 C 
ATOM      5  C   UNL     1      32.165  17.539  13.999  0.00  0.00    +0.020 C 
ATOM      6  C   UNL     1      33.359  17.070  13.189  0.00  0.00    +0.011 C 
ATOM      7  C   UNL     1      34.508  18.108  13.152  0.00  0.00    -0.004 C 
ATOM      8  C   UNL     1      35.585  17.554  12.194  0.00  0.00    +0.020 C 
ATOM      9  C   UNL     1      36.931  18.159  12.532  0.00  0.00    +0.070 C 
ATOM     10  S   UNL     1      36.965  18.176  14.331  0.00  0.00    -0.160 S 
ATOM     11  C   UNL     1      35.165  18.268  14.542  0.00  0.00    +0.077 C 
ATOM     12  C   UNL     1      33.934  19.469  12.671  0.00  0.00    +0.115 C 
ENDROOT
BRANCH   1  16
ATOM     13  C   UNL     1      29.510  21.937  16.714  0.00  0.00    +0.037 A 
ATOM     14  C   UNL     1      29.615  22.629  15.503  0.00  0.00    +0.014 A 
ATOM     15  C   UNL     1      30.749  22.464  14.703  0.00  0.00    +0.014 A 
ATOM     16  C   UNL     1      31.729  21.533  15.059  0.00  0.00    +0.037 A 
ATOM     17  C   UNL     1      31.672  20.921  16.319  0.00  0.00    +0.014 A 
ATOM     18  C   UNL     1      30.569  21.133  17.151  0.00  0.00    +0.014 A 
BRANCH  13  20
ATOM     19  N   UNL     1      28.192  23.117  18.382  0.00  0.00    -0.325 N 
ATOM     20  C   UNL     1      28.288  22.035  17.553  0.00  0.00    +0.242 C 
ATOM     21  O   UNL     1      27.387  21.214  17.466  0.00  0.00    -0.270 OA
ATOM     22  H   UNL     1      27.301  23.238  18.849  0.00  0.00    +0.145 HD
ATOM     23  H   UNL     1      28.772  23.936  18.268  0.00  0.00    +0.145 HD
ENDBRANCH  13  20
ENDBRANCH   1  16
TORSDOF 2
ENDMDL
MODEL 9
REMARK VINA RESULT:      -5.6      1.780      2.027
REMARK  Name = ZINC000583127796
REMARK  2 active torsions:
REMARK  status: ('A' for Active; 'I' for Inactive)
REMARK    1  A    between atoms: C_2  and  C_4
REMARK    2  A    between atoms: C_7  and  C_8
REMARK                            x       y       z     vdW  Elec       q    Type
REMARK                         _______ _______ _______ _____ _____    ______ ____
ROOT
ATOM      1  C   UNL     1      33.769  24.536  14.489  0.00  0.00    +0.247 C 
ATOM      2  O   UNL     1      34.771  23.843  14.320  0.00  0.00    -0.270 OA
ATOM      3  N   UNL     1      33.245  25.370  13.488  0.00  0.00    -0.297 N 
ATOM      4  C   UNL     1      32.058  26.221  13.597  0.00  0.00    +0.108 C 
ATOM      5  C   UNL     1      31.046  25.947  12.498  0.00  0.00    +0.020 C 
ATOM      6  C   UNL     1      31.694  25.973  11.126  0.00  0.00    +0.011 C 
ATOM      7  C   UNL     1      32.936  25.052  11.027  0.00  0.00    -0.004 C 
ATOM      8  C   UNL     1      33.558  25.282   9.633  0.00  0.00    +0.020 C 
ATOM      9  C   UNL     1      34.367  24.069   9.226  0.00  0.00    +0.070 C 
ATOM     10  S   UNL     1      33.368  22.674   9.767  0.00  0.00    -0.160 S 
ATOM     11  C   UNL     1      32.537  23.561  11.115  0.00  0.00    +0.077 C 
ATOM     12  C   UNL     1      33.915  25.413  12.178  0.00  0.00    +0.115 C 
ENDROOT
BRANCH   1  16
ATOM     13  C   UNL     1      31.407  24.291  18.047  0.00  0.00    +0.037 A 
ATOM     14  C   UNL     1      32.530  25.125  18.030  0.00  0.00    +0.014 A 
ATOM     15  C   UNL     1      33.377  25.129  16.919  0.00  0.00    +0.014 A 
ATOM     16  C   UNL     1      33.049  24.380  15.784  0.00  0.00    +0.037 A 
ATOM     17  C   UNL     1      31.985  23.469  15.844  0.00  0.00    +0.014 A 
ATOM     18  C   UNL     1      31.172  23.417  16.980  0.00  0.00    +0.014 A 
BRANCH  13  20
ATOM     19  N   UNL     1      29.132  24.099  18.884  0.00  0.00    -0.325 N 
ATOM     20  C   UNL     1      30.448  24.314  19.182  0.00  0.00    +0.242 C 
ATOM     21  O   UNL     1      30.827  24.465  20.333  0.00  0.00    -0.270 OA
ATOM     22  H   UNL     1      28.512  23.990  19.678  0.00  0.00    +0.145 HD
ATOM     23  H   UNL     1      28.837  23.700  18.004  0.00  0.00    +0.145 HD
ENDBRANCH  13  20
ENDBRANCH   1  16
TORSDOF 2
ENDMDL
