MODEL 1
REMARK VINA RESULT:      -6.9      0.000      0.000
REMARK  Name = ZINC000329563636
REMARK  3 active torsions:
REMARK  status: ('A' for Active; 'I' for Inactive)
REMARK    1  A    between atoms: C_1  and  C_2
REMARK    2  A    between atoms: C_2  and  N_3
REMARK    3  A    between atoms: N_9  and  C_10
REMARK                            x       y       z     vdW  Elec       q    Type
REMARK                         _______ _______ _______ _____ _____    ______ ____
ROOT
ATOM      1  C   UNL     1      31.539  23.773  13.284  0.00  0.00    +0.112 C 
ATOM      2  C   UNL     1      30.267  22.950  13.519  0.00  0.00    +0.075 C 
ATOM      3  C   UNL     1      30.238  22.166  14.839  0.00  0.00    +0.113 C 
ATOM      4  C   UNL     1      29.766  22.983  16.070  0.00  0.00    +0.048 C 
ATOM      5  C   UNL     1      28.413  22.409  16.471  0.00  0.00    +0.004 C 
ATOM      6  C   UNL     1      28.497  20.953  16.057  0.00  0.00    +0.004 C 
ATOM      7  C   UNL     1      29.195  21.025  14.710  0.00  0.00    +0.048 C 
ATOM      8  O   UNL     1      31.507  21.546  15.123  0.00  0.00    -0.485 OA
ATOM      9  C   UNL     1      32.543  22.442  15.165  0.00  0.00    +0.126 A 
ATOM     10  C   UNL     1      33.559  22.204  16.090  0.00  0.00    +0.046 A 
ATOM     11  C   UNL     1      34.620  23.103  16.209  0.00  0.00    +0.004 A 
ATOM     12  C   UNL     1      34.676  24.226  15.385  0.00  0.00    +0.001 A 
ATOM     13  C   UNL     1      33.674  24.443  14.439  0.00  0.00    +0.009 A 
ATOM     14  C   UNL     1      32.597  23.549  14.323  0.00  0.00    +0.015 A 
ENDROOT
BRANCH   1  21
ATOM     15  N   UNL     1      34.660  23.753   7.792  0.00  0.00    -0.299 N 
ATOM     16  C   UNL     1      34.066  25.031   8.181  0.00  0.00    +0.127 C 
ATOM     17  C   UNL     1      32.616  24.864   8.623  0.00  0.00    +0.129 C 
ATOM     18  N   UNL     1      32.571  23.934   9.741  0.00  0.00    -0.275 N 
ATOM     19  C   UNL     1      32.082  24.371  10.952  0.00  0.00    +0.303 C 
ATOM     20  O   UNL     1      31.683  25.521  11.126  0.00  0.00    -0.253 OA
ATOM     21  N   UNL     1      32.093  23.459  11.965  0.00  0.00    -0.292 N 
ATOM     22  C   UNL     1      33.145  22.616   9.454  0.00  0.00    +0.205 C 
ATOM     23  C   UNL     1      34.305  22.569   8.435  0.00  0.00    +0.233 C 
ATOM     24  O   UNL     1      34.861  21.495   8.190  0.00  0.00    -0.274 OA
ATOM     25  H   UNL     1      32.077  22.481  11.723  0.00  0.00    +0.151 HD
BRANCH  15  27
ATOM     26  C   UNL     1      35.567  23.778   5.484  0.00  0.00    +0.024 C 
ATOM     27  C   UNL     1      35.869  23.777   6.976  0.00  0.00    +0.104 C 
ENDBRANCH  15  27
ENDBRANCH   1  21
TORSDOF 2
ENDMDL
MODEL 2
REMARK VINA RESULT:      -6.8      5.783      8.892
REMARK  Name = ZINC000329563636
REMARK  3 active torsions:
REMARK  status: ('A' for Active; 'I' for Inactive)
REMARK    1  A    between atoms: C_1  and  C_2
REMARK    2  A    between atoms: C_2  and  N_3
REMARK    3  A    between atoms: N_9  and  C_10
REMARK                            x       y       z     vdW  Elec       q    Type
REMARK                         _______ _______ _______ _____ _____    ______ ____
ROOT
ATOM      1  C   UNL     1      34.344  23.071  18.308  0.00  0.00    +0.112 C 
ATOM      2  C   UNL     1      34.911  24.333  18.968  0.00  0.00    +0.075 C 
ATOM      3  C   UNL     1      35.826  24.077  20.173  0.00  0.00    +0.113 C 
ATOM      4  C   UNL     1      37.305  23.773  19.814  0.00  0.00    +0.048 C 
ATOM      5  C   UNL     1      38.117  24.969  20.297  0.00  0.00    +0.004 C 
ATOM      6  C   UNL     1      37.336  25.483  21.490  0.00  0.00    +0.004 C 
ATOM      7  C   UNL     1      35.894  25.373  21.022  0.00  0.00    +0.048 C 
ATOM      8  O   UNL     1      35.310  23.039  21.030  0.00  0.00    -0.485 OA
ATOM      9  C   UNL     1      35.106  21.855  20.372  0.00  0.00    +0.126 A 
ATOM     10  C   UNL     1      35.350  20.679  21.080  0.00  0.00    +0.046 A 
ATOM     11  C   UNL     1      35.200  19.441  20.451  0.00  0.00    +0.004 A 
ATOM     12  C   UNL     1      34.783  19.382  19.123  0.00  0.00    +0.001 A 
ATOM     13  C   UNL     1      34.508  20.560  18.429  0.00  0.00    +0.009 A 
ATOM     14  C   UNL     1      34.669  21.809  19.050  0.00  0.00    +0.015 A 
ENDROOT
BRANCH   1  21
ATOM     15  N   UNL     1      28.218  22.273  16.987  0.00  0.00    -0.299 N 
ATOM     16  C   UNL     1      29.145  22.010  15.888  0.00  0.00    +0.127 C 
ATOM     17  C   UNL     1      30.167  23.132  15.734  0.00  0.00    +0.129 C 
ATOM     18  N   UNL     1      30.902  23.270  16.983  0.00  0.00    -0.275 N 
ATOM     19  C   UNL     1      32.265  23.073  16.978  0.00  0.00    +0.303 C 
ATOM     20  O   UNL     1      32.886  22.781  15.957  0.00  0.00    -0.253 OA
ATOM     21  N   UNL     1      32.890  23.189  18.184  0.00  0.00    -0.292 N 
ATOM     22  C   UNL     1      30.061  23.536  18.153  0.00  0.00    +0.205 C 
ATOM     23  C   UNL     1      28.638  22.937  18.139  0.00  0.00    +0.233 C 
ATOM     24  O   UNL     1      27.901  23.085  19.117  0.00  0.00    -0.274 OA
ATOM     25  H   UNL     1      32.452  23.755  18.893  0.00  0.00    +0.151 HD
BRANCH  15  27
ATOM     26  C   UNL     1      27.151  20.073  17.394  0.00  0.00    +0.024 C 
ATOM     27  C   UNL     1      26.960  21.535  17.017  0.00  0.00    +0.104 C 
ENDBRANCH  15  27
ENDBRANCH   1  21
TORSDOF 2
ENDMDL
MODEL 3
REMARK VINA RESULT:      -6.6      5.225      8.201
REMARK  Name = ZINC000329563636
REMARK  3 active torsions:
REMARK  status: ('A' for Active; 'I' for Inactive)
REMARK    1  A    between atoms: C_1  and  C_2
REMARK    2  A    between atoms: C_2  and  N_3
REMARK    3  A    between atoms: N_9  and  C_10
REMARK                            x       y       z     vdW  Elec       q    Type
REMARK                         _______ _______ _______ _____ _____    ______ ____
ROOT
ATOM      1  C   UNL     1      33.713  23.643  16.414  0.00  0.00    +0.112 C 
ATOM      2  C   UNL     1      34.000  25.147  16.346  0.00  0.00    +0.075 C 
ATOM      3  C   UNL     1      35.072  25.645  17.327  0.00  0.00    +0.113 C 
ATOM      4  C   UNL     1      36.533  25.487  16.829  0.00  0.00    +0.048 C 
ATOM      5  C   UNL     1      37.054  26.898  16.581  0.00  0.00    +0.004 C 
ATOM      6  C   UNL     1      36.296  27.749  17.580  0.00  0.00    +0.004 C 
ATOM      7  C   UNL     1      34.891  27.174  17.515  0.00  0.00    +0.048 C 
ATOM      8  O   UNL     1      34.932  25.042  18.628  0.00  0.00    -0.485 OA
ATOM      9  C   UNL     1      34.974  23.672  18.589  0.00  0.00    +0.126 A 
ATOM     10  C   UNL     1      35.585  23.020  19.658  0.00  0.00    +0.046 A 
ATOM     11  C   UNL     1      35.695  21.628  19.657  0.00  0.00    +0.004 A 
ATOM     12  C   UNL     1      35.171  20.890  18.597  0.00  0.00    +0.001 A 
ATOM     13  C   UNL     1      34.530  21.546  17.545  0.00  0.00    +0.009 A 
ATOM     14  C   UNL     1      34.428  22.946  17.534  0.00  0.00    +0.015 A 
ENDROOT
BRANCH   1  21
ATOM     15  N   UNL     1      27.883  21.233  16.753  0.00  0.00    -0.299 N 
ATOM     16  C   UNL     1      28.710  20.745  15.650  0.00  0.00    +0.127 C 
ATOM     17  C   UNL     1      29.385  21.891  14.905  0.00  0.00    +0.129 C 
ATOM     18  N   UNL     1      30.203  22.643  15.844  0.00  0.00    -0.275 N 
ATOM     19  C   UNL     1      31.561  22.726  15.628  0.00  0.00    +0.303 C 
ATOM     20  O   UNL     1      32.111  22.183  14.671  0.00  0.00    -0.253 OA
ATOM     21  N   UNL     1      32.273  23.422  16.560  0.00  0.00    -0.292 N 
ATOM     22  C   UNL     1      29.465  23.179  16.992  0.00  0.00    +0.205 C 
ATOM     23  C   UNL     1      28.251  22.362  17.483  0.00  0.00    +0.233 C 
ATOM     24  O   UNL     1      27.621  22.736  18.476  0.00  0.00    -0.274 OA
ATOM     25  H   UNL     1      31.791  24.124  17.097  0.00  0.00    +0.151 HD
BRANCH  15  27
ATOM     26  C   UNL     1      27.300  18.880  17.272  0.00  0.00    +0.024 C 
ATOM     27  C   UNL     1      26.868  20.339  17.299  0.00  0.00    +0.104 C 
ENDBRANCH  15  27
ENDBRANCH   1  21
TORSDOF 2
ENDMDL
MODEL 4
REMARK VINA RESULT:      -6.6      3.892      8.548
REMARK  Name = ZINC000329563636
REMARK  3 active torsions:
REMARK  status: ('A' for Active; 'I' for Inactive)
REMARK    1  A    between atoms: C_1  and  C_2
REMARK    2  A    between atoms: C_2  and  N_3
REMARK    3  A    between atoms: N_9  and  C_10
REMARK                            x       y       z     vdW  Elec       q    Type
REMARK                         _______ _______ _______ _____ _____    ______ ____
ROOT
ATOM      1  C   UNL     1      32.090  23.668  15.549  0.00  0.00    +0.112 C 
ATOM      2  C   UNL     1      32.957  23.885  14.303  0.00  0.00    +0.075 C 
ATOM      3  C   UNL     1      32.403  23.262  13.014  0.00  0.00    +0.113 C 
ATOM      4  C   UNL     1      31.360  24.133  12.266  0.00  0.00    +0.048 C 
ATOM      5  C   UNL     1      32.027  24.583  10.972  0.00  0.00    +0.004 C 
ATOM      6  C   UNL     1      32.988  23.456  10.645  0.00  0.00    +0.004 C 
ATOM      7  C   UNL     1      33.570  23.105  12.004  0.00  0.00    +0.048 C 
ATOM      8  O   UNL     1      31.864  21.944  13.242  0.00  0.00    -0.485 OA
ATOM      9  C   UNL     1      30.882  21.926  14.197  0.00  0.00    +0.126 A 
ATOM     10  C   UNL     1      29.825  21.036  14.012  0.00  0.00    +0.046 A 
ATOM     11  C   UNL     1      28.773  21.001  14.930  0.00  0.00    +0.004 A 
ATOM     12  C   UNL     1      28.793  21.838  16.042  0.00  0.00    +0.001 A 
ATOM     13  C   UNL     1      29.868  22.705  16.240  0.00  0.00    +0.009 A 
ATOM     14  C   UNL     1      30.923  22.756  15.315  0.00  0.00    +0.015 A 
ENDROOT
BRANCH   1  21
ATOM     15  N   UNL     1      34.783  22.255  21.086  0.00  0.00    -0.299 N 
ATOM     16  C   UNL     1      34.525  23.674  20.848  0.00  0.00    +0.127 C 
ATOM     17  C   UNL     1      35.009  24.109  19.469  0.00  0.00    +0.129 C 
ATOM     18  N   UNL     1      34.333  23.305  18.461  0.00  0.00    -0.275 N 
ATOM     19  C   UNL     1      33.537  23.935  17.530  0.00  0.00    +0.303 C 
ATOM     20  O   UNL     1      33.371  25.153  17.520  0.00  0.00    -0.253 OA
ATOM     21  N   UNL     1      32.911  23.123  16.632  0.00  0.00    -0.292 N 
ATOM     22  C   UNL     1      34.529  21.860  18.611  0.00  0.00    +0.205 C 
ATOM     23  C   UNL     1      34.716  21.327  20.048  0.00  0.00    +0.233 C 
ATOM     24  O   UNL     1      34.835  20.115  20.241  0.00  0.00    -0.274 OA
ATOM     25  H   UNL     1      33.324  22.224  16.436  0.00  0.00    +0.151 HD
BRANCH  15  27
ATOM     26  C   UNL     1      33.364  21.760  23.058  0.00  0.00    +0.024 C 
ATOM     27  C   UNL     1      34.765  21.774  22.463  0.00  0.00    +0.104 C 
ENDBRANCH  15  27
ENDBRANCH   1  21
TORSDOF 2
ENDMDL
MODEL 5
REMARK VINA RESULT:      -6.3      2.006      4.304
REMARK  Name = ZINC000329563636
REMARK  3 active torsions:
REMARK  status: ('A' for Active; 'I' for Inactive)
REMARK    1  A    between atoms: C_1  and  C_2
REMARK    2  A    between atoms: C_2  and  N_3
REMARK    3  A    between atoms: N_9  and  C_10
REMARK                            x       y       z     vdW  Elec       q    Type
REMARK                         _______ _______ _______ _____ _____    ______ ____
ROOT
ATOM      1  C   UNL     1      32.667  22.400  15.350  0.00  0.00    +0.112 C 
ATOM      2  C   UNL     1      33.573  23.122  16.353  0.00  0.00    +0.075 C 
ATOM      3  C   UNL     1      32.883  23.552  17.655  0.00  0.00    +0.113 C 
ATOM      4  C   UNL     1      32.799  22.449  18.742  0.00  0.00    +0.048 C 
ATOM      5  C   UNL     1      33.725  22.889  19.871  0.00  0.00    +0.004 C 
ATOM      6  C   UNL     1      33.687  24.403  19.805  0.00  0.00    +0.004 C 
ATOM      7  C   UNL     1      33.728  24.676  18.310  0.00  0.00    +0.048 C 
ATOM      8  O   UNL     1      31.571  24.099  17.413  0.00  0.00    -0.485 OA
ATOM      9  C   UNL     1      30.747  23.234  16.743  0.00  0.00    +0.126 A 
ATOM     10  C   UNL     1      29.394  23.248  17.079  0.00  0.00    +0.046 A 
ATOM     11  C   UNL     1      28.512  22.360  16.460  0.00  0.00    +0.004 A 
ATOM     12  C   UNL     1      28.980  21.478  15.488  0.00  0.00    +0.001 A 
ATOM     13  C   UNL     1      30.329  21.491  15.131  0.00  0.00    +0.009 A 
ATOM     14  C   UNL     1      31.224  22.371  15.759  0.00  0.00    +0.015 A 
ENDROOT
BRANCH   1  21
ATOM     15  N   UNL     1      33.005  23.713   9.180  0.00  0.00    -0.299 N 
ATOM     16  C   UNL     1      33.773  22.551   9.626  0.00  0.00    +0.127 C 
ATOM     17  C   UNL     1      34.602  22.868  10.866  0.00  0.00    +0.129 C 
ATOM     18  N   UNL     1      33.710  23.311  11.926  0.00  0.00    -0.275 N 
ATOM     19  C   UNL     1      33.652  22.586  13.095  0.00  0.00    +0.303 C 
ATOM     20  O   UNL     1      34.326  21.573  13.277  0.00  0.00    -0.253 OA
ATOM     21  N   UNL     1      32.777  23.038  14.037  0.00  0.00    -0.292 N 
ATOM     22  C   UNL     1      32.891  24.477  11.579  0.00  0.00    +0.205 C 
ATOM     23  C   UNL     1      32.490  24.629  10.096  0.00  0.00    +0.233 C 
ATOM     24  O   UNL     1      31.761  25.562   9.751  0.00  0.00    -0.274 OA
ATOM     25  H   UNL     1      32.524  24.013  14.020  0.00  0.00    +0.151 HD
BRANCH  15  27
ATOM     26  C   UNL     1      33.395  24.475   6.853  0.00  0.00    +0.024 C 
ATOM     27  C   UNL     1      32.492  23.716   7.815  0.00  0.00    +0.104 C 
ENDBRANCH  15  27
ENDBRANCH   1  21
TORSDOF 2
ENDMDL
MODEL 6
REMARK VINA RESULT:      -6.3      4.320      8.343
REMARK  Name = ZINC000329563636
REMARK  3 active torsions:
REMARK  status: ('A' for Active; 'I' for Inactive)
REMARK    1  A    between atoms: C_1  and  C_2
REMARK    2  A    between atoms: C_2  and  N_3
REMARK    3  A    between atoms: N_9  and  C_10
REMARK                            x       y       z     vdW  Elec       q    Type
REMARK                         _______ _______ _______ _____ _____    ______ ____
ROOT
ATOM      1  C   UNL     1      32.857  20.360  13.337  0.00  0.00    +0.112 C 
ATOM      2  C   UNL     1      34.100  20.047  12.497  0.00  0.00    +0.075 C 
ATOM      3  C   UNL     1      34.124  18.643  11.875  0.00  0.00    +0.113 C 
ATOM      4  C   UNL     1      33.359  18.514  10.532  0.00  0.00    +0.048 C 
ATOM      5  C   UNL     1      34.417  18.282   9.458  0.00  0.00    +0.004 C 
ATOM      6  C   UNL     1      35.527  17.555  10.191  0.00  0.00    +0.004 C 
ATOM      7  C   UNL     1      35.592  18.290  11.519  0.00  0.00    +0.048 C 
ATOM      8  O   UNL     1      33.662  17.638  12.799  0.00  0.00    -0.485 OA
ATOM      9  C   UNL     1      32.401  17.888  13.273  0.00  0.00    +0.126 A 
ATOM     10  C   UNL     1      31.574  16.790  13.504  0.00  0.00    +0.046 A 
ATOM     11  C   UNL     1      30.264  16.982  13.948  0.00  0.00    +0.004 A 
ATOM     12  C   UNL     1      29.792  18.272  14.183  0.00  0.00    +0.001 A 
ATOM     13  C   UNL     1      30.634  19.366  13.982  0.00  0.00    +0.009 A 
ATOM     14  C   UNL     1      31.948  19.181  13.523  0.00  0.00    +0.015 A 
ENDROOT
BRANCH   1  21
ATOM     15  N   UNL     1      33.129  22.922  19.104  0.00  0.00    -0.299 N 
ATOM     16  C   UNL     1      32.357  23.669  18.112  0.00  0.00    +0.127 C 
ATOM     17  C   UNL     1      33.123  23.822  16.803  0.00  0.00    +0.129 C 
ATOM     18  N   UNL     1      33.443  22.498  16.290  0.00  0.00    -0.275 N 
ATOM     19  C   UNL     1      32.948  22.122  15.061  0.00  0.00    +0.303 C 
ATOM     20  O   UNL     1      32.241  22.863  14.380  0.00  0.00    -0.253 OA
ATOM     21  N   UNL     1      33.262  20.860  14.651  0.00  0.00    -0.292 N 
ATOM     22  C   UNL     1      34.220  21.665  17.213  0.00  0.00    +0.205 C 
ATOM     23  C   UNL     1      33.983  21.889  18.722  0.00  0.00    +0.233 C 
ATOM     24  O   UNL     1      34.571  21.184  19.546  0.00  0.00    -0.274 OA
ATOM     25  H   UNL     1      34.093  20.432  15.028  0.00  0.00    +0.151 HD
BRANCH  15  27
ATOM     26  C   UNL     1      31.356  22.452  20.772  0.00  0.00    +0.024 C 
ATOM     27  C   UNL     1      32.738  23.032  20.505  0.00  0.00    +0.104 C 
ENDBRANCH  15  27
ENDBRANCH   1  21
TORSDOF 2
ENDMDL
MODEL 7
REMARK VINA RESULT:      -6.2      5.406      7.533
REMARK  Name = ZINC000329563636
REMARK  3 active torsions:
REMARK  status: ('A' for Active; 'I' for Inactive)
REMARK    1  A    between atoms: C_1  and  C_2
REMARK    2  A    between atoms: C_2  and  N_3
REMARK    3  A    between atoms: N_9  and  C_10
REMARK                            x       y       z     vdW  Elec       q    Type
REMARK                         _______ _______ _______ _____ _____    ______ ____
ROOT
ATOM      1  C   UNL     1      34.707  22.486  17.165  0.00  0.00    +0.112 C 
ATOM      2  C   UNL     1      34.818  23.946  16.712  0.00  0.00    +0.075 C 
ATOM      3  C   UNL     1      34.615  24.986  17.824  0.00  0.00    +0.113 C 
ATOM      4  C   UNL     1      35.882  25.297  18.663  0.00  0.00    +0.048 C 
ATOM      5  C   UNL     1      36.284  26.727  18.317  0.00  0.00    +0.004 C 
ATOM      6  C   UNL     1      34.970  27.403  17.977  0.00  0.00    +0.004 C 
ATOM      7  C   UNL     1      34.244  26.341  17.167  0.00  0.00    +0.048 C 
ATOM      8  O   UNL     1      33.526  24.631  18.699  0.00  0.00    -0.485 OA
ATOM      9  C   UNL     1      33.683  23.397  19.274  0.00  0.00    +0.126 A 
ATOM     10  C   UNL     1      33.224  23.236  20.580  0.00  0.00    +0.046 A 
ATOM     11  C   UNL     1      33.392  22.013  21.233  0.00  0.00    +0.004 A 
ATOM     12  C   UNL     1      33.997  20.948  20.570  0.00  0.00    +0.001 A 
ATOM     13  C   UNL     1      34.425  21.104  19.251  0.00  0.00    +0.009 A 
ATOM     14  C   UNL     1      34.271  22.334  18.592  0.00  0.00    +0.015 A 
ENDROOT
BRANCH   1  21
ATOM     15  N   UNL     1      30.964  18.234  14.370  0.00  0.00    -0.299 N 
ATOM     16  C   UNL     1      32.292  17.757  14.754  0.00  0.00    +0.127 C 
ATOM     17  C   UNL     1      33.385  18.722  14.309  0.00  0.00    +0.129 C 
ATOM     18  N   UNL     1      33.132  20.025  14.906  0.00  0.00    -0.275 N 
ATOM     19  C   UNL     1      34.074  20.563  15.754  0.00  0.00    +0.303 C 
ATOM     20  O   UNL     1      35.123  19.983  16.029  0.00  0.00    -0.253 OA
ATOM     21  N   UNL     1      33.764  21.773  16.301  0.00  0.00    -0.292 N 
ATOM     22  C   UNL     1      31.821  20.594  14.581  0.00  0.00    +0.205 C 
ATOM     23  C   UNL     1      30.666  19.595  14.350  0.00  0.00    +0.233 C 
ATOM     24  O   UNL     1      29.529  20.015  14.122  0.00  0.00    -0.274 OA
ATOM     25  H   UNL     1      33.114  22.364  15.809  0.00  0.00    +0.151 HD
BRANCH  15  27
ATOM     26  C   UNL     1      29.291  17.013  15.733  0.00  0.00    +0.024 C 
ATOM     27  C   UNL     1      29.868  17.271  14.349  0.00  0.00    +0.104 C 
ENDBRANCH  15  27
ENDBRANCH   1  21
TORSDOF 2
ENDMDL
MODEL 8
REMARK VINA RESULT:      -6.2      2.878      7.668
REMARK  Name = ZINC000329563636
REMARK  3 active torsions:
REMARK  status: ('A' for Active; 'I' for Inactive)
REMARK    1  A    between atoms: C_1  and  C_2
REMARK    2  A    between atoms: C_2  and  N_3
REMARK    3  A    between atoms: N_9  and  C_10
REMARK                            x       y       z     vdW  Elec       q    Type
REMARK                         _______ _______ _______ _____ _____    ______ ____
ROOT
ATOM      1  C   UNL     1      33.115  23.834  10.900  0.00  0.00    +0.112 C 
ATOM      2  C   UNL     1      34.096  24.788  11.591  0.00  0.00    +0.075 C 
ATOM      3  C   UNL     1      35.234  25.303  10.699  0.00  0.00    +0.113 C 
ATOM      4  C   UNL     1      34.871  26.535   9.828  0.00  0.00    +0.048 C 
ATOM      5  C   UNL     1      35.674  27.705  10.386  0.00  0.00    +0.004 C 
ATOM      6  C   UNL     1      36.925  27.056  10.945  0.00  0.00    +0.004 C 
ATOM      7  C   UNL     1      36.385  25.802  11.612  0.00  0.00    +0.048 C 
ATOM      8  O   UNL     1      35.779  24.261   9.867  0.00  0.00    -0.485 OA
ATOM      9  C   UNL     1      34.835  23.662   9.074  0.00  0.00    +0.126 A 
ATOM     10  C   UNL     1      35.232  23.255   7.801  0.00  0.00    +0.046 A 
ATOM     11  C   UNL     1      34.304  22.677   6.932  0.00  0.00    +0.004 A 
ATOM     12  C   UNL     1      32.989  22.483   7.347  0.00  0.00    +0.001 A 
ATOM     13  C   UNL     1      32.604  22.862   8.634  0.00  0.00    +0.009 A 
ATOM     14  C   UNL     1      33.527  23.456   9.509  0.00  0.00    +0.015 A 
ENDROOT
BRANCH   1  21
ATOM     15  N   UNL     1      30.984  18.770  14.018  0.00  0.00    -0.299 N 
ATOM     16  C   UNL     1      30.198  19.992  14.178  0.00  0.00    +0.127 C 
ATOM     17  C   UNL     1      31.084  21.191  14.501  0.00  0.00    +0.129 C 
ATOM     18  N   UNL     1      32.053  21.359  13.428  0.00  0.00    -0.275 N 
ATOM     19  C   UNL     1      32.052  22.533  12.707  0.00  0.00    +0.303 C 
ATOM     20  O   UNL     1      31.258  23.445  12.933  0.00  0.00    -0.253 OA
ATOM     21  N   UNL     1      32.965  22.616  11.699  0.00  0.00    -0.292 N 
ATOM     22  C   UNL     1      32.896  20.184  13.185  0.00  0.00    +0.205 C 
ATOM     23  C   UNL     1      32.264  18.804  13.467  0.00  0.00    +0.233 C 
ATOM     24  O   UNL     1      32.907  17.777  13.234  0.00  0.00    -0.274 OA
ATOM     25  H   UNL     1      33.797  22.050  11.764  0.00  0.00    +0.151 HD
BRANCH  15  27
ATOM     26  C   UNL     1      29.541  17.328  15.426  0.00  0.00    +0.024 C 
ATOM     27  C   UNL     1      30.291  17.489  14.112  0.00  0.00    +0.104 C 
ENDBRANCH  15  27
ENDBRANCH   1  21
TORSDOF 2
ENDMDL
MODEL 9
REMARK VINA RESULT:      -6.2      3.513      7.796
REMARK  Name = ZINC000329563636
REMARK  3 active torsions:
REMARK  status: ('A' for Active; 'I' for Inactive)
REMARK    1  A    between atoms: C_1  and  C_2
REMARK    2  A    between atoms: C_2  and  N_3
REMARK    3  A    between atoms: N_9  and  C_10
REMARK                            x       y       z     vdW  Elec       q    Type
REMARK                         _______ _______ _______ _____ _____    ______ ____
ROOT
ATOM      1  C   UNL     1      32.563  23.849  15.190  0.00  0.00    +0.112 C 
ATOM      2  C   UNL     1      33.054  24.295  13.809  0.00  0.00    +0.075 C 
ATOM      3  C   UNL     1      32.102  23.973  12.648  0.00  0.00    +0.113 C 
ATOM      4  C   UNL     1      30.973  25.014  12.426  0.00  0.00    +0.048 C 
ATOM      5  C   UNL     1      31.282  25.704  11.102  0.00  0.00    +0.004 C 
ATOM      6  C   UNL     1      32.003  24.641  10.296  0.00  0.00    +0.004 C 
ATOM      7  C   UNL     1      32.914  23.995  11.327  0.00  0.00    +0.048 C 
ATOM      8  O   UNL     1      31.533  22.655  12.770  0.00  0.00    -0.485 OA
ATOM      9  C   UNL     1      30.865  22.468  13.953  0.00  0.00    +0.126 A 
ATOM     10  C   UNL     1      29.723  21.669  13.924  0.00  0.00    +0.046 A 
ATOM     11  C   UNL     1      28.978  21.475  15.089  0.00  0.00    +0.004 A 
ATOM     12  C   UNL     1      29.390  22.060  16.284  0.00  0.00    +0.001 A 
ATOM     13  C   UNL     1      30.552  22.832  16.314  0.00  0.00    +0.009 A 
ATOM     14  C   UNL     1      31.299  23.043  15.145  0.00  0.00    +0.015 A 
ENDROOT
BRANCH   1  21
ATOM     15  N   UNL     1      36.032  20.410  19.196  0.00  0.00    -0.299 N 
ATOM     16  C   UNL     1      35.316  21.542  19.784  0.00  0.00    +0.127 C 
ATOM     17  C   UNL     1      35.515  22.816  18.971  0.00  0.00    +0.129 C 
ATOM     18  N   UNL     1      35.047  22.583  17.613  0.00  0.00    -0.275 N 
ATOM     19  C   UNL     1      34.014  23.351  17.123  0.00  0.00    +0.303 C 
ATOM     20  O   UNL     1      33.468  24.227  17.792  0.00  0.00    -0.253 OA
ATOM     21  N   UNL     1      33.605  23.064  15.855  0.00  0.00    -0.292 N 
ATOM     22  C   UNL     1      35.705  21.464  16.931  0.00  0.00    +0.205 C 
ATOM     23  C   UNL     1      36.175  20.289  17.815  0.00  0.00    +0.233 C 
ATOM     24  O   UNL     1      36.690  19.298  17.293  0.00  0.00    -0.274 OA
ATOM     25  H   UNL     1      34.264  22.625  15.232  0.00  0.00    +0.151 HD
BRANCH  15  27
ATOM     26  C   UNL     1      35.121  18.267  20.045  0.00  0.00    +0.024 C 
ATOM     27  C   UNL     1      36.286  19.246  20.036  0.00  0.00    +0.104 C 
ENDBRANCH  15  27
ENDBRANCH   1  21
TORSDOF 2
ENDMDL
