MODEL 1
REMARK VINA RESULT:      -6.6      0.000      0.000
REMARK  Name = ZINC000329563636
REMARK  3 active torsions:
REMARK  status: ('A' for Active; 'I' for Inactive)
REMARK    1  A    between atoms: C_1  and  C_2
REMARK    2  A    between atoms: C_2  and  N_3
REMARK    3  A    between atoms: N_9  and  C_10
REMARK                            x       y       z     vdW  Elec       q    Type
REMARK                         _______ _______ _______ _____ _____    ______ ____
ROOT
ATOM      1  C   UNL     1      33.146  16.597  14.006  0.00  0.00    +0.112 C 
ATOM      2  C   UNL     1      31.803  15.887  13.802  0.00  0.00    +0.075 C 
ATOM      3  C   UNL     1      31.742  14.959  12.581  0.00  0.00    +0.113 C 
ATOM      4  C   UNL     1      32.299  13.531  12.820  0.00  0.00    +0.048 C 
ATOM      5  C   UNL     1      31.101  12.590  12.762  0.00  0.00    +0.004 C 
ATOM      6  C   UNL     1      30.145  13.274  11.805  0.00  0.00    +0.004 C 
ATOM      7  C   UNL     1      30.252  14.735  12.209  0.00  0.00    +0.048 C 
ATOM      8  O   UNL     1      32.379  15.544  11.428  0.00  0.00    -0.485 OA
ATOM      9  C   UNL     1      33.687  15.885  11.656  0.00  0.00    +0.126 A 
ATOM     10  C   UNL     1      34.583  15.732  10.600  0.00  0.00    +0.046 A 
ATOM     11  C   UNL     1      35.936  16.024  10.783  0.00  0.00    +0.004 A 
ATOM     12  C   UNL     1      36.385  16.492  12.016  0.00  0.00    +0.001 A 
ATOM     13  C   UNL     1      35.479  16.675  13.061  0.00  0.00    +0.009 A 
ATOM     14  C   UNL     1      34.120  16.371  12.888  0.00  0.00    +0.015 A 
ENDROOT
BRANCH   1  21
ATOM     15  N   UNL     1      33.567  22.756  15.350  0.00  0.00    -0.299 N 
ATOM     16  C   UNL     1      33.990  21.843  16.411  0.00  0.00    +0.127 C 
ATOM     17  C   UNL     1      32.968  20.734  16.638  0.00  0.00    +0.129 C 
ATOM     18  N   UNL     1      32.787  20.001  15.394  0.00  0.00    -0.275 N 
ATOM     19  C   UNL     1      33.090  18.658  15.363  0.00  0.00    +0.303 C 
ATOM     20  O   UNL     1      33.512  18.053  16.347  0.00  0.00    -0.253 OA
ATOM     21  N   UNL     1      32.925  18.036  14.161  0.00  0.00    -0.292 N 
ATOM     22  C   UNL     1      32.362  20.829  14.262  0.00  0.00    +0.205 C 
ATOM     23  C   UNL     1      32.846  22.295  14.249  0.00  0.00    +0.233 C 
ATOM     24  O   UNL     1      32.562  23.026  13.297  0.00  0.00    -0.274 OA
ATOM     25  H   UNL     1      32.271  18.434  13.506  0.00  0.00    +0.151 HD
BRANCH  15  27
ATOM     26  C   UNL     1      34.259  24.761  16.633  0.00  0.00    +0.024 C 
ATOM     27  C   UNL     1      34.200  24.068  15.279  0.00  0.00    +0.104 C 
ENDBRANCH  15  27
ENDBRANCH   1  21
TORSDOF 2
ENDMDL
MODEL 2
REMARK VINA RESULT:      -6.5      2.214      8.399
REMARK  Name = ZINC000329563636
REMARK  3 active torsions:
REMARK  status: ('A' for Active; 'I' for Inactive)
REMARK    1  A    between atoms: C_1  and  C_2
REMARK    2  A    between atoms: C_2  and  N_3
REMARK    3  A    between atoms: N_9  and  C_10
REMARK                            x       y       z     vdW  Elec       q    Type
REMARK                         _______ _______ _______ _____ _____    ______ ____
ROOT
ATOM      1  C   UNL     1      34.678  21.254  16.163  0.00  0.00    +0.112 C 
ATOM      2  C   UNL     1      35.406  22.597  16.032  0.00  0.00    +0.075 C 
ATOM      3  C   UNL     1      34.524  23.835  16.249  0.00  0.00    +0.113 C 
ATOM      4  C   UNL     1      34.331  24.244  17.733  0.00  0.00    +0.048 C 
ATOM      5  C   UNL     1      35.072  25.565  17.911  0.00  0.00    +0.004 C 
ATOM      6  C   UNL     1      34.985  26.220  16.547  0.00  0.00    +0.004 C 
ATOM      7  C   UNL     1      35.224  25.056  15.599  0.00  0.00    +0.048 C 
ATOM      8  O   UNL     1      33.239  23.697  15.610  0.00  0.00    -0.485 OA
ATOM      9  C   UNL     1      32.551  22.588  16.026  0.00  0.00    +0.126 A 
ATOM     10  C   UNL     1      31.165  22.695  16.130  0.00  0.00    +0.046 A 
ATOM     11  C   UNL     1      30.413  21.612  16.588  0.00  0.00    +0.004 A 
ATOM     12  C   UNL     1      31.046  20.416  16.918  0.00  0.00    +0.001 A 
ATOM     13  C   UNL     1      32.430  20.302  16.782  0.00  0.00    +0.009 A 
ATOM     14  C   UNL     1      33.194  21.392  16.335  0.00  0.00    +0.015 A 
ENDROOT
BRANCH   1  21
ATOM     15  N   UNL     1      35.051  16.647  11.857  0.00  0.00    -0.299 N 
ATOM     16  C   UNL     1      35.276  16.241  13.244  0.00  0.00    +0.127 C 
ATOM     17  C   UNL     1      36.258  17.171  13.948  0.00  0.00    +0.129 C 
ATOM     18  N   UNL     1      35.732  18.527  13.906  0.00  0.00    -0.275 N 
ATOM     19  C   UNL     1      35.463  19.175  15.091  0.00  0.00    +0.303 C 
ATOM     20  O   UNL     1      35.647  18.648  16.187  0.00  0.00    -0.253 OA
ATOM     21  N   UNL     1      34.945  20.431  14.982  0.00  0.00    -0.292 N 
ATOM     22  C   UNL     1      35.470  19.032  12.554  0.00  0.00    +0.205 C 
ATOM     23  C   UNL     1      35.055  17.992  11.491  0.00  0.00    +0.233 C 
ATOM     24  O   UNL     1      34.773  18.362  10.349  0.00  0.00    -0.274 OA
ATOM     25  H   UNL     1      35.137  20.951  14.140  0.00  0.00    +0.151 HD
BRANCH  15  27
ATOM     26  C   UNL     1      33.217  15.021  11.486  0.00  0.00    +0.024 C 
ATOM     27  C   UNL     1      34.481  15.668  10.938  0.00  0.00    +0.104 C 
ENDBRANCH  15  27
ENDBRANCH   1  21
TORSDOF 2
ENDMDL
MODEL 3
REMARK VINA RESULT:      -6.4      2.443      7.774
REMARK  Name = ZINC000329563636
REMARK  3 active torsions:
REMARK  status: ('A' for Active; 'I' for Inactive)
REMARK    1  A    between atoms: C_1  and  C_2
REMARK    2  A    between atoms: C_2  and  N_3
REMARK    3  A    between atoms: N_9  and  C_10
REMARK                            x       y       z     vdW  Elec       q    Type
REMARK                         _______ _______ _______ _____ _____    ______ ____
ROOT
ATOM      1  C   UNL     1      33.736  19.335  14.483  0.00  0.00    +0.112 C 
ATOM      2  C   UNL     1      32.522  20.270  14.470  0.00  0.00    +0.075 C 
ATOM      3  C   UNL     1      32.137  20.849  15.839  0.00  0.00    +0.113 C 
ATOM      4  C   UNL     1      32.930  22.114  16.258  0.00  0.00    +0.048 C 
ATOM      5  C   UNL     1      31.935  23.269  16.234  0.00  0.00    +0.004 C 
ATOM      6  C   UNL     1      30.609  22.616  16.569  0.00  0.00    +0.004 C 
ATOM      7  C   UNL     1      30.660  21.322  15.775  0.00  0.00    +0.048 C 
ATOM      8  O   UNL     1      32.215  19.857  16.883  0.00  0.00    -0.485 OA
ATOM      9  C   UNL     1      33.455  19.282  16.981  0.00  0.00    +0.126 A 
ATOM     10  C   UNL     1      33.905  18.945  18.256  0.00  0.00    +0.046 A 
ATOM     11  C   UNL     1      35.177  18.393  18.425  0.00  0.00    +0.004 A 
ATOM     12  C   UNL     1      35.985  18.157  17.315  0.00  0.00    +0.001 A 
ATOM     13  C   UNL     1      35.517  18.465  16.037  0.00  0.00    +0.009 A 
ATOM     14  C   UNL     1      34.244  19.033  15.861  0.00  0.00    +0.015 A 
ENDROOT
BRANCH   1  21
ATOM     15  N   UNL     1      33.790  13.715  11.597  0.00  0.00    -0.299 N 
ATOM     16  C   UNL     1      34.796  14.674  11.142  0.00  0.00    +0.127 C 
ATOM     17  C   UNL     1      34.183  16.044  10.871  0.00  0.00    +0.129 C 
ATOM     18  N   UNL     1      33.554  16.525  12.092  0.00  0.00    -0.275 N 
ATOM     19  C   UNL     1      34.008  17.696  12.658  0.00  0.00    +0.303 C 
ATOM     20  O   UNL     1      34.929  18.350  12.172  0.00  0.00    -0.253 OA
ATOM     21  N   UNL     1      33.396  18.077  13.815  0.00  0.00    -0.292 N 
ATOM     22  C   UNL     1      32.526  15.632  12.634  0.00  0.00    +0.205 C 
ATOM     23  C   UNL     1      32.718  14.120  12.390  0.00  0.00    +0.233 C 
ATOM     24  O   UNL     1      31.912  13.315  12.865  0.00  0.00    -0.274 OA
ATOM     25  H   UNL     1      32.458  17.749  13.986  0.00  0.00    +0.151 HD
BRANCH  15  27
ATOM     26  C   UNL     1      34.963  11.959  10.298  0.00  0.00    +0.024 C 
ATOM     27  C   UNL     1      34.107  12.294  11.511  0.00  0.00    +0.104 C 
ENDBRANCH  15  27
ENDBRANCH   1  21
TORSDOF 2
ENDMDL
MODEL 4
REMARK VINA RESULT:      -6.3      4.647      8.510
REMARK  Name = ZINC000329563636
REMARK  3 active torsions:
REMARK  status: ('A' for Active; 'I' for Inactive)
REMARK    1  A    between atoms: C_1  and  C_2
REMARK    2  A    between atoms: C_2  and  N_3
REMARK    3  A    between atoms: N_9  and  C_10
REMARK                            x       y       z     vdW  Elec       q    Type
REMARK                         _______ _______ _______ _____ _____    ______ ____
ROOT
ATOM      1  C   UNL     1      35.090  22.677  14.132  0.00  0.00    +0.112 C 
ATOM      2  C   UNL     1      35.216  23.948  14.980  0.00  0.00    +0.075 C 
ATOM      3  C   UNL     1      34.358  23.963  16.254  0.00  0.00    +0.113 C 
ATOM      4  C   UNL     1      34.998  23.255  17.477  0.00  0.00    +0.048 C 
ATOM      5  C   UNL     1      35.324  24.351  18.484  0.00  0.00    +0.004 C 
ATOM      6  C   UNL     1      34.270  25.410  18.226  0.00  0.00    +0.004 C 
ATOM      7  C   UNL     1      34.182  25.436  16.709  0.00  0.00    +0.048 C 
ATOM      8  O   UNL     1      33.038  23.435  16.019  0.00  0.00    -0.485 OA
ATOM      9  C   UNL     1      33.054  22.161  15.514  0.00  0.00    +0.126 A 
ATOM     10  C   UNL     1      32.040  21.297  15.923  0.00  0.00    +0.046 A 
ATOM     11  C   UNL     1      32.026  19.974  15.476  0.00  0.00    +0.004 A 
ATOM     12  C   UNL     1      33.013  19.526  14.600  0.00  0.00    +0.001 A 
ATOM     13  C   UNL     1      34.008  20.404  14.167  0.00  0.00    +0.009 A 
ATOM     14  C   UNL     1      34.036  21.731  14.624  0.00  0.00    +0.015 A 
ENDROOT
BRANCH   1  21
ATOM     15  N   UNL     1      34.951  23.239   7.842  0.00  0.00    -0.299 N 
ATOM     16  C   UNL     1      36.281  23.211   8.449  0.00  0.00    +0.127 C 
ATOM     17  C   UNL     1      36.377  24.163   9.636  0.00  0.00    +0.129 C 
ATOM     18  N   UNL     1      35.373  23.785  10.620  0.00  0.00    -0.275 N 
ATOM     19  C   UNL     1      35.784  23.405  11.878  0.00  0.00    +0.303 C 
ATOM     20  O   UNL     1      36.970  23.369  12.203  0.00  0.00    -0.253 OA
ATOM     21  N   UNL     1      34.796  23.038  12.744  0.00  0.00    -0.292 N 
ATOM     22  C   UNL     1      33.998  23.782  10.110  0.00  0.00    +0.205 C 
ATOM     23  C   UNL     1      33.810  23.431   8.618  0.00  0.00    +0.233 C 
ATOM     24  O   UNL     1      32.673  23.363   8.144  0.00  0.00    -0.274 OA
ATOM     25  H   UNL     1      33.871  23.404  12.591  0.00  0.00    +0.151 HD
BRANCH  15  27
ATOM     26  C   UNL     1      34.900  21.202   6.429  0.00  0.00    +0.024 C 
ATOM     27  C   UNL     1      34.803  22.720   6.486  0.00  0.00    +0.104 C 
ENDBRANCH  15  27
ENDBRANCH   1  21
TORSDOF 2
ENDMDL
MODEL 5
REMARK VINA RESULT:      -6.1      4.446      6.308
REMARK  Name = ZINC000329563636
REMARK  3 active torsions:
REMARK  status: ('A' for Active; 'I' for Inactive)
REMARK    1  A    between atoms: C_1  and  C_2
REMARK    2  A    between atoms: C_2  and  N_3
REMARK    3  A    between atoms: N_9  and  C_10
REMARK                            x       y       z     vdW  Elec       q    Type
REMARK                         _______ _______ _______ _____ _____    ______ ____
ROOT
ATOM      1  C   UNL     1      34.672  20.016  13.196  0.00  0.00    +0.112 C 
ATOM      2  C   UNL     1      33.749  20.757  14.170  0.00  0.00    +0.075 C 
ATOM      3  C   UNL     1      32.842  19.851  15.015  0.00  0.00    +0.113 C 
ATOM      4  C   UNL     1      33.504  19.283  16.298  0.00  0.00    +0.048 C 
ATOM      5  C   UNL     1      32.806  19.956  17.474  0.00  0.00    +0.004 C 
ATOM      6  C   UNL     1      31.405  20.226  16.961  0.00  0.00    +0.004 C 
ATOM      7  C   UNL     1      31.653  20.699  15.538  0.00  0.00    +0.048 C 
ATOM      8  O   UNL     1      32.281  18.775  14.238  0.00  0.00    -0.485 OA
ATOM      9  C   UNL     1      33.235  18.000  13.632  0.00  0.00    +0.126 A 
ATOM     10  C   UNL     1      32.976  16.635  13.522  0.00  0.00    +0.046 A 
ATOM     11  C   UNL     1      33.928  15.787  12.952  0.00  0.00    +0.004 A 
ATOM     12  C   UNL     1      35.126  16.311  12.470  0.00  0.00    +0.001 A 
ATOM     13  C   UNL     1      35.367  17.683  12.552  0.00  0.00    +0.009 A 
ATOM     14  C   UNL     1      34.420  18.539  13.137  0.00  0.00    +0.015 A 
ENDROOT
BRANCH   1  21
ATOM     15  N   UNL     1      35.559  22.550   7.477  0.00  0.00    -0.299 N 
ATOM     16  C   UNL     1      36.343  23.139   8.562  0.00  0.00    +0.127 C 
ATOM     17  C   UNL     1      35.475  23.445   9.778  0.00  0.00    +0.129 C 
ATOM     18  N   UNL     1      34.850  22.211  10.230  0.00  0.00    -0.275 N 
ATOM     19  C   UNL     1      35.119  21.753  11.501  0.00  0.00    +0.303 C 
ATOM     20  O   UNL     1      35.873  22.348  12.270  0.00  0.00    -0.253 OA
ATOM     21  N   UNL     1      34.524  20.578  11.852  0.00  0.00    -0.292 N 
ATOM     22  C   UNL     1      34.038  21.537   9.212  0.00  0.00    +0.205 C 
ATOM     23  C   UNL     1      34.485  21.703   7.743  0.00  0.00    +0.233 C 
ATOM     24  O   UNL     1      33.870  21.120   6.846  0.00  0.00    -0.274 OA
ATOM     25  H   UNL     1      33.675  20.316  11.377  0.00  0.00    +0.151 HD
BRANCH  15  27
ATOM     26  C   UNL     1      35.908  23.908   5.433  0.00  0.00    +0.024 C 
ATOM     27  C   UNL     1      36.122  22.573   6.131  0.00  0.00    +0.104 C 
ENDBRANCH  15  27
ENDBRANCH   1  21
TORSDOF 2
ENDMDL
MODEL 6
REMARK VINA RESULT:      -6.0      3.624      6.750
REMARK  Name = ZINC000329563636
REMARK  3 active torsions:
REMARK  status: ('A' for Active; 'I' for Inactive)
REMARK    1  A    between atoms: C_1  and  C_2
REMARK    2  A    between atoms: C_2  and  N_3
REMARK    3  A    between atoms: N_9  and  C_10
REMARK                            x       y       z     vdW  Elec       q    Type
REMARK                         _______ _______ _______ _____ _____    ______ ____
ROOT
ATOM      1  C   UNL     1      34.386  21.209  16.065  0.00  0.00    +0.112 C 
ATOM      2  C   UNL     1      34.645  19.717  15.829  0.00  0.00    +0.075 C 
ATOM      3  C   UNL     1      33.382  18.858  15.674  0.00  0.00    +0.113 C 
ATOM      4  C   UNL     1      32.782  18.835  14.243  0.00  0.00    +0.048 C 
ATOM      5  C   UNL     1      33.000  17.424  13.711  0.00  0.00    +0.004 C 
ATOM      6  C   UNL     1      32.969  16.556  14.953  0.00  0.00    +0.004 C 
ATOM      7  C   UNL     1      33.755  17.380  15.959  0.00  0.00    +0.048 C 
ATOM      8  O   UNL     1      32.362  19.225  16.624  0.00  0.00    -0.485 OA
ATOM      9  C   UNL     1      32.009  20.547  16.545  0.00  0.00    +0.126 A 
ATOM     10  C   UNL     1      30.672  20.867  16.776  0.00  0.00    +0.046 A 
ATOM     11  C   UNL     1      30.242  22.192  16.668  0.00  0.00    +0.004 A 
ATOM     12  C   UNL     1      31.156  23.196  16.355  0.00  0.00    +0.001 A 
ATOM     13  C   UNL     1      32.499  22.875  16.157  0.00  0.00    +0.009 A 
ATOM     14  C   UNL     1      32.936  21.543  16.250  0.00  0.00    +0.015 A 
ENDROOT
BRANCH   1  21
ATOM     15  N   UNL     1      36.970  24.501  20.797  0.00  0.00    -0.299 N 
ATOM     16  C   UNL     1      36.966  25.160  19.491  0.00  0.00    +0.127 C 
ATOM     17  C   UNL     1      37.471  24.232  18.392  0.00  0.00    +0.129 C 
ATOM     18  N   UNL     1      36.627  23.048  18.354  0.00  0.00    -0.275 N 
ATOM     19  C   UNL     1      35.925  22.766  17.203  0.00  0.00    +0.303 C 
ATOM     20  O   UNL     1      35.983  23.482  16.204  0.00  0.00    -0.253 OA
ATOM     21  N   UNL     1      35.132  21.658  17.242  0.00  0.00    -0.292 N 
ATOM     22  C   UNL     1      36.562  22.311  19.620  0.00  0.00    +0.205 C 
ATOM     23  C   UNL     1      36.701  23.139  20.916  0.00  0.00    +0.233 C 
ATOM     24  O   UNL     1      36.605  22.582  22.012  0.00  0.00    -0.274 OA
ATOM     25  H   UNL     1      35.368  20.929  17.895  0.00  0.00    +0.151 HD
BRANCH  15  27
ATOM     26  C   UNL     1      36.030  26.564  21.802  0.00  0.00    +0.024 C 
ATOM     27  C   UNL     1      36.913  25.339  21.990  0.00  0.00    +0.104 C 
ENDBRANCH  15  27
ENDBRANCH   1  21
TORSDOF 2
ENDMDL
MODEL 7
REMARK VINA RESULT:      -5.9      2.055      8.216
REMARK  Name = ZINC000329563636
REMARK  3 active torsions:
REMARK  status: ('A' for Active; 'I' for Inactive)
REMARK    1  A    between atoms: C_1  and  C_2
REMARK    2  A    between atoms: C_2  and  N_3
REMARK    3  A    between atoms: N_9  and  C_10
REMARK                            x       y       z     vdW  Elec       q    Type
REMARK                         _______ _______ _______ _____ _____    ______ ____
ROOT
ATOM      1  C   UNL     1      34.307  19.857  15.157  0.00  0.00    +0.112 C 
ATOM      2  C   UNL     1      35.253  20.899  14.551  0.00  0.00    +0.075 C 
ATOM      3  C   UNL     1      34.780  22.354  14.679  0.00  0.00    +0.113 C 
ATOM      4  C   UNL     1      35.125  23.034  16.030  0.00  0.00    +0.048 C 
ATOM      5  C   UNL     1      36.168  24.101  15.718  0.00  0.00    +0.004 C 
ATOM      6  C   UNL     1      35.841  24.527  14.300  0.00  0.00    +0.004 C 
ATOM      7  C   UNL     1      35.522  23.207  13.617  0.00  0.00    +0.048 C 
ATOM      8  O   UNL     1      33.369  22.486  14.414  0.00  0.00    -0.485 OA
ATOM      9  C   UNL     1      32.597  21.698  15.226  0.00  0.00    +0.126 A 
ATOM     10  C   UNL     1      31.363  22.208  15.629  0.00  0.00    +0.046 A 
ATOM     11  C   UNL     1      30.549  21.470  16.490  0.00  0.00    +0.004 A 
ATOM     12  C   UNL     1      30.960  20.213  16.927  0.00  0.00    +0.001 A 
ATOM     13  C   UNL     1      32.180  19.692  16.495  0.00  0.00    +0.009 A 
ATOM     14  C   UNL     1      33.010  20.434  15.640  0.00  0.00    +0.015 A 
ENDROOT
BRANCH   1  21
ATOM     15  N   UNL     1      33.843  14.470  11.890  0.00  0.00    -0.299 N 
ATOM     16  C   UNL     1      35.149  14.739  12.491  0.00  0.00    +0.127 C 
ATOM     17  C   UNL     1      35.616  16.162  12.205  0.00  0.00    +0.129 C 
ATOM     18  N   UNL     1      34.627  17.093  12.727  0.00  0.00    -0.275 N 
ATOM     19  C   UNL     1      35.004  17.988  13.703  0.00  0.00    +0.303 C 
ATOM     20  O   UNL     1      36.148  18.029  14.154  0.00  0.00    -0.253 OA
ATOM     21  N   UNL     1      34.024  18.814  14.169  0.00  0.00    -0.292 N 
ATOM     22  C   UNL     1      33.277  16.907  12.185  0.00  0.00    +0.205 C 
ATOM     23  C   UNL     1      32.876  15.468  11.794  0.00  0.00    +0.233 C 
ATOM     24  O   UNL     1      31.737  15.241  11.379  0.00  0.00    -0.274 OA
ATOM     25  H   UNL     1      33.240  19.006  13.566  0.00  0.00    +0.151 HD
BRANCH  15  27
ATOM     26  C   UNL     1      34.576  12.202  11.204  0.00  0.00    +0.024 C 
ATOM     27  C   UNL     1      33.441  13.079  11.714  0.00  0.00    +0.104 C 
ENDBRANCH  15  27
ENDBRANCH   1  21
TORSDOF 2
ENDMDL
MODEL 8
REMARK VINA RESULT:      -5.9      4.773      8.495
REMARK  Name = ZINC000329563636
REMARK  3 active torsions:
REMARK  status: ('A' for Active; 'I' for Inactive)
REMARK    1  A    between atoms: C_1  and  C_2
REMARK    2  A    between atoms: C_2  and  N_3
REMARK    3  A    between atoms: N_9  and  C_10
REMARK                            x       y       z     vdW  Elec       q    Type
REMARK                         _______ _______ _______ _____ _____    ______ ____
ROOT
ATOM      1  C   UNL     1      34.114  22.939  10.418  0.00  0.00    +0.112 C 
ATOM      2  C   UNL     1      34.924  24.127  10.947  0.00  0.00    +0.075 C 
ATOM      3  C   UNL     1      35.796  24.833   9.900  0.00  0.00    +0.113 C 
ATOM      4  C   UNL     1      35.057  25.899   9.049  0.00  0.00    +0.048 C 
ATOM      5  C   UNL     1      35.630  27.250   9.464  0.00  0.00    +0.004 C 
ATOM      6  C   UNL     1      37.055  26.932   9.872  0.00  0.00    +0.004 C 
ATOM      7  C   UNL     1      36.904  25.629  10.639  0.00  0.00    +0.048 C 
ATOM      8  O   UNL     1      36.462  23.894   9.033  0.00  0.00    -0.485 OA
ATOM      9  C   UNL     1      35.593  23.053   8.388  0.00  0.00    +0.126 A 
ATOM     10  C   UNL     1      35.916  22.674   7.086  0.00  0.00    +0.046 A 
ATOM     11  C   UNL     1      35.049  21.853   6.362  0.00  0.00    +0.004 A 
ATOM     12  C   UNL     1      33.874  21.392   6.951  0.00  0.00    +0.001 A 
ATOM     13  C   UNL     1      33.571  21.748   8.266  0.00  0.00    +0.009 A 
ATOM     14  C   UNL     1      34.431  22.584   8.995  0.00  0.00    +0.015 A 
ENDROOT
BRANCH   1  21
ATOM     15  N   UNL     1      33.587  17.837  14.106  0.00  0.00    -0.299 N 
ATOM     16  C   UNL     1      32.684  18.944  14.418  0.00  0.00    +0.127 C 
ATOM     17  C   UNL     1      33.427  20.274  14.480  0.00  0.00    +0.129 C 
ATOM     18  N   UNL     1      34.076  20.508  13.198  0.00  0.00    -0.275 N 
ATOM     19  C   UNL     1      33.723  21.620  12.467  0.00  0.00    +0.303 C 
ATOM     20  O   UNL     1      32.876  22.424  12.854  0.00  0.00    -0.253 OA
ATOM     21  N   UNL     1      34.347  21.766  11.263  0.00  0.00    -0.292 N 
ATOM     22  C   UNL     1      35.006  19.451  12.790  0.00  0.00    +0.205 C 
ATOM     23  C   UNL     1      34.678  18.016  13.257  0.00  0.00    +0.233 C 
ATOM     24  O   UNL     1      35.396  17.078  12.904  0.00  0.00    -0.274 OA
ATOM     25  H   UNL     1      35.246  21.329  11.139  0.00  0.00    +0.151 HD
BRANCH  15  27
ATOM     26  C   UNL     1      32.129  15.963  13.391  0.00  0.00    +0.024 C 
ATOM     27  C   UNL     1      33.141  16.481  14.404  0.00  0.00    +0.104 C 
ENDBRANCH  15  27
ENDBRANCH   1  21
TORSDOF 2
ENDMDL
MODEL 9
REMARK VINA RESULT:      -5.9      4.886      7.828
REMARK  Name = ZINC000329563636
REMARK  3 active torsions:
REMARK  status: ('A' for Active; 'I' for Inactive)
REMARK    1  A    between atoms: C_1  and  C_2
REMARK    2  A    between atoms: C_2  and  N_3
REMARK    3  A    between atoms: N_9  and  C_10
REMARK                            x       y       z     vdW  Elec       q    Type
REMARK                         _______ _______ _______ _____ _____    ______ ____
ROOT
ATOM      1  C   UNL     1      33.838  23.764  15.469  0.00  0.00    +0.112 C 
ATOM      2  C   UNL     1      34.787  23.175  14.419  0.00  0.00    +0.075 C 
ATOM      3  C   UNL     1      34.321  21.852  13.795  0.00  0.00    +0.113 C 
ATOM      4  C   UNL     1      33.332  22.004  12.610  0.00  0.00    +0.048 C 
ATOM      5  C   UNL     1      34.086  21.556  11.364  0.00  0.00    +0.004 C 
ATOM      6  C   UNL     1      35.064  20.520  11.881  0.00  0.00    +0.004 C 
ATOM      7  C   UNL     1      35.553  21.138  13.181  0.00  0.00    +0.048 C 
ATOM      8  O   UNL     1      33.766  20.959  14.781  0.00  0.00    -0.485 OA
ATOM      9  C   UNL     1      32.721  21.512  15.475  0.00  0.00    +0.126 A 
ATOM     10  C   UNL     1      31.678  20.665  15.844  0.00  0.00    +0.046 A 
ATOM     11  C   UNL     1      30.566  21.177  16.517  0.00  0.00    +0.004 A 
ATOM     12  C   UNL     1      30.512  22.531  16.839  0.00  0.00    +0.001 A 
ATOM     13  C   UNL     1      31.573  23.369  16.496  0.00  0.00    +0.009 A 
ATOM     14  C   UNL     1      32.688  22.864  15.809  0.00  0.00    +0.015 A 
ENDROOT
BRANCH   1  21
ATOM     15  N   UNL     1      35.924  26.083  20.963  0.00  0.00    -0.299 N 
ATOM     16  C   UNL     1      35.435  27.070  20.000  0.00  0.00    +0.127 C 
ATOM     17  C   UNL     1      36.020  26.837  18.611  0.00  0.00    +0.129 C 
ATOM     18  N   UNL     1      35.665  25.496  18.173  0.00  0.00    -0.275 N 
ATOM     19  C   UNL     1      34.905  25.347  17.034  0.00  0.00    +0.303 C 
ATOM     20  O   UNL     1      34.511  26.306  16.373  0.00  0.00    -0.253 OA
ATOM     21  N   UNL     1      34.583  24.066  16.693  0.00  0.00    -0.292 N 
ATOM     22  C   UNL     1      36.111  24.428  19.073  0.00  0.00    +0.205 C 
ATOM     23  C   UNL     1      36.187  24.771  20.576  0.00  0.00    +0.233 C 
ATOM     24  O   UNL     1      36.508  23.899  21.388  0.00  0.00    -0.274 OA
ATOM     25  H   UNL     1      35.185  23.325  17.014  0.00  0.00    +0.151 HD
BRANCH  15  27
ATOM     26  C   UNL     1      37.043  27.060  22.948  0.00  0.00    +0.024 C 
ATOM     27  C   UNL     1      35.799  26.389  22.383  0.00  0.00    +0.104 C 
ENDBRANCH  15  27
ENDBRANCH   1  21
TORSDOF 2
ENDMDL
