MODEL 1
REMARK VINA RESULT:      -6.9      0.000      0.000
REMARK  Name = ZINC000870248439
REMARK  2 active torsions:
REMARK  status: ('A' for Active; 'I' for Inactive)
REMARK    1  A    between atoms: C_2  and  C_4
REMARK    2  A    between atoms: C_7  and  C_8
REMARK                            x       y       z     vdW  Elec       q    Type
REMARK                         _______ _______ _______ _____ _____    ______ ____
ROOT
ATOM      1  C   UNL     1      34.435  17.239  14.330  0.00  0.00    +0.247 C 
ATOM      2  O   UNL     1      35.586  16.802  14.298  0.00  0.00    -0.270 OA
ATOM      3  N   UNL     1      34.125  18.558  14.687  0.00  0.00    -0.297 N 
ATOM      4  C   UNL     1      32.786  19.139  14.729  0.00  0.00    +0.108 C 
ATOM      5  C   UNL     1      32.708  20.524  14.121  0.00  0.00    +0.026 C 
ATOM      6  C   UNL     1      33.766  21.484  14.694  0.00  0.00    -0.025 C 
ATOM      7  C   UNL     1      33.732  22.772  13.840  0.00  0.00    +0.017 C 
ATOM      8  C   UNL     1      34.685  23.865  14.306  0.00  0.00    +0.069 C 
ATOM      9  S   UNL     1      34.346  24.404  16.006  0.00  0.00    -0.161 S 
ATOM     10  C   UNL     1      34.347  22.795  16.838  0.00  0.00    +0.069 C 
ATOM     11  C   UNL     1      33.396  21.819  16.161  0.00  0.00    +0.017 C 
ATOM     12  C   UNL     1      35.149  20.785  14.566  0.00  0.00    +0.026 C 
ATOM     13  C   UNL     1      35.187  19.404  15.219  0.00  0.00    +0.108 C 
ENDROOT
BRANCH   1  17
ATOM     14  C   UNL     1      31.504  14.348  13.193  0.00  0.00    +0.037 A 
ATOM     15  C   UNL     1      32.241  15.001  12.205  0.00  0.00    +0.014 A 
ATOM     16  C   UNL     1      33.111  16.024  12.563  0.00  0.00    +0.014 A 
ATOM     17  C   UNL     1      33.338  16.327  13.912  0.00  0.00    +0.037 A 
ATOM     18  C   UNL     1      32.553  15.720  14.897  0.00  0.00    +0.014 A 
ATOM     19  C   UNL     1      31.626  14.738  14.534  0.00  0.00    +0.014 A 
BRANCH  14  21
ATOM     20  N   UNL     1      29.889  13.395  11.650  0.00  0.00    -0.325 N 
ATOM     21  C   UNL     1      30.578  13.252  12.826  0.00  0.00    +0.242 C 
ATOM     22  O   UNL     1      30.457  12.255  13.525  0.00  0.00    -0.270 OA
ATOM     23  H   UNL     1      29.333  12.592  11.369  0.00  0.00    +0.145 HD
ATOM     24  H   UNL     1      30.162  14.049  10.936  0.00  0.00    +0.145 HD
ENDBRANCH  14  21
ENDBRANCH   1  17
TORSDOF 2
ENDMDL
MODEL 2
REMARK VINA RESULT:      -6.5      4.365      6.849
REMARK  Name = ZINC000870248439
REMARK  2 active torsions:
REMARK  status: ('A' for Active; 'I' for Inactive)
REMARK    1  A    between atoms: C_2  and  C_4
REMARK    2  A    between atoms: C_7  and  C_8
REMARK                            x       y       z     vdW  Elec       q    Type
REMARK                         _______ _______ _______ _____ _____    ______ ____
ROOT
ATOM      1  C   UNL     1      33.059  18.123  14.038  0.00  0.00    +0.247 C 
ATOM      2  O   UNL     1      32.537  17.048  14.335  0.00  0.00    -0.270 OA
ATOM      3  N   UNL     1      34.068  18.244  13.074  0.00  0.00    -0.297 N 
ATOM      4  C   UNL     1      34.714  19.489  12.666  0.00  0.00    +0.108 C 
ATOM      5  C   UNL     1      34.886  19.618  11.166  0.00  0.00    +0.026 C 
ATOM      6  C   UNL     1      35.567  18.388  10.540  0.00  0.00    -0.025 C 
ATOM      7  C   UNL     1      35.475  18.542   9.004  0.00  0.00    +0.017 C 
ATOM      8  C   UNL     1      36.156  17.431   8.216  0.00  0.00    +0.069 C 
ATOM      9  S   UNL     1      37.930  17.305   8.582  0.00  0.00    -0.161 S 
ATOM     10  C   UNL     1      37.857  17.211  10.390  0.00  0.00    +0.069 C 
ATOM     11  C   UNL     1      37.055  18.363  10.974  0.00  0.00    +0.017 C 
ATOM     12  C   UNL     1      34.782  17.130  11.007  0.00  0.00    +0.026 C 
ATOM     13  C   UNL     1      34.660  17.029  12.526  0.00  0.00    +0.108 C 
ENDROOT
BRANCH   1  17
ATOM     14  C   UNL     1      31.250  21.487  15.949  0.00  0.00    +0.037 A 
ATOM     15  C   UNL     1      31.446  21.507  14.568  0.00  0.00    +0.014 A 
ATOM     16  C   UNL     1      32.138  20.468  13.959  0.00  0.00    +0.014 A 
ATOM     17  C   UNL     1      32.540  19.349  14.699  0.00  0.00    +0.037 A 
ATOM     18  C   UNL     1      32.404  19.357  16.091  0.00  0.00    +0.014 A 
ATOM     19  C   UNL     1      31.768  20.435  16.717  0.00  0.00    +0.014 A 
BRANCH  14  21
ATOM     20  N   UNL     1      31.033  23.846  16.483  0.00  0.00    -0.325 N 
ATOM     21  C   UNL     1      30.510  22.586  16.610  0.00  0.00    +0.242 C 
ATOM     22  O   UNL     1      29.465  22.381  17.215  0.00  0.00    -0.270 OA
ATOM     23  H   UNL     1      30.461  24.597  16.861  0.00  0.00    +0.145 HD
ATOM     24  H   UNL     1      31.715  24.083  15.783  0.00  0.00    +0.145 HD
ENDBRANCH  14  21
ENDBRANCH   1  17
TORSDOF 2
ENDMDL
MODEL 3
REMARK VINA RESULT:      -6.3      5.165      7.235
REMARK  Name = ZINC000870248439
REMARK  2 active torsions:
REMARK  status: ('A' for Active; 'I' for Inactive)
REMARK    1  A    between atoms: C_2  and  C_4
REMARK    2  A    between atoms: C_7  and  C_8
REMARK                            x       y       z     vdW  Elec       q    Type
REMARK                         _______ _______ _______ _____ _____    ______ ____
ROOT
ATOM      1  C   UNL     1      34.126  20.592  12.402  0.00  0.00    +0.247 C 
ATOM      2  O   UNL     1      34.467  19.410  12.343  0.00  0.00    -0.270 OA
ATOM      3  N   UNL     1      34.485  21.542  11.436  0.00  0.00    -0.297 N 
ATOM      4  C   UNL     1      34.100  22.951  11.441  0.00  0.00    +0.108 C 
ATOM      5  C   UNL     1      33.657  23.461  10.085  0.00  0.00    +0.026 C 
ATOM      6  C   UNL     1      34.674  23.150   8.973  0.00  0.00    -0.025 C 
ATOM      7  C   UNL     1      34.010  23.511   7.625  0.00  0.00    +0.017 C 
ATOM      8  C   UNL     1      34.904  23.318   6.407  0.00  0.00    +0.069 C 
ATOM      9  S   UNL     1      36.412  24.326   6.486  0.00  0.00    -0.161 S 
ATOM     10  C   UNL     1      37.010  23.843   8.127  0.00  0.00    +0.069 C 
ATOM     11  C   UNL     1      35.934  24.027   9.186  0.00  0.00    +0.017 C 
ATOM     12  C   UNL     1      34.983  21.627   9.035  0.00  0.00    +0.026 C 
ATOM     13  C   UNL     1      35.454  21.166  10.413  0.00  0.00    +0.108 C 
ENDROOT
BRANCH   1  17
ATOM     14  C   UNL     1      31.599  22.097  15.498  0.00  0.00    +0.037 A 
ATOM     15  C   UNL     1      32.958  21.915  15.752  0.00  0.00    +0.014 A 
ATOM     16  C   UNL     1      33.761  21.317  14.788  0.00  0.00    +0.014 A 
ATOM     17  C   UNL     1      33.243  21.001  13.525  0.00  0.00    +0.037 A 
ATOM     18  C   UNL     1      31.869  21.121  13.293  0.00  0.00    +0.014 A 
ATOM     19  C   UNL     1      31.045  21.659  14.287  0.00  0.00    +0.014 A 
BRANCH  14  21
ATOM     20  N   UNL     1      30.965  24.061  16.777  0.00  0.00    -0.325 N 
ATOM     21  C   UNL     1      30.733  22.737  16.515  0.00  0.00    +0.242 C 
ATOM     22  O   UNL     1      29.834  22.119  17.071  0.00  0.00    -0.270 OA
ATOM     23  H   UNL     1      30.301  24.505  17.406  0.00  0.00    +0.145 HD
ATOM     24  H   UNL     1      31.494  24.653  16.159  0.00  0.00    +0.145 HD
ENDBRANCH  14  21
ENDBRANCH   1  17
TORSDOF 2
ENDMDL
MODEL 4
REMARK VINA RESULT:      -6.1      3.275      5.435
REMARK  Name = ZINC000870248439
REMARK  2 active torsions:
REMARK  status: ('A' for Active; 'I' for Inactive)
REMARK    1  A    between atoms: C_2  and  C_4
REMARK    2  A    between atoms: C_7  and  C_8
REMARK                            x       y       z     vdW  Elec       q    Type
REMARK                         _______ _______ _______ _____ _____    ______ ____
ROOT
ATOM      1  C   UNL     1      32.551  22.502  15.999  0.00  0.00    +0.247 C 
ATOM      2  O   UNL     1      31.412  22.946  15.854  0.00  0.00    -0.270 OA
ATOM      3  N   UNL     1      33.611  23.264  16.511  0.00  0.00    -0.297 N 
ATOM      4  C   UNL     1      34.977  22.793  16.722  0.00  0.00    +0.108 C 
ATOM      5  C   UNL     1      35.568  23.227  18.048  0.00  0.00    +0.026 C 
ATOM      6  C   UNL     1      35.442  24.742  18.285  0.00  0.00    -0.025 C 
ATOM      7  C   UNL     1      35.867  25.017  19.746  0.00  0.00    +0.017 C 
ATOM      8  C   UNL     1      35.858  26.488  20.140  0.00  0.00    +0.069 C 
ATOM      9  S   UNL     1      36.976  27.489  19.118  0.00  0.00    -0.161 S 
ATOM     10  C   UNL     1      36.400  26.996  17.472  0.00  0.00    +0.069 C 
ATOM     11  C   UNL     1      36.399  25.483  17.315  0.00  0.00    +0.017 C 
ATOM     12  C   UNL     1      33.951  25.127  18.072  0.00  0.00    +0.026 C 
ATOM     13  C   UNL     1      33.409  24.694  16.710  0.00  0.00    +0.108 C 
ENDROOT
BRANCH   1  17
ATOM     14  C   UNL     1      32.869  18.364  14.995  0.00  0.00    +0.037 A 
ATOM     15  C   UNL     1      32.871  18.745  16.337  0.00  0.00    +0.014 A 
ATOM     16  C   UNL     1      32.885  20.094  16.666  0.00  0.00    +0.014 A 
ATOM     17  C   UNL     1      32.784  21.072  15.667  0.00  0.00    +0.037 A 
ATOM     18  C   UNL     1      32.849  20.694  14.322  0.00  0.00    +0.014 A 
ATOM     19  C   UNL     1      32.904  19.337  13.988  0.00  0.00    +0.014 A 
BRANCH  14  21
ATOM     20  N   UNL     1      32.840  16.630  13.294  0.00  0.00    -0.325 N 
ATOM     21  C   UNL     1      32.848  16.928  14.632  0.00  0.00    +0.242 C 
ATOM     22  O   UNL     1      32.867  16.051  15.486  0.00  0.00    -0.270 OA
ATOM     23  H   UNL     1      32.923  15.643  13.066  0.00  0.00    +0.145 HD
ATOM     24  H   UNL     1      33.097  17.298  12.587  0.00  0.00    +0.145 HD
ENDBRANCH  14  21
ENDBRANCH   1  17
TORSDOF 2
ENDMDL
MODEL 5
REMARK VINA RESULT:      -6.0      4.071      7.342
REMARK  Name = ZINC000870248439
REMARK  2 active torsions:
REMARK  status: ('A' for Active; 'I' for Inactive)
REMARK    1  A    between atoms: C_2  and  C_4
REMARK    2  A    between atoms: C_7  and  C_8
REMARK                            x       y       z     vdW  Elec       q    Type
REMARK                         _______ _______ _______ _____ _____    ______ ____
ROOT
ATOM      1  C   UNL     1      34.813  18.763  15.160  0.00  0.00    +0.247 C 
ATOM      2  O   UNL     1      35.705  18.734  16.008  0.00  0.00    -0.270 OA
ATOM      3  N   UNL     1      34.824  17.964  14.009  0.00  0.00    -0.297 N 
ATOM      4  C   UNL     1      33.791  17.941  12.977  0.00  0.00    +0.108 C 
ATOM      5  C   UNL     1      33.423  16.543  12.522  0.00  0.00    +0.026 C 
ATOM      6  C   UNL     1      34.651  15.707  12.121  0.00  0.00    -0.025 C 
ATOM      7  C   UNL     1      34.170  14.255  11.901  0.00  0.00    +0.017 C 
ATOM      8  C   UNL     1      35.256  13.292  11.439  0.00  0.00    +0.069 C 
ATOM      9  S   UNL     1      36.005  13.794   9.864  0.00  0.00    -0.161 S 
ATOM     10  C   UNL     1      36.435  15.507  10.268  0.00  0.00    +0.069 C 
ATOM     11  C   UNL     1      35.230  16.271  10.798  0.00  0.00    +0.017 C 
ATOM     12  C   UNL     1      35.665  15.771  13.298  0.00  0.00    +0.026 C 
ATOM     13  C   UNL     1      36.027  17.200  13.701  0.00  0.00    +0.108 C 
ENDROOT
BRANCH   1  17
ATOM     14  C   UNL     1      31.638  21.433  16.173  0.00  0.00    +0.037 A 
ATOM     15  C   UNL     1      31.554  20.094  16.555  0.00  0.00    +0.014 A 
ATOM     16  C   UNL     1      32.526  19.198  16.128  0.00  0.00    +0.014 A 
ATOM     17  C   UNL     1      33.646  19.648  15.416  0.00  0.00    +0.037 A 
ATOM     18  C   UNL     1      33.697  20.974  14.976  0.00  0.00    +0.014 A 
ATOM     19  C   UNL     1      32.684  21.864  15.346  0.00  0.00    +0.014 A 
BRANCH  14  21
ATOM     20  N   UNL     1      30.952  23.726  16.588  0.00  0.00    -0.325 N 
ATOM     21  C   UNL     1      30.610  22.400  16.625  0.00  0.00    +0.242 C 
ATOM     22  O   UNL     1      29.500  22.031  16.987  0.00  0.00    -0.270 OA
ATOM     23  H   UNL     1      30.203  24.376  16.810  0.00  0.00    +0.145 HD
ATOM     24  H   UNL     1      31.729  24.072  16.052  0.00  0.00    +0.145 HD
ENDBRANCH  14  21
ENDBRANCH   1  17
TORSDOF 2
ENDMDL
MODEL 6
REMARK VINA RESULT:      -5.9      3.033      4.976
REMARK  Name = ZINC000870248439
REMARK  2 active torsions:
REMARK  status: ('A' for Active; 'I' for Inactive)
REMARK    1  A    between atoms: C_2  and  C_4
REMARK    2  A    between atoms: C_7  and  C_8
REMARK                            x       y       z     vdW  Elec       q    Type
REMARK                         _______ _______ _______ _____ _____    ______ ____
ROOT
ATOM      1  C   UNL     1      33.306  22.346  14.722  0.00  0.00    +0.247 C 
ATOM      2  O   UNL     1      32.500  22.921  13.990  0.00  0.00    -0.270 OA
ATOM      3  N   UNL     1      34.203  23.026  15.557  0.00  0.00    -0.297 N 
ATOM      4  C   UNL     1      35.171  22.404  16.457  0.00  0.00    +0.108 C 
ATOM      5  C   UNL     1      35.228  23.054  17.825  0.00  0.00    +0.026 C 
ATOM      6  C   UNL     1      35.416  24.579  17.749  0.00  0.00    -0.025 C 
ATOM      7  C   UNL     1      35.230  25.139  19.177  0.00  0.00    +0.017 C 
ATOM      8  C   UNL     1      35.440  26.643  19.300  0.00  0.00    +0.069 C 
ATOM      9  S   UNL     1      37.108  27.155  18.796  0.00  0.00    -0.161 S 
ATOM     10  C   UNL     1      37.184  26.365  17.166  0.00  0.00    +0.069 C 
ATOM     11  C   UNL     1      36.853  24.883  17.252  0.00  0.00    +0.017 C 
ATOM     12  C   UNL     1      34.320  25.139  16.799  0.00  0.00    +0.026 C 
ATOM     13  C   UNL     1      34.320  24.474  15.424  0.00  0.00    +0.108 C 
ENDROOT
BRANCH   1  17
ATOM     14  C   UNL     1      32.933  18.094  14.594  0.00  0.00    +0.037 A 
ATOM     15  C   UNL     1      32.404  18.796  15.678  0.00  0.00    +0.014 A 
ATOM     16  C   UNL     1      32.625  20.163  15.781  0.00  0.00    +0.014 A 
ATOM     17  C   UNL     1      33.273  20.860  14.754  0.00  0.00    +0.037 A 
ATOM     18  C   UNL     1      33.861  20.150  13.702  0.00  0.00    +0.014 A 
ATOM     19  C   UNL     1      33.700  18.763  13.630  0.00  0.00    +0.014 A 
BRANCH  14  21
ATOM     20  N   UNL     1      32.308  16.178  13.239  0.00  0.00    -0.325 N 
ATOM     21  C   UNL     1      32.701  16.637  14.469  0.00  0.00    +0.242 C 
ATOM     22  O   UNL     1      32.880  15.877  15.412  0.00  0.00    -0.270 OA
ATOM     23  H   UNL     1      32.248  15.167  13.149  0.00  0.00    +0.145 HD
ATOM     24  H   UNL     1      32.417  16.717  12.398  0.00  0.00    +0.145 HD
ENDBRANCH  14  21
ENDBRANCH   1  17
TORSDOF 2
ENDMDL
MODEL 7
REMARK VINA RESULT:      -5.9     13.465     15.718
REMARK  Name = ZINC000870248439
REMARK  2 active torsions:
REMARK  status: ('A' for Active; 'I' for Inactive)
REMARK    1  A    between atoms: C_2  and  C_4
REMARK    2  A    between atoms: C_7  and  C_8
REMARK                            x       y       z     vdW  Elec       q    Type
REMARK                         _______ _______ _______ _____ _____    ______ ____
ROOT
ATOM      1  C   UNL     1      24.888  28.924  20.760  0.00  0.00    +0.247 C 
ATOM      2  O   UNL     1      25.625  29.904  20.655  0.00  0.00    -0.270 OA
ATOM      3  N   UNL     1      23.637  28.836  20.135  0.00  0.00    -0.297 N 
ATOM      4  C   UNL     1      22.724  27.698  20.208  0.00  0.00    +0.108 C 
ATOM      5  C   UNL     1      22.111  27.328  18.873  0.00  0.00    +0.026 C 
ATOM      6  C   UNL     1      21.467  28.532  18.163  0.00  0.00    -0.025 C 
ATOM      7  C   UNL     1      21.089  28.078  16.735  0.00  0.00    +0.017 C 
ATOM      8  C   UNL     1      20.381  29.138  15.901  0.00  0.00    +0.069 C 
ATOM      9  S   UNL     1      18.827  29.695  16.657  0.00  0.00    -0.161 S 
ATOM     10  C   UNL     1      19.431  30.109  18.314  0.00  0.00    +0.069 C 
ATOM     11  C   UNL     1      20.188  28.946  18.936  0.00  0.00    +0.017 C 
ATOM     12  C   UNL     1      22.530  29.666  18.108  0.00  0.00    +0.026 C 
ATOM     13  C   UNL     1      23.098  30.022  19.481  0.00  0.00    +0.108 C 
ENDROOT
BRANCH   1  17
ATOM     14  C   UNL     1      26.047  25.406  22.886  0.00  0.00    +0.037 A 
ATOM     15  C   UNL     1      25.369  26.421  23.561  0.00  0.00    +0.014 A 
ATOM     16  C   UNL     1      25.094  27.614  22.904  0.00  0.00    +0.014 A 
ATOM     17  C   UNL     1      25.388  27.763  21.543  0.00  0.00    +0.037 A 
ATOM     18  C   UNL     1      26.126  26.774  20.884  0.00  0.00    +0.014 A 
ATOM     19  C   UNL     1      26.466  25.599  21.562  0.00  0.00    +0.014 A 
BRANCH  14  21
ATOM     20  N   UNL     1      27.614  23.634  23.438  0.00  0.00    -0.325 N 
ATOM     21  C   UNL     1      26.343  24.127  23.572  0.00  0.00    +0.242 C 
ATOM     22  O   UNL     1      25.499  23.556  24.251  0.00  0.00    -0.270 OA
ATOM     23  H   UNL     1      27.823  22.809  23.994  0.00  0.00    +0.145 HD
ATOM     24  H   UNL     1      28.386  24.200  23.130  0.00  0.00    +0.145 HD
ENDBRANCH  14  21
ENDBRANCH   1  17
TORSDOF 2
ENDMDL
MODEL 8
REMARK VINA RESULT:      -5.9      2.972      3.955
REMARK  Name = ZINC000870248439
REMARK  2 active torsions:
REMARK  status: ('A' for Active; 'I' for Inactive)
REMARK    1  A    between atoms: C_2  and  C_4
REMARK    2  A    between atoms: C_7  and  C_8
REMARK                            x       y       z     vdW  Elec       q    Type
REMARK                         _______ _______ _______ _____ _____    ______ ____
ROOT
ATOM      1  C   UNL     1      33.087  18.817  15.016  0.00  0.00    +0.247 C 
ATOM      2  O   UNL     1      32.234  19.662  14.744  0.00  0.00    -0.270 OA
ATOM      3  N   UNL     1      34.068  19.006  15.998  0.00  0.00    -0.297 N 
ATOM      4  C   UNL     1      35.095  18.039  16.377  0.00  0.00    +0.108 C 
ATOM      5  C   UNL     1      35.286  17.916  17.875  0.00  0.00    +0.026 C 
ATOM      6  C   UNL     1      35.502  19.278  18.559  0.00  0.00    -0.025 C 
ATOM      7  C   UNL     1      35.453  19.041  20.086  0.00  0.00    +0.017 C 
ATOM      8  C   UNL     1      35.709  20.285  20.927  0.00  0.00    +0.069 C 
ATOM      9  S   UNL     1      37.338  21.019  20.606  0.00  0.00    -0.161 S 
ATOM     10  C   UNL     1      37.255  21.155  18.801  0.00  0.00    +0.069 C 
ATOM     11  C   UNL     1      36.897  19.823  18.160  0.00  0.00    +0.017 C 
ATOM     12  C   UNL     1      34.341  20.213  18.117  0.00  0.00    +0.026 C 
ATOM     13  C   UNL     1      34.207  20.327  16.600  0.00  0.00    +0.108 C 
ENDROOT
BRANCH   1  17
ATOM     14  C   UNL     1      32.652  15.221  12.753  0.00  0.00    +0.037 A 
ATOM     15  C   UNL     1      32.006  15.337  13.984  0.00  0.00    +0.014 A 
ATOM     16  C   UNL     1      32.238  16.455  14.776  0.00  0.00    +0.014 A 
ATOM     17  C   UNL     1      33.022  17.515  14.301  0.00  0.00    +0.037 A 
ATOM     18  C   UNL     1      33.722  17.370  13.099  0.00  0.00    +0.014 A 
ATOM     19  C   UNL     1      33.545  16.215  12.331  0.00  0.00    +0.014 A 
BRANCH  14  21
ATOM     20  N   UNL     1      31.153  13.905  11.366  0.00  0.00    -0.325 N 
ATOM     21  C   UNL     1      32.409  14.036  11.898  0.00  0.00    +0.242 C 
ATOM     22  O   UNL     1      33.298  13.230  11.654  0.00  0.00    -0.270 OA
ATOM     23  H   UNL     1      31.035  13.141  10.707  0.00  0.00    +0.145 HD
ATOM     24  H   UNL     1      30.500  14.669  11.320  0.00  0.00    +0.145 HD
ENDBRANCH  14  21
ENDBRANCH   1  17
TORSDOF 2
ENDMDL
MODEL 9
REMARK VINA RESULT:      -5.8      5.505      7.410
REMARK  Name = ZINC000870248439
REMARK  2 active torsions:
REMARK  status: ('A' for Active; 'I' for Inactive)
REMARK    1  A    between atoms: C_2  and  C_4
REMARK    2  A    between atoms: C_7  and  C_8
REMARK                            x       y       z     vdW  Elec       q    Type
REMARK                         _______ _______ _______ _____ _____    ______ ____
ROOT
ATOM      1  C   UNL     1      35.067  22.734  13.083  0.00  0.00    +0.247 C 
ATOM      2  O   UNL     1      36.147  22.618  13.662  0.00  0.00    -0.270 OA
ATOM      3  N   UNL     1      34.956  23.057  11.724  0.00  0.00    -0.297 N 
ATOM      4  C   UNL     1      33.708  23.193  10.978  0.00  0.00    +0.108 C 
ATOM      5  C   UNL     1      33.744  22.532   9.615  0.00  0.00    +0.026 C 
ATOM      6  C   UNL     1      34.961  22.965   8.778  0.00  0.00    -0.025 C 
ATOM      7  C   UNL     1      35.004  22.061   7.524  0.00  0.00    +0.017 C 
ATOM      8  C   UNL     1      36.124  22.391   6.546  0.00  0.00    +0.069 C 
ATOM      9  S   UNL     1      36.015  24.088   5.912  0.00  0.00    -0.161 S 
ATOM     10  C   UNL     1      35.898  24.988   7.480  0.00  0.00    +0.069 C 
ATOM     11  C   UNL     1      34.775  24.443   8.349  0.00  0.00    +0.017 C 
ATOM     12  C   UNL     1      36.229  22.746   9.649  0.00  0.00    +0.026 C 
ATOM     13  C   UNL     1      36.159  23.454  11.001  0.00  0.00    +0.108 C 
ENDROOT
BRANCH   1  17
ATOM     14  C   UNL     1      31.728  21.862  15.600  0.00  0.00    +0.037 A 
ATOM     15  C   UNL     1      32.185  20.891  14.707  0.00  0.00    +0.014 A 
ATOM     16  C   UNL     1      33.193  21.210  13.806  0.00  0.00    +0.014 A 
ATOM     17  C   UNL     1      33.832  22.456  13.863  0.00  0.00    +0.037 A 
ATOM     18  C   UNL     1      33.331  23.450  14.710  0.00  0.00    +0.014 A 
ATOM     19  C   UNL     1      32.270  23.154  15.571  0.00  0.00    +0.014 A 
BRANCH  14  21
ATOM     20  N   UNL     1      30.632  20.251  17.050  0.00  0.00    -0.325 N 
ATOM     21  C   UNL     1      30.657  21.533  16.569  0.00  0.00    +0.242 C 
ATOM     22  O   UNL     1      29.852  22.377  16.943  0.00  0.00    -0.270 OA
ATOM     23  H   UNL     1      29.951  20.072  17.784  0.00  0.00    +0.145 HD
ATOM     24  H   UNL     1      31.420  19.629  16.980  0.00  0.00    +0.145 HD
ENDBRANCH  14  21
ENDBRANCH   1  17
TORSDOF 2
ENDMDL
