MODEL 1
REMARK VINA RESULT:      -7.4      0.000      0.000
REMARK  Name = ZINC000543478179
REMARK  8 active torsions:
REMARK  status: ('A' for Active; 'I' for Inactive)
REMARK    1  A    between atoms: C_1  and  C_2
REMARK    2  A    between atoms: C_2  and  N_3
REMARK    3  A    between atoms: N_9  and  C_10
REMARK    4  A    between atoms: C_10  and  C_11
REMARK    5  A    between atoms: C_10  and  C_12
REMARK    6  A    between atoms: C_15  and  O_16
REMARK    7  A    between atoms: O_16  and  C_17
REMARK    8  A    between atoms: C_17  and  C_18
REMARK                            x       y       z     vdW  Elec       q    Type
REMARK                         _______ _______ _______ _____ _____    ______ ____
ROOT
ATOM      1  C   UNL     1      28.531  21.556  16.679  0.00  0.00    +0.102 C 
ATOM      2  C   UNL     1      27.167  22.074  17.141  0.00  0.00    +0.033 C 
ENDROOT
BRANCH   1   9
ATOM      3  N   UNL     1      33.218  23.217  14.475  0.00  0.00    -0.299 N 
ATOM      4  C   UNL     1      33.730  22.872  15.800  0.00  0.00    +0.127 C 
ATOM      5  C   UNL     1      32.789  23.341  16.914  0.00  0.00    +0.129 C 
ATOM      6  N   UNL     1      31.450  22.774  16.723  0.00  0.00    -0.275 N 
ATOM      7  C   UNL     1      30.796  22.235  17.794  0.00  0.00    +0.303 C 
ATOM      8  O   UNL     1      31.316  22.196  18.914  0.00  0.00    -0.253 OA
ATOM      9  N   UNL     1      29.560  21.698  17.706  0.00  0.00    -0.293 N 
ATOM     10  C   UNL     1      30.940  22.869  15.364  0.00  0.00    +0.205 C 
ATOM     11  C   UNL     1      31.863  23.339  14.240  0.00  0.00    +0.233 C 
ATOM     12  O   UNL     1      31.391  23.677  13.152  0.00  0.00    -0.274 OA
ATOM     13  H   UNL     1      29.298  21.346  18.619  0.00  0.00    +0.151 HD
BRANCH   3  15
ATOM     14  C   UNL     1      35.278  24.335  13.770  0.00  0.00    +0.024 C 
ATOM     15  C   UNL     1      34.144  23.407  13.374  0.00  0.00    +0.104 C 
ENDBRANCH   3  15
ENDBRANCH   1   9
BRANCH   1  16
ATOM     16  C   UNL     1      28.464  20.115  16.206  0.00  0.00    -0.024 A 
ATOM     17  C   UNL     1      27.374  19.292  16.510  0.00  0.00    +0.009 A 
ATOM     18  C   UNL     1      27.339  17.963  16.083  0.00  0.00    +0.049 A 
ATOM     19  C   UNL     1      28.418  17.416  15.375  0.00  0.00    +0.156 A 
ATOM     20  C   UNL     1      29.485  18.246  15.040  0.00  0.00    +0.165 A 
ATOM     21  F   UNL     1      30.519  17.771  14.328  0.00  0.00    -0.202 F 
ATOM     22  C   UNL     1      29.523  19.576  15.456  0.00  0.00    +0.047 A 
BRANCH  19  23
ATOM     23  O   UNL     1      28.504  16.108  14.990  0.00  0.00    -0.489 OA
BRANCH  23  24
ATOM     24  C   UNL     1      27.828  15.792  13.773  0.00  0.00    +0.232 C 
BRANCH  24  25
ATOM     25  C   UNL     1      28.620  14.774  13.015  0.00  0.00    +0.027 C 
ATOM     26  C   UNL     1      29.951  15.166  12.425  0.00  0.00    +0.007 C 
ATOM     27  C   UNL     1      28.781  14.894  11.520  0.00  0.00    +0.007 C 
ENDBRANCH  24  25
ENDBRANCH  23  24
ENDBRANCH  19  23
ENDBRANCH   1  16
TORSDOF 6
ENDMDL
MODEL 2
REMARK VINA RESULT:      -7.1      1.644      2.363
REMARK  Name = ZINC000543478179
REMARK  8 active torsions:
REMARK  status: ('A' for Active; 'I' for Inactive)
REMARK    1  A    between atoms: C_1  and  C_2
REMARK    2  A    between atoms: C_2  and  N_3
REMARK    3  A    between atoms: N_9  and  C_10
REMARK    4  A    between atoms: C_10  and  C_11
REMARK    5  A    between atoms: C_10  and  C_12
REMARK    6  A    between atoms: C_15  and  O_16
REMARK    7  A    between atoms: O_16  and  C_17
REMARK    8  A    between atoms: C_17  and  C_18
REMARK                            x       y       z     vdW  Elec       q    Type
REMARK                         _______ _______ _______ _____ _____    ______ ____
ROOT
ATOM      1  C   UNL     1      28.035  19.710  16.579  0.00  0.00    +0.102 C 
ATOM      2  C   UNL     1      26.517  19.696  16.780  0.00  0.00    +0.033 C 
ENDROOT
BRANCH   1   9
ATOM      3  N   UNL     1      32.422  22.864  15.955  0.00  0.00    -0.299 N 
ATOM      4  C   UNL     1      32.741  22.337  17.281  0.00  0.00    +0.127 C 
ATOM      5  C   UNL     1      31.508  22.301  18.189  0.00  0.00    +0.129 C 
ATOM      6  N   UNL     1      30.441  21.508  17.571  0.00  0.00    -0.275 N 
ATOM      7  C   UNL     1      29.764  20.596  18.329  0.00  0.00    +0.303 C 
ATOM      8  O   UNL     1      30.046  20.408  19.517  0.00  0.00    -0.253 OA
ATOM      9  N   UNL     1      28.764  19.831  17.838  0.00  0.00    -0.293 N 
ATOM     10  C   UNL     1      30.200  21.808  16.168  0.00  0.00    +0.205 C 
ATOM     11  C   UNL     1      31.159  22.730  15.415  0.00  0.00    +0.233 C 
ATOM     12  O   UNL     1      30.834  23.202  14.323  0.00  0.00    -0.274 OA
ATOM     13  H   UNL     1      28.436  19.221  18.577  0.00  0.00    +0.151 HD
BRANCH   3  15
ATOM     14  C   UNL     1      34.332  24.391  16.051  0.00  0.00    +0.024 C 
ATOM     15  C   UNL     1      33.457  23.515  15.174  0.00  0.00    +0.104 C 
ENDBRANCH   3  15
ENDBRANCH   1   9
BRANCH   1  16
ATOM     16  C   UNL     1      28.520  18.495  15.811  0.00  0.00    -0.024 A 
ATOM     17  C   UNL     1      29.868  18.333  15.466  0.00  0.00    +0.009 A 
ATOM     18  C   UNL     1      30.293  17.218  14.742  0.00  0.00    +0.049 A 
ATOM     19  C   UNL     1      29.369  16.257  14.310  0.00  0.00    +0.156 A 
ATOM     20  C   UNL     1      28.035  16.398  14.686  0.00  0.00    +0.165 A 
ATOM     21  F   UNL     1      27.126  15.478  14.327  0.00  0.00    -0.202 F 
ATOM     22  C   UNL     1      27.605  17.505  15.415  0.00  0.00    +0.047 A 
BRANCH  19  23
ATOM     23  O   UNL     1      29.684  15.180  13.530  0.00  0.00    -0.489 OA
BRANCH  23  24
ATOM     24  C   UNL     1      29.679  15.431  12.125  0.00  0.00    +0.232 C 
BRANCH  24  25
ATOM     25  C   UNL     1      30.986  15.001  11.539  0.00  0.00    +0.027 C 
ATOM     26  C   UNL     1      32.230  15.065  12.389  0.00  0.00    +0.007 C 
ATOM     27  C   UNL     1      32.058  16.019  11.239  0.00  0.00    +0.007 C 
ENDBRANCH  24  25
ENDBRANCH  23  24
ENDBRANCH  19  23
ENDBRANCH   1  16
TORSDOF 6
ENDMDL
MODEL 3
REMARK VINA RESULT:      -7.0      3.779      7.474
REMARK  Name = ZINC000543478179
REMARK  8 active torsions:
REMARK  status: ('A' for Active; 'I' for Inactive)
REMARK    1  A    between atoms: C_1  and  C_2
REMARK    2  A    between atoms: C_2  and  N_3
REMARK    3  A    between atoms: N_9  and  C_10
REMARK    4  A    between atoms: C_10  and  C_11
REMARK    5  A    between atoms: C_10  and  C_12
REMARK    6  A    between atoms: C_15  and  O_16
REMARK    7  A    between atoms: O_16  and  C_17
REMARK    8  A    between atoms: C_17  and  C_18
REMARK                            x       y       z     vdW  Elec       q    Type
REMARK                         _______ _______ _______ _____ _____    ______ ____
ROOT
ATOM      1  C   UNL     1      28.817  17.010  16.054  0.00  0.00    +0.102 C 
ATOM      2  C   UNL     1      28.552  16.377  17.422  0.00  0.00    +0.033 C 
ENDROOT
BRANCH   1   9
ATOM      3  N   UNL     1      31.678  15.394  11.720  0.00  0.00    -0.299 N 
ATOM      4  C   UNL     1      30.348  15.331  11.117  0.00  0.00    +0.127 C 
ATOM      5  C   UNL     1      29.319  14.717  12.072  0.00  0.00    +0.129 C 
ATOM      6  N   UNL     1      29.273  15.473  13.327  0.00  0.00    -0.275 N 
ATOM      7  C   UNL     1      28.060  15.803  13.862  0.00  0.00    +0.303 C 
ATOM      8  O   UNL     1      27.003  15.496  13.301  0.00  0.00    -0.253 OA
ATOM      9  N   UNL     1      27.929  16.491  15.017  0.00  0.00    -0.293 N 
ATOM     10  C   UNL     1      30.575  15.784  13.895  0.00  0.00    +0.205 C 
ATOM     11  C   UNL     1      31.841  15.501  13.086  0.00  0.00    +0.233 C 
ATOM     12  O   UNL     1      32.944  15.507  13.640  0.00  0.00    -0.274 OA
ATOM     13  H   UNL     1      26.942  16.632  15.194  0.00  0.00    +0.151 HD
BRANCH   3  15
ATOM     14  C   UNL     1      33.035  16.705  10.162  0.00  0.00    +0.024 C 
ATOM     15  C   UNL     1      32.853  15.375  10.869  0.00  0.00    +0.104 C 
ENDBRANCH   3  15
ENDBRANCH   1   9
BRANCH   1  16
ATOM     16  C   UNL     1      28.733  18.525  16.100  0.00  0.00    -0.024 A 
ATOM     17  C   UNL     1      29.730  19.334  15.541  0.00  0.00    +0.009 A 
ATOM     18  C   UNL     1      29.646  20.725  15.611  0.00  0.00    +0.049 A 
ATOM     19  C   UNL     1      28.578  21.339  16.279  0.00  0.00    +0.156 A 
ATOM     20  C   UNL     1      27.567  20.536  16.801  0.00  0.00    +0.165 A 
ATOM     21  F   UNL     1      26.507  21.089  17.412  0.00  0.00    -0.202 F 
ATOM     22  C   UNL     1      27.641  19.147  16.728  0.00  0.00    +0.047 A 
BRANCH  19  23
ATOM     23  O   UNL     1      28.458  22.688  16.465  0.00  0.00    -0.489 OA
BRANCH  23  24
ATOM     24  C   UNL     1      29.630  23.335  16.961  0.00  0.00    +0.232 C 
BRANCH  24  25
ATOM     25  C   UNL     1      29.729  23.118  18.438  0.00  0.00    +0.027 C 
ATOM     26  C   UNL     1      31.076  23.215  19.109  0.00  0.00    +0.007 C 
ATOM     27  C   UNL     1      30.396  21.879  18.982  0.00  0.00    +0.007 C 
ENDBRANCH  24  25
ENDBRANCH  23  24
ENDBRANCH  19  23
ENDBRANCH   1  16
TORSDOF 6
ENDMDL
MODEL 4
REMARK VINA RESULT:      -6.7      3.028      5.263
REMARK  Name = ZINC000543478179
REMARK  8 active torsions:
REMARK  status: ('A' for Active; 'I' for Inactive)
REMARK    1  A    between atoms: C_1  and  C_2
REMARK    2  A    between atoms: C_2  and  N_3
REMARK    3  A    between atoms: N_9  and  C_10
REMARK    4  A    between atoms: C_10  and  C_11
REMARK    5  A    between atoms: C_10  and  C_12
REMARK    6  A    between atoms: C_15  and  O_16
REMARK    7  A    between atoms: O_16  and  C_17
REMARK    8  A    between atoms: C_17  and  C_18
REMARK                            x       y       z     vdW  Elec       q    Type
REMARK                         _______ _______ _______ _____ _____    ______ ____
ROOT
ATOM      1  C   UNL     1      28.527  16.446  14.175  0.00  0.00    +0.102 C 
ATOM      2  C   UNL     1      27.264  15.740  13.676  0.00  0.00    +0.033 C 
ENDROOT
BRANCH   1   9
ATOM      3  N   UNL     1      30.207  21.276  16.028  0.00  0.00    -0.299 N 
ATOM      4  C   UNL     1      30.365  20.519  17.268  0.00  0.00    +0.127 C 
ATOM      5  C   UNL     1      29.183  19.576  17.513  0.00  0.00    +0.129 C 
ATOM      6  N   UNL     1      29.016  18.663  16.379  0.00  0.00    -0.275 N 
ATOM      7  C   UNL     1      28.810  17.334  16.618  0.00  0.00    +0.303 C 
ATOM      8  O   UNL     1      28.782  16.882  17.768  0.00  0.00    -0.253 OA
ATOM      9  N   UNL     1      28.640  16.428  15.631  0.00  0.00    -0.293 N 
ATOM     10  C   UNL     1      29.071  19.302  15.073  0.00  0.00    +0.205 C 
ATOM     11  C   UNL     1      29.486  20.769  14.966  0.00  0.00    +0.233 C 
ATOM     12  O   UNL     1      29.286  21.394  13.921  0.00  0.00    -0.274 OA
ATOM     13  H   UNL     1      28.528  15.514  16.053  0.00  0.00    +0.151 HD
BRANCH   3  15
ATOM     14  C   UNL     1      30.386  23.522  16.985  0.00  0.00    +0.024 C 
ATOM     15  C   UNL     1      30.844  22.573  15.892  0.00  0.00    +0.104 C 
ENDBRANCH   3  15
ENDBRANCH   1   9
BRANCH   1  16
ATOM     16  C   UNL     1      29.786  15.876  13.549  0.00  0.00    -0.024 A 
ATOM     17  C   UNL     1      29.734  15.018  12.444  0.00  0.00    +0.009 A 
ATOM     18  C   UNL     1      30.901  14.487  11.894  0.00  0.00    +0.049 A 
ATOM     19  C   UNL     1      32.149  14.771  12.465  0.00  0.00    +0.156 A 
ATOM     20  C   UNL     1      32.204  15.654  13.540  0.00  0.00    +0.165 A 
ATOM     21  F   UNL     1      33.384  15.984  14.090  0.00  0.00    -0.202 F 
ATOM     22  C   UNL     1      31.043  16.195  14.090  0.00  0.00    +0.047 A 
BRANCH  19  23
ATOM     23  O   UNL     1      33.332  14.232  12.043  0.00  0.00    -0.489 OA
BRANCH  23  24
ATOM     24  C   UNL     1      33.627  14.434  10.661  0.00  0.00    +0.232 C 
BRANCH  24  25
ATOM     25  C   UNL     1      34.159  15.817  10.464  0.00  0.00    +0.027 C 
ATOM     26  C   UNL     1      33.241  16.892   9.938  0.00  0.00    +0.007 C 
ATOM     27  C   UNL     1      34.354  16.367   9.073  0.00  0.00    +0.007 C 
ENDBRANCH  24  25
ENDBRANCH  23  24
ENDBRANCH  19  23
ENDBRANCH   1  16
TORSDOF 6
ENDMDL
MODEL 5
REMARK VINA RESULT:      -6.7      2.518      3.765
REMARK  Name = ZINC000543478179
REMARK  8 active torsions:
REMARK  status: ('A' for Active; 'I' for Inactive)
REMARK    1  A    between atoms: C_1  and  C_2
REMARK    2  A    between atoms: C_2  and  N_3
REMARK    3  A    between atoms: N_9  and  C_10
REMARK    4  A    between atoms: C_10  and  C_11
REMARK    5  A    between atoms: C_10  and  C_12
REMARK    6  A    between atoms: C_15  and  O_16
REMARK    7  A    between atoms: O_16  and  C_17
REMARK    8  A    between atoms: C_17  and  C_18
REMARK                            x       y       z     vdW  Elec       q    Type
REMARK                         _______ _______ _______ _____ _____    ______ ____
ROOT
ATOM      1  C   UNL     1      30.673  21.303  15.664  0.00  0.00    +0.102 C 
ATOM      2  C   UNL     1      30.473  22.136  14.396  0.00  0.00    +0.033 C 
ENDROOT
BRANCH   1   9
ATOM      3  N   UNL     1      34.180  21.356  19.822  0.00  0.00    -0.299 N 
ATOM      4  C   UNL     1      32.981  21.739  20.565  0.00  0.00    +0.127 C 
ATOM      5  C   UNL     1      32.139  22.763  19.798  0.00  0.00    +0.129 C 
ATOM      6  N   UNL     1      31.773  22.238  18.480  0.00  0.00    -0.275 N 
ATOM      7  C   UNL     1      30.485  22.371  18.044  0.00  0.00    +0.303 C 
ATOM      8  O   UNL     1      29.619  22.906  18.744  0.00  0.00    -0.253 OA
ATOM      9  N   UNL     1      30.067  21.921  16.840  0.00  0.00    -0.293 N 
ATOM     10  C   UNL     1      32.869  21.624  17.746  0.00  0.00    +0.205 C 
ATOM     11  C   UNL     1      34.210  21.393  18.442  0.00  0.00    +0.233 C 
ATOM     12  O   UNL     1      35.215  21.126  17.777  0.00  0.00    -0.274 OA
ATOM     13  H   UNL     1      29.077  22.114  16.754  0.00  0.00    +0.151 HD
BRANCH   3  15
ATOM     14  C   UNL     1      34.989  20.422  21.934  0.00  0.00    +0.024 C 
ATOM     15  C   UNL     1      35.355  20.898  20.540  0.00  0.00    +0.104 C 
ENDBRANCH   3  15
ENDBRANCH   1   9
BRANCH   1  16
ATOM     16  C   UNL     1      30.163  19.883  15.502  0.00  0.00    -0.024 A 
ATOM     17  C   UNL     1      30.989  18.854  15.036  0.00  0.00    +0.009 A 
ATOM     18  C   UNL     1      30.496  17.558  14.873  0.00  0.00    +0.049 A 
ATOM     19  C   UNL     1      29.150  17.272  15.135  0.00  0.00    +0.156 A 
ATOM     20  C   UNL     1      28.338  18.287  15.635  0.00  0.00    +0.165 A 
ATOM     21  F   UNL     1      27.053  18.044  15.938  0.00  0.00    -0.202 F 
ATOM     22  C   UNL     1      28.825  19.581  15.808  0.00  0.00    +0.047 A 
BRANCH  19  23
ATOM     23  O   UNL     1      28.565  16.055  14.927  0.00  0.00    -0.489 OA
BRANCH  23  24
ATOM     24  C   UNL     1      27.961  15.887  13.644  0.00  0.00    +0.232 C 
BRANCH  24  25
ATOM     25  C   UNL     1      28.648  14.777  12.914  0.00  0.00    +0.027 C 
ATOM     26  C   UNL     1      30.033  15.005  12.361  0.00  0.00    +0.007 C 
ATOM     27  C   UNL     1      28.865  14.865  11.424  0.00  0.00    +0.007 C 
ENDBRANCH  24  25
ENDBRANCH  23  24
ENDBRANCH  19  23
ENDBRANCH   1  16
TORSDOF 6
ENDMDL
MODEL 6
REMARK VINA RESULT:      -6.5      2.606      3.269
REMARK  Name = ZINC000543478179
REMARK  8 active torsions:
REMARK  status: ('A' for Active; 'I' for Inactive)
REMARK    1  A    between atoms: C_1  and  C_2
REMARK    2  A    between atoms: C_2  and  N_3
REMARK    3  A    between atoms: N_9  and  C_10
REMARK    4  A    between atoms: C_10  and  C_11
REMARK    5  A    between atoms: C_10  and  C_12
REMARK    6  A    between atoms: C_15  and  O_16
REMARK    7  A    between atoms: O_16  and  C_17
REMARK    8  A    between atoms: C_17  and  C_18
REMARK                            x       y       z     vdW  Elec       q    Type
REMARK                         _______ _______ _______ _____ _____    ______ ____
ROOT
ATOM      1  C   UNL     1      30.585  22.487  18.242  0.00  0.00    +0.102 C 
ATOM      2  C   UNL     1      29.650  23.678  18.466  0.00  0.00    +0.033 C 
ENDROOT
BRANCH   1   9
ATOM      3  N   UNL     1      35.744  24.072  17.566  0.00  0.00    -0.299 N 
ATOM      4  C   UNL     1      35.935  23.276  18.777  0.00  0.00    +0.127 C 
ATOM      5  C   UNL     1      34.816  23.513  19.795  0.00  0.00    +0.129 C 
ATOM      6  N   UNL     1      33.511  23.220  19.197  0.00  0.00    -0.275 N 
ATOM      7  C   UNL     1      32.605  22.479  19.902  0.00  0.00    +0.303 C 
ATOM      8  O   UNL     1      32.870  22.033  21.023  0.00  0.00    -0.253 OA
ATOM      9  N   UNL     1      31.379  22.170  19.425  0.00  0.00    -0.293 N 
ATOM     10  C   UNL     1      33.310  23.789  17.873  0.00  0.00    +0.205 C 
ATOM     11  C   UNL     1      34.484  24.444  17.145  0.00  0.00    +0.233 C 
ATOM     12  O   UNL     1      34.280  25.156  16.157  0.00  0.00    -0.274 OA
ATOM     13  H   UNL     1      30.904  21.599  20.114  0.00  0.00    +0.151 HD
BRANCH   3  15
ATOM     14  C   UNL     1      37.349  23.308  15.883  0.00  0.00    +0.024 C 
ATOM     15  C   UNL     1      36.895  24.454  16.769  0.00  0.00    +0.104 C 
ENDBRANCH   3  15
ENDBRANCH   1   9
BRANCH   1  16
ATOM     16  C   UNL     1      29.836  21.253  17.772  0.00  0.00    -0.024 A 
ATOM     17  C   UNL     1      30.474  20.014  17.638  0.00  0.00    +0.009 A 
ATOM     18  C   UNL     1      29.774  18.894  17.185  0.00  0.00    +0.049 A 
ATOM     19  C   UNL     1      28.426  19.000  16.817  0.00  0.00    +0.156 A 
ATOM     20  C   UNL     1      27.782  20.223  16.987  0.00  0.00    +0.165 A 
ATOM     21  F   UNL     1      26.481  20.355  16.685  0.00  0.00    -0.202 F 
ATOM     22  C   UNL     1      28.473  21.343  17.446  0.00  0.00    +0.047 A 
BRANCH  19  23
ATOM     23  O   UNL     1      27.688  17.978  16.289  0.00  0.00    -0.489 OA
BRANCH  23  24
ATOM     24  C   UNL     1      28.449  16.866  15.818  0.00  0.00    +0.232 C 
BRANCH  24  25
ATOM     25  C   UNL     1      28.398  16.828  14.323  0.00  0.00    +0.027 C 
ATOM     26  C   UNL     1      27.751  15.650  13.638  0.00  0.00    +0.007 C 
ATOM     27  C   UNL     1      29.241  15.838  13.559  0.00  0.00    +0.007 C 
ENDBRANCH  24  25
ENDBRANCH  23  24
ENDBRANCH  19  23
ENDBRANCH   1  16
TORSDOF 6
ENDMDL
MODEL 7
REMARK VINA RESULT:      -6.4      1.426      1.959
REMARK  Name = ZINC000543478179
REMARK  8 active torsions:
REMARK  status: ('A' for Active; 'I' for Inactive)
REMARK    1  A    between atoms: C_1  and  C_2
REMARK    2  A    between atoms: C_2  and  N_3
REMARK    3  A    between atoms: N_9  and  C_10
REMARK    4  A    between atoms: C_10  and  C_11
REMARK    5  A    between atoms: C_10  and  C_12
REMARK    6  A    between atoms: C_15  and  O_16
REMARK    7  A    between atoms: O_16  and  C_17
REMARK    8  A    between atoms: C_17  and  C_18
REMARK                            x       y       z     vdW  Elec       q    Type
REMARK                         _______ _______ _______ _____ _____    ______ ____
ROOT
ATOM      1  C   UNL     1      29.794  21.238  16.999  0.00  0.00    +0.102 C 
ATOM      2  C   UNL     1      28.711  21.429  18.063  0.00  0.00    +0.033 C 
ENDROOT
BRANCH   1   9
ATOM      3  N   UNL     1      32.847  23.663  13.206  0.00  0.00    -0.299 N 
ATOM      4  C   UNL     1      33.913  23.361  14.159  0.00  0.00    +0.127 C 
ATOM      5  C   UNL     1      33.484  23.646  15.601  0.00  0.00    +0.129 C 
ATOM      6  N   UNL     1      32.275  22.886  15.935  0.00  0.00    -0.275 N 
ATOM      7  C   UNL     1      32.213  22.221  17.126  0.00  0.00    +0.303 C 
ATOM      8  O   UNL     1      33.161  22.229  17.919  0.00  0.00    -0.253 OA
ATOM      9  N   UNL     1      31.135  21.505  17.512  0.00  0.00    -0.293 N 
ATOM     10  C   UNL     1      31.228  22.943  14.927  0.00  0.00    +0.205 C 
ATOM     11  C   UNL     1      31.517  23.583  13.569  0.00  0.00    +0.233 C 
ATOM     12  O   UNL     1      30.588  23.877  12.813  0.00  0.00    -0.274 OA
ATOM     13  H   UNL     1      31.334  21.090  18.414  0.00  0.00    +0.151 HD
BRANCH   3  15
ATOM     14  C   UNL     1      33.614  22.807  11.046  0.00  0.00    +0.024 C 
ATOM     15  C   UNL     1      33.184  24.025  11.842  0.00  0.00    +0.104 C 
ENDBRANCH   3  15
ENDBRANCH   1   9
BRANCH   1  16
ATOM     16  C   UNL     1      29.742  19.856  16.373  0.00  0.00    -0.024 A 
ATOM     17  C   UNL     1      30.902  19.201  15.941  0.00  0.00    +0.009 A 
ATOM     18  C   UNL     1      30.832  17.939  15.349  0.00  0.00    +0.049 A 
ATOM     19  C   UNL     1      29.593  17.319  15.140  0.00  0.00    +0.156 A 
ATOM     20  C   UNL     1      28.444  17.954  15.605  0.00  0.00    +0.165 A 
ATOM     21  F   UNL     1      27.241  17.374  15.460  0.00  0.00    -0.202 F 
ATOM     22  C   UNL     1      28.506  19.210  16.203  0.00  0.00    +0.047 A 
BRANCH  19  23
ATOM     23  O   UNL     1      29.426  16.124  14.497  0.00  0.00    -0.489 OA
BRANCH  23  24
ATOM     24  C   UNL     1      30.452  15.795  13.561  0.00  0.00    +0.232 C 
BRANCH  24  25
ATOM     25  C   UNL     1      29.829  15.402  12.259  0.00  0.00    +0.027 C 
ATOM     26  C   UNL     1      28.339  15.179  12.194  0.00  0.00    +0.007 C 
ATOM     27  C   UNL     1      29.278  14.011  12.069  0.00  0.00    +0.007 C 
ENDBRANCH  24  25
ENDBRANCH  23  24
ENDBRANCH  19  23
ENDBRANCH   1  16
TORSDOF 6
ENDMDL
MODEL 8
REMARK VINA RESULT:      -6.4      3.384      5.450
REMARK  Name = ZINC000543478179
REMARK  8 active torsions:
REMARK  status: ('A' for Active; 'I' for Inactive)
REMARK    1  A    between atoms: C_1  and  C_2
REMARK    2  A    between atoms: C_2  and  N_3
REMARK    3  A    between atoms: N_9  and  C_10
REMARK    4  A    between atoms: C_10  and  C_11
REMARK    5  A    between atoms: C_10  and  C_12
REMARK    6  A    between atoms: C_15  and  O_16
REMARK    7  A    between atoms: O_16  and  C_17
REMARK    8  A    between atoms: C_17  and  C_18
REMARK                            x       y       z     vdW  Elec       q    Type
REMARK                         _______ _______ _______ _____ _____    ______ ____
ROOT
ATOM      1  C   UNL     1      28.704  16.523  14.225  0.00  0.00    +0.102 C 
ATOM      2  C   UNL     1      27.548  15.716  13.627  0.00  0.00    +0.033 C 
ENDROOT
BRANCH   1   9
ATOM      3  N   UNL     1      30.074  21.455  16.062  0.00  0.00    -0.299 N 
ATOM      4  C   UNL     1      30.121  20.745  17.339  0.00  0.00    +0.127 C 
ATOM      5  C   UNL     1      28.942  19.780  17.496  0.00  0.00    +0.129 C 
ATOM      6  N   UNL     1      28.913  18.824  16.385  0.00  0.00    -0.275 N 
ATOM      7  C   UNL     1      28.713  17.500  16.650  0.00  0.00    +0.303 C 
ATOM      8  O   UNL     1      28.578  17.087  17.806  0.00  0.00    -0.253 OA
ATOM      9  N   UNL     1      28.666  16.556  15.684  0.00  0.00    -0.293 N 
ATOM     10  C   UNL     1      29.088  19.420  15.069  0.00  0.00    +0.205 C 
ATOM     11  C   UNL     1      29.478  20.894  14.951  0.00  0.00    +0.233 C 
ATOM     12  O   UNL     1      29.373  21.477  13.869  0.00  0.00    -0.274 OA
ATOM     13  H   UNL     1      28.532  15.654  16.125  0.00  0.00    +0.151 HD
BRANCH   3  15
ATOM     14  C   UNL     1      30.323  23.647  17.122  0.00  0.00    +0.024 C 
ATOM     15  C   UNL     1      30.692  22.763  15.945  0.00  0.00    +0.104 C 
ENDBRANCH   3  15
ENDBRANCH   1   9
BRANCH   1  16
ATOM     16  C   UNL     1      30.055  16.020  13.751  0.00  0.00    -0.024 A 
ATOM     17  C   UNL     1      31.245  16.411  14.376  0.00  0.00    +0.009 A 
ATOM     18  C   UNL     1      32.481  15.955  13.914  0.00  0.00    +0.049 A 
ATOM     19  C   UNL     1      32.555  15.128  12.785  0.00  0.00    +0.156 A 
ATOM     20  C   UNL     1      31.370  14.708  12.187  0.00  0.00    +0.165 A 
ATOM     21  F   UNL     1      31.397  13.882  11.129  0.00  0.00    -0.202 F 
ATOM     22  C   UNL     1      30.132  15.153  12.648  0.00  0.00    +0.047 A 
BRANCH  19  23
ATOM     23  O   UNL     1      33.723  14.701  12.217  0.00  0.00    -0.489 OA
BRANCH  23  24
ATOM     24  C   UNL     1      34.722  14.273  13.143  0.00  0.00    +0.232 C 
BRANCH  24  25
ATOM     25  C   UNL     1      34.404  12.889  13.612  0.00  0.00    +0.027 C 
ATOM     26  C   UNL     1      34.638  12.529  15.057  0.00  0.00    +0.007 C 
ATOM     27  C   UNL     1      35.513  11.938  13.986  0.00  0.00    +0.007 C 
ENDBRANCH  24  25
ENDBRANCH  23  24
ENDBRANCH  19  23
ENDBRANCH   1  16
TORSDOF 6
ENDMDL
MODEL 9
REMARK VINA RESULT:      -6.4      3.371      7.500
REMARK  Name = ZINC000543478179
REMARK  8 active torsions:
REMARK  status: ('A' for Active; 'I' for Inactive)
REMARK    1  A    between atoms: C_1  and  C_2
REMARK    2  A    between atoms: C_2  and  N_3
REMARK    3  A    between atoms: N_9  and  C_10
REMARK    4  A    between atoms: C_10  and  C_11
REMARK    5  A    between atoms: C_10  and  C_12
REMARK    6  A    between atoms: C_15  and  O_16
REMARK    7  A    between atoms: O_16  and  C_17
REMARK    8  A    between atoms: C_17  and  C_18
REMARK                            x       y       z     vdW  Elec       q    Type
REMARK                         _______ _______ _______ _____ _____    ______ ____
ROOT
ATOM      1  C   UNL     1      32.667  22.641  14.992  0.00  0.00    +0.102 C 
ATOM      2  C   UNL     1      33.996  22.843  15.723  0.00  0.00    +0.033 C 
ENDROOT
BRANCH   1   9
ATOM      3  N   UNL     1      29.257  18.774  16.727  0.00  0.00    -0.299 N 
ATOM      4  C   UNL     1      28.403  19.931  16.994  0.00  0.00    +0.127 C 
ATOM      5  C   UNL     1      29.190  21.088  17.614  0.00  0.00    +0.129 C 
ATOM      6  N   UNL     1      30.305  21.472  16.743  0.00  0.00    -0.275 N 
ATOM      7  C   UNL     1      30.531  22.795  16.493  0.00  0.00    +0.303 C 
ATOM      8  O   UNL     1      29.804  23.674  16.968  0.00  0.00    -0.253 OA
ATOM      9  N   UNL     1      31.540  23.233  15.708  0.00  0.00    -0.293 N 
ATOM     10  C   UNL     1      31.089  20.356  16.237  0.00  0.00    +0.205 C 
ATOM     11  C   UNL     1      30.603  18.924  16.463  0.00  0.00    +0.233 C 
ATOM     12  O   UNL     1      31.369  17.975  16.282  0.00  0.00    -0.274 OA
ATOM     13  H   UNL     1      31.489  24.243  15.656  0.00  0.00    +0.151 HD
BRANCH   3  15
ATOM     14  C   UNL     1      28.705  16.818  18.089  0.00  0.00    +0.024 C 
ATOM     15  C   UNL     1      28.678  17.444  16.707  0.00  0.00    +0.104 C 
ENDBRANCH   3  15
ENDBRANCH   1   9
BRANCH   1  16
ATOM     16  C   UNL     1      32.712  23.165  13.569  0.00  0.00    -0.024 A 
ATOM     17  C   UNL     1      33.591  22.634  12.618  0.00  0.00    +0.009 A 
ATOM     18  C   UNL     1      33.633  23.143  11.319  0.00  0.00    +0.049 A 
ATOM     19  C   UNL     1      32.822  24.225  10.953  0.00  0.00    +0.156 A 
ATOM     20  C   UNL     1      31.921  24.728  11.888  0.00  0.00    +0.165 A 
ATOM     21  F   UNL     1      31.098  25.738  11.564  0.00  0.00    -0.202 F 
ATOM     22  C   UNL     1      31.868  24.220  13.185  0.00  0.00    +0.047 A 
BRANCH  19  23
ATOM     23  O   UNL     1      32.856  24.837   9.731  0.00  0.00    -0.489 OA
BRANCH  23  24
ATOM     24  C   UNL     1      33.860  24.350   8.841  0.00  0.00    +0.232 C 
BRANCH  24  25
ATOM     25  C   UNL     1      33.207  23.671   7.680  0.00  0.00    +0.027 C 
ATOM     26  C   UNL     1      32.523  22.344   7.892  0.00  0.00    +0.007 C 
ATOM     27  C   UNL     1      33.802  22.411   7.102  0.00  0.00    +0.007 C 
ENDBRANCH  24  25
ENDBRANCH  23  24
ENDBRANCH  19  23
ENDBRANCH   1  16
TORSDOF 6
ENDMDL
