MODEL 1
REMARK VINA RESULT:      -6.5      0.000      0.000
REMARK  Name = ZINC000870248439
REMARK  2 active torsions:
REMARK  status: ('A' for Active; 'I' for Inactive)
REMARK    1  A    between atoms: C_2  and  C_4
REMARK    2  A    between atoms: C_7  and  C_8
REMARK                            x       y       z     vdW  Elec       q    Type
REMARK                         _______ _______ _______ _____ _____    ______ ____
ROOT
ATOM      1  C   UNL     1      31.944  22.515  16.055  0.00  0.00    +0.247 C 
ATOM      2  O   UNL     1      32.725  21.648  16.446  0.00  0.00    -0.270 OA
ATOM      3  N   UNL     1      32.233  23.387  14.997  0.00  0.00    -0.297 N 
ATOM      4  C   UNL     1      31.345  24.423  14.477  0.00  0.00    +0.108 C 
ATOM      5  C   UNL     1      31.299  24.477  12.963  0.00  0.00    +0.026 C 
ATOM      6  C   UNL     1      32.700  24.554  12.330  0.00  0.00    -0.025 C 
ATOM      7  C   UNL     1      32.528  24.373  10.805  0.00  0.00    +0.017 C 
ATOM      8  C   UNL     1      33.820  24.480  10.006  0.00  0.00    +0.069 C 
ATOM      9  S   UNL     1      34.633  26.090  10.211  0.00  0.00    -0.161 S 
ATOM     10  C   UNL     1      34.685  26.172  12.020  0.00  0.00    +0.069 C 
ATOM     11  C   UNL     1      33.307  25.949  12.625  0.00  0.00    +0.017 C 
ATOM     12  C   UNL     1      33.545  23.391  12.923  0.00  0.00    +0.026 C 
ATOM     13  C   UNL     1      33.585  23.396  14.450  0.00  0.00    +0.108 C 
ENDROOT
BRANCH   1  17
ATOM     14  C   UNL     1      28.247  22.527  18.192  0.00  0.00    +0.037 A 
ATOM     15  C   UNL     1      28.419  21.642  17.127  0.00  0.00    +0.014 A 
ATOM     16  C   UNL     1      29.572  21.715  16.357  0.00  0.00    +0.014 A 
ATOM     17  C   UNL     1      30.610  22.588  16.708  0.00  0.00    +0.037 A 
ATOM     18  C   UNL     1      30.412  23.520  17.732  0.00  0.00    +0.014 A 
ATOM     19  C   UNL     1      29.222  23.495  18.467  0.00  0.00    +0.014 A 
BRANCH  14  21
ATOM     20  N   UNL     1      25.824  22.530  18.367  0.00  0.00    -0.325 N 
ATOM     21  C   UNL     1      27.024  22.456  19.025  0.00  0.00    +0.242 C 
ATOM     22  O   UNL     1      27.084  22.309  20.239  0.00  0.00    -0.270 OA
ATOM     23  H   UNL     1      25.000  22.384  18.944  0.00  0.00    +0.145 HD
ATOM     24  H   UNL     1      25.737  22.376  17.377  0.00  0.00    +0.145 HD
ENDBRANCH  14  21
ENDBRANCH   1  17
TORSDOF 2
ENDMDL
MODEL 2
REMARK VINA RESULT:      -6.5      2.903      4.536
REMARK  Name = ZINC000870248439
REMARK  2 active torsions:
REMARK  status: ('A' for Active; 'I' for Inactive)
REMARK    1  A    between atoms: C_2  and  C_4
REMARK    2  A    between atoms: C_7  and  C_8
REMARK                            x       y       z     vdW  Elec       q    Type
REMARK                         _______ _______ _______ _____ _____    ______ ____
ROOT
ATOM      1  C   UNL     1      30.928  22.166  15.603  0.00  0.00    +0.247 C 
ATOM      2  O   UNL     1      29.771  22.430  15.932  0.00  0.00    -0.270 OA
ATOM      3  N   UNL     1      31.661  22.938  14.693  0.00  0.00    -0.297 N 
ATOM      4  C   UNL     1      33.038  22.687  14.275  0.00  0.00    +0.108 C 
ATOM      5  C   UNL     1      33.894  23.937  14.230  0.00  0.00    +0.026 C 
ATOM      6  C   UNL     1      33.246  25.069  13.414  0.00  0.00    -0.025 C 
ATOM      7  C   UNL     1      34.096  26.341  13.634  0.00  0.00    +0.017 C 
ATOM      8  C   UNL     1      33.628  27.558  12.847  0.00  0.00    +0.069 C 
ATOM      9  S   UNL     1      33.641  27.274  11.054  0.00  0.00    -0.161 S 
ATOM     10  C   UNL     1      32.685  25.737  10.986  0.00  0.00    +0.069 C 
ATOM     11  C   UNL     1      33.267  24.680  11.913  0.00  0.00    +0.017 C 
ATOM     12  C   UNL     1      31.806  25.276  13.962  0.00  0.00    +0.026 C 
ATOM     13  C   UNL     1      30.973  23.995  13.962  0.00  0.00    +0.108 C 
ENDROOT
BRANCH   1  17
ATOM     14  C   UNL     1      33.104  18.906  17.300  0.00  0.00    +0.037 A 
ATOM     15  C   UNL     1      32.240  18.670  16.230  0.00  0.00    +0.014 A 
ATOM     16  C   UNL     1      31.444  19.703  15.752  0.00  0.00    +0.014 A 
ATOM     17  C   UNL     1      31.583  21.002  16.257  0.00  0.00    +0.037 A 
ATOM     18  C   UNL     1      32.398  21.226  17.371  0.00  0.00    +0.014 A 
ATOM     19  C   UNL     1      33.150  20.172  17.900  0.00  0.00    +0.014 A 
BRANCH  14  21
ATOM     20  N   UNL     1      35.111  18.186  18.463  0.00  0.00    -0.325 N 
ATOM     21  C   UNL     1      33.962  17.814  17.816  0.00  0.00    +0.242 C 
ATOM     22  O   UNL     1      33.643  16.639  17.695  0.00  0.00    -0.270 OA
ATOM     23  H   UNL     1      35.635  17.428  18.892  0.00  0.00    +0.145 HD
ATOM     24  H   UNL     1      35.260  19.117  18.813  0.00  0.00    +0.145 HD
ENDBRANCH  14  21
ENDBRANCH   1  17
TORSDOF 2
ENDMDL
MODEL 3
REMARK VINA RESULT:      -6.5      4.263      7.171
REMARK  Name = ZINC000870248439
REMARK  2 active torsions:
REMARK  status: ('A' for Active; 'I' for Inactive)
REMARK    1  A    between atoms: C_2  and  C_4
REMARK    2  A    between atoms: C_7  and  C_8
REMARK                            x       y       z     vdW  Elec       q    Type
REMARK                         _______ _______ _______ _____ _____    ______ ____
ROOT
ATOM      1  C   UNL     1      31.349  23.161  14.378  0.00  0.00    +0.247 C 
ATOM      2  O   UNL     1      30.224  23.115  14.875  0.00  0.00    -0.270 OA
ATOM      3  N   UNL     1      32.206  22.054  14.317  0.00  0.00    -0.297 N 
ATOM      4  C   UNL     1      33.543  22.040  13.728  0.00  0.00    +0.108 C 
ATOM      5  C   UNL     1      33.813  20.820  12.871  0.00  0.00    +0.026 C 
ATOM      6  C   UNL     1      33.496  19.502  13.600  0.00  0.00    -0.025 C 
ATOM      7  C   UNL     1      33.592  18.364  12.559  0.00  0.00    +0.017 C 
ATOM      8  C   UNL     1      33.362  16.969  13.124  0.00  0.00    +0.069 C 
ATOM      9  S   UNL     1      34.558  16.538  14.420  0.00  0.00    -0.161 S 
ATOM     10  C   UNL     1      34.372  17.986  15.494  0.00  0.00    +0.069 C 
ATOM     11  C   UNL     1      34.549  19.280  14.715  0.00  0.00    +0.017 C 
ATOM     12  C   UNL     1      32.047  19.611  14.153  0.00  0.00    +0.026 C 
ATOM     13  C   UNL     1      31.831  20.841  15.033  0.00  0.00    +0.108 C 
ENDROOT
BRANCH   1  17
ATOM     14  C   UNL     1      32.854  26.667  12.459  0.00  0.00    +0.037 A 
ATOM     15  C   UNL     1      33.174  26.427  13.796  0.00  0.00    +0.014 A 
ATOM     16  C   UNL     1      32.593  25.352  14.456  0.00  0.00    +0.014 A 
ATOM     17  C   UNL     1      31.781  24.444  13.764  0.00  0.00    +0.037 A 
ATOM     18  C   UNL     1      31.407  24.720  12.445  0.00  0.00    +0.014 A 
ATOM     19  C   UNL     1      31.936  25.841  11.797  0.00  0.00    +0.014 A 
BRANCH  14  21
ATOM     20  N   UNL     1      33.459  29.018  12.382  0.00  0.00    -0.325 N 
ATOM     21  C   UNL     1      33.470  27.807  11.741  0.00  0.00    +0.242 C 
ATOM     22  O   UNL     1      33.990  27.665  10.642  0.00  0.00    -0.270 OA
ATOM     23  H   UNL     1      33.970  29.763  11.916  0.00  0.00    +0.145 HD
ATOM     24  H   UNL     1      33.295  29.109  13.370  0.00  0.00    +0.145 HD
ENDBRANCH  14  21
ENDBRANCH   1  17
TORSDOF 2
ENDMDL
MODEL 4
REMARK VINA RESULT:      -6.4      4.545      7.561
REMARK  Name = ZINC000870248439
REMARK  2 active torsions:
REMARK  status: ('A' for Active; 'I' for Inactive)
REMARK    1  A    between atoms: C_2  and  C_4
REMARK    2  A    between atoms: C_7  and  C_8
REMARK                            x       y       z     vdW  Elec       q    Type
REMARK                         _______ _______ _______ _____ _____    ______ ____
ROOT
ATOM      1  C   UNL     1      30.673  22.957  17.310  0.00  0.00    +0.247 C 
ATOM      2  O   UNL     1      29.496  23.286  17.162  0.00  0.00    -0.270 OA
ATOM      3  N   UNL     1      31.497  23.488  18.311  0.00  0.00    -0.297 N 
ATOM      4  C   UNL     1      32.893  23.128  18.548  0.00  0.00    +0.108 C 
ATOM      5  C   UNL     1      33.226  22.930  20.013  0.00  0.00    +0.026 C 
ATOM      6  C   UNL     1      32.784  24.117  20.887  0.00  0.00    -0.025 C 
ATOM      7  C   UNL     1      32.969  23.697  22.363  0.00  0.00    +0.017 C 
ATOM      8  C   UNL     1      32.631  24.782  23.377  0.00  0.00    +0.069 C 
ATOM      9  S   UNL     1      33.652  26.269  23.168  0.00  0.00    -0.161 S 
ATOM     10  C   UNL     1      33.383  26.573  21.402  0.00  0.00    +0.069 C 
ATOM     11  C   UNL     1      33.691  25.334  20.574  0.00  0.00    +0.017 C 
ATOM     12  C   UNL     1      31.284  24.389  20.584  0.00  0.00    +0.026 C 
ATOM     13  C   UNL     1      31.003  24.611  19.099  0.00  0.00    +0.108 C 
ENDROOT
BRANCH   1  17
ATOM     14  C   UNL     1      31.944  19.979  14.525  0.00  0.00    +0.037 A 
ATOM     15  C   UNL     1      31.281  19.589  15.689  0.00  0.00    +0.014 A 
ATOM     16  C   UNL     1      30.970  20.542  16.651  0.00  0.00    +0.014 A 
ATOM     17  C   UNL     1      31.213  21.901  16.414  0.00  0.00    +0.037 A 
ATOM     18  C   UNL     1      31.936  22.285  15.280  0.00  0.00    +0.014 A 
ATOM     19  C   UNL     1      32.312  21.319  14.341  0.00  0.00    +0.014 A 
BRANCH  14  21
ATOM     20  N   UNL     1      32.810  19.448  12.319  0.00  0.00    -0.325 N 
ATOM     21  C   UNL     1      32.277  18.974  13.489  0.00  0.00    +0.242 C 
ATOM     22  O   UNL     1      32.111  17.777  13.682  0.00  0.00    -0.270 OA
ATOM     23  H   UNL     1      33.119  18.737  11.661  0.00  0.00    +0.145 HD
ATOM     24  H   UNL     1      33.206  20.369  12.235  0.00  0.00    +0.145 HD
ENDBRANCH  14  21
ENDBRANCH   1  17
TORSDOF 2
ENDMDL
MODEL 5
REMARK VINA RESULT:      -6.3      4.397      7.466
REMARK  Name = ZINC000870248439
REMARK  2 active torsions:
REMARK  status: ('A' for Active; 'I' for Inactive)
REMARK    1  A    between atoms: C_2  and  C_4
REMARK    2  A    between atoms: C_7  and  C_8
REMARK                            x       y       z     vdW  Elec       q    Type
REMARK                         _______ _______ _______ _____ _____    ______ ____
ROOT
ATOM      1  C   UNL     1      30.303  23.005  17.231  0.00  0.00    +0.247 C 
ATOM      2  O   UNL     1      29.115  23.326  17.195  0.00  0.00    -0.270 OA
ATOM      3  N   UNL     1      31.205  23.508  18.178  0.00  0.00    -0.297 N 
ATOM      4  C   UNL     1      32.618  23.156  18.282  0.00  0.00    +0.108 C 
ATOM      5  C   UNL     1      33.076  22.907  19.705  0.00  0.00    +0.026 C 
ATOM      6  C   UNL     1      32.701  24.055  20.658  0.00  0.00    -0.025 C 
ATOM      7  C   UNL     1      33.014  23.582  22.096  0.00  0.00    +0.017 C 
ATOM      8  C   UNL     1      32.754  24.625  23.175  0.00  0.00    +0.069 C 
ATOM      9  S   UNL     1      33.741  26.131  22.938  0.00  0.00    -0.161 S 
ATOM     10  C   UNL     1      33.321  26.497  21.214  0.00  0.00    +0.069 C 
ATOM     11  C   UNL     1      33.567  25.294  20.316  0.00  0.00    +0.017 C 
ATOM     12  C   UNL     1      31.178  24.321  20.493  0.00  0.00    +0.026 C 
ATOM     13  C   UNL     1      30.770  24.595  19.047  0.00  0.00    +0.108 C 
ENDROOT
BRANCH   1  17
ATOM     14  C   UNL     1      31.950  20.056  14.617  0.00  0.00    +0.037 A 
ATOM     15  C   UNL     1      32.052  21.406  14.278  0.00  0.00    +0.014 A 
ATOM     16  C   UNL     1      31.417  22.359  15.064  0.00  0.00    +0.014 A 
ATOM     17  C   UNL     1      30.774  21.990  16.252  0.00  0.00    +0.037 A 
ATOM     18  C   UNL     1      30.614  20.634  16.557  0.00  0.00    +0.014 A 
ATOM     19  C   UNL     1      31.193  19.667  15.730  0.00  0.00    +0.014 A 
BRANCH  14  21
ATOM     20  N   UNL     1      32.810  19.328  12.465  0.00  0.00    -0.325 N 
ATOM     21  C   UNL     1      32.626  19.030  13.790  0.00  0.00    +0.242 C 
ATOM     22  O   UNL     1      33.026  17.980  14.275  0.00  0.00    -0.270 OA
ATOM     23  H   UNL     1      33.359  18.654  11.938  0.00  0.00    +0.145 HD
ATOM     24  H   UNL     1      32.746  20.265  12.105  0.00  0.00    +0.145 HD
ENDBRANCH  14  21
ENDBRANCH   1  17
TORSDOF 2
ENDMDL
MODEL 6
REMARK VINA RESULT:      -6.1      3.843      5.150
REMARK  Name = ZINC000870248439
REMARK  2 active torsions:
REMARK  status: ('A' for Active; 'I' for Inactive)
REMARK    1  A    between atoms: C_2  and  C_4
REMARK    2  A    between atoms: C_7  and  C_8
REMARK                            x       y       z     vdW  Elec       q    Type
REMARK                         _______ _______ _______ _____ _____    ______ ____
ROOT
ATOM      1  C   UNL     1      31.563  22.281  15.782  0.00  0.00    +0.247 C 
ATOM      2  O   UNL     1      32.204  23.282  15.464  0.00  0.00    -0.270 OA
ATOM      3  N   UNL     1      31.967  20.978  15.462  0.00  0.00    -0.297 N 
ATOM      4  C   UNL     1      31.260  19.752  15.824  0.00  0.00    +0.108 C 
ATOM      5  C   UNL     1      32.173  18.655  16.333  0.00  0.00    +0.026 C 
ATOM      6  C   UNL     1      33.352  18.377  15.383  0.00  0.00    -0.025 C 
ATOM      7  C   UNL     1      34.318  17.418  16.115  0.00  0.00    +0.017 C 
ATOM      8  C   UNL     1      35.525  16.986  15.292  0.00  0.00    +0.069 C 
ATOM      9  S   UNL     1      35.053  16.123  13.766  0.00  0.00    -0.161 S 
ATOM     10  C   UNL     1      33.886  17.331  13.086  0.00  0.00    +0.069 C 
ATOM     11  C   UNL     1      32.812  17.696  14.100  0.00  0.00    +0.017 C 
ATOM     12  C   UNL     1      34.051  19.736  15.095  0.00  0.00    +0.026 C 
ATOM     13  C   UNL     1      33.096  20.800  14.557  0.00  0.00    +0.108 C 
ENDROOT
BRANCH   1  17
ATOM     14  C   UNL     1      28.159  22.598  18.342  0.00  0.00    +0.037 A 
ATOM     15  C   UNL     1      28.072  21.834  17.179  0.00  0.00    +0.014 A 
ATOM     16  C   UNL     1      29.135  21.822  16.286  0.00  0.00    +0.014 A 
ATOM     17  C   UNL     1      30.334  22.477  16.596  0.00  0.00    +0.037 A 
ATOM     18  C   UNL     1      30.399  23.297  17.728  0.00  0.00    +0.014 A 
ATOM     19  C   UNL     1      29.304  23.366  18.595  0.00  0.00    +0.014 A 
BRANCH  14  21
ATOM     20  N   UNL     1      25.778  22.784  18.784  0.00  0.00    -0.325 N 
ATOM     21  C   UNL     1      27.034  22.615  19.305  0.00  0.00    +0.242 C 
ATOM     22  O   UNL     1      27.216  22.456  20.506  0.00  0.00    -0.270 OA
ATOM     23  H   UNL     1      25.014  22.696  19.449  0.00  0.00    +0.145 HD
ATOM     24  H   UNL     1      25.570  22.643  17.810  0.00  0.00    +0.145 HD
ENDBRANCH  14  21
ENDBRANCH   1  17
TORSDOF 2
ENDMDL
MODEL 7
REMARK VINA RESULT:      -6.1      3.991      7.758
REMARK  Name = ZINC000870248439
REMARK  2 active torsions:
REMARK  status: ('A' for Active; 'I' for Inactive)
REMARK    1  A    between atoms: C_2  and  C_4
REMARK    2  A    between atoms: C_7  and  C_8
REMARK                            x       y       z     vdW  Elec       q    Type
REMARK                         _______ _______ _______ _____ _____    ______ ____
ROOT
ATOM      1  C   UNL     1      30.866  23.496  14.641  0.00  0.00    +0.247 C 
ATOM      2  O   UNL     1      29.944  22.708  14.425  0.00  0.00    -0.270 OA
ATOM      3  N   UNL     1      31.368  23.754  15.923  0.00  0.00    -0.297 N 
ATOM      4  C   UNL     1      32.467  24.663  16.242  0.00  0.00    +0.108 C 
ATOM      5  C   UNL     1      33.448  24.095  17.247  0.00  0.00    +0.026 C 
ATOM      6  C   UNL     1      32.757  23.565  18.516  0.00  0.00    -0.025 C 
ATOM      7  C   UNL     1      33.826  22.817  19.345  0.00  0.00    +0.017 C 
ATOM      8  C   UNL     1      33.325  22.270  20.676  0.00  0.00    +0.069 C 
ATOM      9  S   UNL     1      32.693  23.574  21.769  0.00  0.00    -0.161 S 
ATOM     10  C   UNL     1      31.534  24.382  20.635  0.00  0.00    +0.069 C 
ATOM     11  C   UNL     1      32.212  24.767  19.329  0.00  0.00    +0.017 C 
ATOM     12  C   UNL     1      31.637  22.586  18.064  0.00  0.00    +0.026 C 
ATOM     13  C   UNL     1      30.656  23.213  17.074  0.00  0.00    +0.108 C 
ENDROOT
BRANCH   1  17
ATOM     14  C   UNL     1      32.910  25.547  11.502  0.00  0.00    +0.037 A 
ATOM     15  C   UNL     1      31.672  26.020  11.936  0.00  0.00    +0.014 A 
ATOM     16  C   UNL     1      30.951  25.291  12.873  0.00  0.00    +0.014 A 
ATOM     17  C   UNL     1      31.504  24.150  13.468  0.00  0.00    +0.037 A 
ATOM     18  C   UNL     1      32.714  23.638  12.987  0.00  0.00    +0.014 A 
ATOM     19  C   UNL     1      33.410  24.333  11.993  0.00  0.00    +0.014 A 
BRANCH  14  21
ATOM     20  N   UNL     1      34.227  25.610   9.462  0.00  0.00    -0.325 N 
ATOM     21  C   UNL     1      33.691  26.317  10.507  0.00  0.00    +0.242 C 
ATOM     22  O   UNL     1      33.826  27.530  10.599  0.00  0.00    -0.270 OA
ATOM     23  H   UNL     1      34.676  26.169   8.741  0.00  0.00    +0.145 HD
ATOM     24  H   UNL     1      33.913  24.688   9.212  0.00  0.00    +0.145 HD
ENDBRANCH  14  21
ENDBRANCH   1  17
TORSDOF 2
ENDMDL
MODEL 8
REMARK VINA RESULT:      -6.0      4.595      5.559
REMARK  Name = ZINC000870248439
REMARK  2 active torsions:
REMARK  status: ('A' for Active; 'I' for Inactive)
REMARK    1  A    between atoms: C_2  and  C_4
REMARK    2  A    between atoms: C_7  and  C_8
REMARK                            x       y       z     vdW  Elec       q    Type
REMARK                         _______ _______ _______ _____ _____    ______ ____
ROOT
ATOM      1  C   UNL     1      33.071  18.823  16.557  0.00  0.00    +0.247 C 
ATOM      2  O   UNL     1      32.862  17.807  17.220  0.00  0.00    -0.270 OA
ATOM      3  N   UNL     1      33.999  18.877  15.508  0.00  0.00    -0.297 N 
ATOM      4  C   UNL     1      34.280  20.044  14.676  0.00  0.00    +0.108 C 
ATOM      5  C   UNL     1      34.392  19.721  13.200  0.00  0.00    +0.026 C 
ATOM      6  C   UNL     1      35.372  18.568  12.918  0.00  0.00    -0.025 C 
ATOM      7  C   UNL     1      35.224  18.191  11.426  0.00  0.00    +0.017 C 
ATOM      8  C   UNL     1      36.169  17.094  10.955  0.00  0.00    +0.069 C 
ATOM      9  S   UNL     1      37.915  17.543  11.166  0.00  0.00    -0.161 S 
ATOM     10  C   UNL     1      37.893  18.022  12.914  0.00  0.00    +0.069 C 
ATOM     11  C   UNL     1      36.817  19.060  13.191  0.00  0.00    +0.017 C 
ATOM     12  C   UNL     1      34.961  17.374  13.824  0.00  0.00    +0.026 C 
ATOM     13  C   UNL     1      34.890  17.741  15.305  0.00  0.00    +0.108 C 
ENDROOT
BRANCH   1  17
ATOM     14  C   UNL     1      30.799  22.399  17.098  0.00  0.00    +0.037 A 
ATOM     15  C   UNL     1      32.069  22.301  17.668  0.00  0.00    +0.014 A 
ATOM     16  C   UNL     1      32.763  21.100  17.593  0.00  0.00    +0.014 A 
ATOM     17  C   UNL     1      32.249  20.025  16.857  0.00  0.00    +0.037 A 
ATOM     18  C   UNL     1      30.950  20.098  16.344  0.00  0.00    +0.014 A 
ATOM     19  C   UNL     1      30.221  21.284  16.476  0.00  0.00    +0.014 A 
BRANCH  14  21
ATOM     20  N   UNL     1      29.760  24.284  15.974  0.00  0.00    -0.325 N 
ATOM     21  C   UNL     1      30.051  23.675  17.166  0.00  0.00    +0.242 C 
ATOM     22  O   UNL     1      29.686  24.147  18.235  0.00  0.00    -0.270 OA
ATOM     23  H   UNL     1      29.166  25.106  16.037  0.00  0.00    +0.145 HD
ATOM     24  H   UNL     1      29.800  23.800  15.093  0.00  0.00    +0.145 HD
ENDBRANCH  14  21
ENDBRANCH   1  17
TORSDOF 2
ENDMDL
MODEL 9
REMARK VINA RESULT:      -5.9      5.665      8.090
REMARK  Name = ZINC000870248439
REMARK  2 active torsions:
REMARK  status: ('A' for Active; 'I' for Inactive)
REMARK    1  A    between atoms: C_2  and  C_4
REMARK    2  A    between atoms: C_7  and  C_8
REMARK                            x       y       z     vdW  Elec       q    Type
REMARK                         _______ _______ _______ _____ _____    ______ ____
ROOT
ATOM      1  C   UNL     1      34.208  19.535  13.912  0.00  0.00    +0.247 C 
ATOM      2  O   UNL     1      34.454  20.022  12.808  0.00  0.00    -0.270 OA
ATOM      3  N   UNL     1      33.456  20.198  14.891  0.00  0.00    -0.297 N 
ATOM      4  C   UNL     1      33.118  19.670  16.210  0.00  0.00    +0.108 C 
ATOM      5  C   UNL     1      31.676  19.915  16.607  0.00  0.00    +0.026 C 
ATOM      6  C   UNL     1      31.262  21.389  16.458  0.00  0.00    -0.025 C 
ATOM      7  C   UNL     1      29.732  21.463  16.670  0.00  0.00    +0.017 C 
ATOM      8  C   UNL     1      29.153  22.870  16.613  0.00  0.00    +0.069 C 
ATOM      9  S   UNL     1      29.867  23.967  17.872  0.00  0.00    -0.161 S 
ATOM     10  C   UNL     1      31.628  23.704  17.535  0.00  0.00    +0.069 C 
ATOM     11  C   UNL     1      31.981  22.225  17.548  0.00  0.00    +0.017 C 
ATOM     12  C   UNL     1      31.632  21.835  15.015  0.00  0.00    +0.026 C 
ATOM     13  C   UNL     1      33.101  21.595  14.672  0.00  0.00    +0.108 C 
ENDROOT
BRANCH   1  17
ATOM     14  C   UNL     1      35.325  15.539  14.922  0.00  0.00    +0.037 A 
ATOM     15  C   UNL     1      36.020  16.608  15.489  0.00  0.00    +0.014 A 
ATOM     16  C   UNL     1      35.738  17.904  15.075  0.00  0.00    +0.014 A 
ATOM     17  C   UNL     1      34.689  18.154  14.181  0.00  0.00    +0.037 A 
ATOM     18  C   UNL     1      34.038  17.082  13.563  0.00  0.00    +0.014 A 
ATOM     19  C   UNL     1      34.367  15.772  13.927  0.00  0.00    +0.014 A 
BRANCH  14  21
ATOM     20  N   UNL     1      36.763  13.958  16.077  0.00  0.00    -0.325 N 
ATOM     21  C   UNL     1      35.613  14.153  15.358  0.00  0.00    +0.242 C 
ATOM     22  O   UNL     1      34.843  13.233  15.113  0.00  0.00    -0.270 OA
ATOM     23  H   UNL     1      36.893  13.020  16.447  0.00  0.00    +0.145 HD
ATOM     24  H   UNL     1      37.260  14.711  16.521  0.00  0.00    +0.145 HD
ENDBRANCH  14  21
ENDBRANCH   1  17
TORSDOF 2
ENDMDL
