MODEL 1
REMARK VINA RESULT:      -6.8      0.000      0.000
REMARK  Name = ZINC001228612316
REMARK  5 active torsions:
REMARK  status: ('A' for Active; 'I' for Inactive)
REMARK    1  A    between atoms: C_2  and  C_4
REMARK    2  A    between atoms: C_8  and  O_9
REMARK    3  A    between atoms: O_9  and  C_10
REMARK    4  A    between atoms: C_10  and  C_11
REMARK    5  A    between atoms: C_10  and  C_17
REMARK                            x       y       z     vdW  Elec       q    Type
REMARK                         _______ _______ _______ _____ _____    ______ ____
ROOT
ATOM      1  C   UNL     1      31.897  24.232  10.988  0.00  0.00    +0.040 A 
ATOM      2  C   UNL     1      31.690  25.529  11.471  0.00  0.00    +0.013 A 
ATOM      3  C   UNL     1      30.849  25.742  12.563  0.00  0.00    +0.004 A 
ATOM      4  C   UNL     1      30.210  24.664  13.181  0.00  0.00    +0.046 A 
ATOM      5  C   UNL     1      30.406  23.367  12.706  0.00  0.00    +0.122 A 
ATOM      6  C   UNL     1      31.253  23.156  11.611  0.00  0.00    +0.058 A 
ENDROOT
BRANCH   1   8
ATOM      7  N   UNL     1      33.546  25.141   9.431  0.00  0.00    -0.325 N 
ATOM      8  C   UNL     1      32.817  24.054   9.832  0.00  0.00    +0.242 C 
ATOM      9  O   UNL     1      32.953  22.970   9.277  0.00  0.00    -0.270 OA
ATOM     10  H   UNL     1      34.241  24.971   8.715  0.00  0.00    +0.145 HD
ATOM     11  H   UNL     1      33.647  25.970   9.997  0.00  0.00    +0.145 HD
ENDBRANCH   1   8
BRANCH   5  12
ATOM     12  O   UNL     1      29.783  22.244  13.178  0.00  0.00    -0.484 OA
BRANCH  12  13
ATOM     13  C   UNL     1      30.374  21.535  14.280  0.00  0.00    +0.208 C 
BRANCH  13  14
ATOM     14  C   UNL     1      29.989  22.101  15.633  0.00  0.00    +0.011 A 
ATOM     15  C   UNL     1      30.899  22.728  16.489  0.00  0.00    +0.010 A 
ATOM     16  C   UNL     1      30.446  23.300  17.676  0.00  0.00    +0.020 A 
ATOM     17  C   UNL     1      29.094  23.229  17.970  0.00  0.00    +0.111 A 
ATOM     18  N   UNL     1      28.187  22.626  17.176  0.00  0.00    -0.263 NA
ATOM     19  C   UNL     1      28.652  22.081  16.031  0.00  0.00    +0.118 A 
ENDBRANCH  13  14
BRANCH  13  20
ATOM     20  C   UNL     1      29.913  20.081  14.249  0.00  0.00    +0.034 C 
ATOM     21  C   UNL     1      30.798  18.985  14.792  0.00  0.00    +0.008 C 
ATOM     22  C   UNL     1      30.504  19.046  13.318  0.00  0.00    +0.008 C 
ENDBRANCH  13  20
ENDBRANCH  12  13
ENDBRANCH   5  12
TORSDOF 5
ENDMDL
MODEL 2
REMARK VINA RESULT:      -6.6      3.117      6.449
REMARK  Name = ZINC001228612316
REMARK  5 active torsions:
REMARK  status: ('A' for Active; 'I' for Inactive)
REMARK    1  A    between atoms: C_2  and  C_4
REMARK    2  A    between atoms: C_8  and  O_9
REMARK    3  A    between atoms: O_9  and  C_10
REMARK    4  A    between atoms: C_10  and  C_11
REMARK    5  A    between atoms: C_10  and  C_17
REMARK                            x       y       z     vdW  Elec       q    Type
REMARK                         _______ _______ _______ _____ _____    ______ ____
ROOT
ATOM      1  C   UNL     1      28.815  23.318  18.475  0.00  0.00    +0.040 A 
ATOM      2  C   UNL     1      27.574  23.060  19.069  0.00  0.00    +0.013 A 
ATOM      3  C   UNL     1      26.597  22.354  18.366  0.00  0.00    +0.004 A 
ATOM      4  C   UNL     1      26.851  21.901  17.069  0.00  0.00    +0.046 A 
ATOM      5  C   UNL     1      28.082  22.156  16.466  0.00  0.00    +0.122 A 
ATOM      6  C   UNL     1      29.063  22.864  17.174  0.00  0.00    +0.058 A 
ENDROOT
BRANCH   1   8
ATOM      7  N   UNL     1      30.671  24.902  18.596  0.00  0.00    -0.325 N 
ATOM      8  C   UNL     1      29.830  24.059  19.271  0.00  0.00    +0.242 C 
ATOM      9  O   UNL     1      29.894  23.956  20.490  0.00  0.00    -0.270 OA
ATOM     10  H   UNL     1      31.281  25.474  19.167  0.00  0.00    +0.145 HD
ATOM     11  H   UNL     1      30.502  25.197  17.647  0.00  0.00    +0.145 HD
ENDBRANCH   1   8
BRANCH   5  12
ATOM     12  O   UNL     1      28.423  21.830  15.181  0.00  0.00    -0.484 OA
BRANCH  12  13
ATOM     13  C   UNL     1      29.809  21.866  14.801  0.00  0.00    +0.208 C 
BRANCH  13  14
ATOM     14  C   UNL     1      30.463  20.498  14.792  0.00  0.00    +0.011 A 
ATOM     15  C   UNL     1      29.992  19.426  14.029  0.00  0.00    +0.010 A 
ATOM     16  C   UNL     1      30.703  18.228  14.009  0.00  0.00    +0.020 A 
ATOM     17  C   UNL     1      31.869  18.140  14.752  0.00  0.00    +0.111 A 
ATOM     18  N   UNL     1      32.352  19.147  15.508  0.00  0.00    -0.263 NA
ATOM     19  C   UNL     1      31.644  20.297  15.508  0.00  0.00    +0.118 A 
ENDBRANCH  13  14
BRANCH  13  20
ATOM     20  C   UNL     1      29.931  22.436  13.392  0.00  0.00    +0.034 C 
ATOM     21  C   UNL     1      31.284  22.790  12.823  0.00  0.00    +0.008 C 
ATOM     22  C   UNL     1      30.288  23.879  13.113  0.00  0.00    +0.008 C 
ENDBRANCH  13  20
ENDBRANCH  12  13
ENDBRANCH   5  12
TORSDOF 5
ENDMDL
MODEL 3
REMARK VINA RESULT:      -6.5      4.481      7.080
REMARK  Name = ZINC001228612316
REMARK  5 active torsions:
REMARK  status: ('A' for Active; 'I' for Inactive)
REMARK    1  A    between atoms: C_2  and  C_4
REMARK    2  A    between atoms: C_8  and  O_9
REMARK    3  A    between atoms: O_9  and  C_10
REMARK    4  A    between atoms: C_10  and  C_11
REMARK    5  A    between atoms: C_10  and  C_17
REMARK                            x       y       z     vdW  Elec       q    Type
REMARK                         _______ _______ _______ _____ _____    ______ ____
ROOT
ATOM      1  C   UNL     1      27.929  22.254  16.896  0.00  0.00    +0.040 A 
ATOM      2  C   UNL     1      28.181  21.730  15.623  0.00  0.00    +0.013 A 
ATOM      3  C   UNL     1      29.469  21.780  15.089  0.00  0.00    +0.004 A 
ATOM      4  C   UNL     1      30.513  22.351  15.821  0.00  0.00    +0.046 A 
ATOM      5  C   UNL     1      30.273  22.880  17.089  0.00  0.00    +0.122 A 
ATOM      6  C   UNL     1      28.979  22.827  17.624  0.00  0.00    +0.058 A 
ENDROOT
BRANCH   1   8
ATOM      7  N   UNL     1      26.336  22.554  18.724  0.00  0.00    -0.325 N 
ATOM      8  C   UNL     1      26.543  22.161  17.429  0.00  0.00    +0.242 C 
ATOM      9  O   UNL     1      25.608  21.785  16.732  0.00  0.00    -0.270 OA
ATOM     10  H   UNL     1      25.372  22.584  19.031  0.00  0.00    +0.145 HD
ATOM     11  H   UNL     1      27.013  23.087  19.248  0.00  0.00    +0.145 HD
ENDBRANCH   1   8
BRANCH   5  12
ATOM     12  O   UNL     1      31.193  23.527  17.870  0.00  0.00    -0.484 OA
BRANCH  12  13
ATOM     13  C   UNL     1      31.685  22.870  19.049  0.00  0.00    +0.208 C 
BRANCH  13  14
ATOM     14  C   UNL     1      33.177  22.602  19.008  0.00  0.00    +0.011 A 
ATOM     15  C   UNL     1      34.125  23.451  19.585  0.00  0.00    +0.010 A 
ATOM     16  C   UNL     1      35.470  23.087  19.581  0.00  0.00    +0.020 A 
ATOM     17  C   UNL     1      35.825  21.880  19.000  0.00  0.00    +0.111 A 
ATOM     18  N   UNL     1      34.943  21.038  18.425  0.00  0.00    -0.263 NA
ATOM     19  C   UNL     1      33.646  21.415  18.445  0.00  0.00    +0.118 A 
ENDBRANCH  13  14
BRANCH  13  20
ATOM     20  C   UNL     1      31.416  23.751  20.265  0.00  0.00    +0.034 C 
ATOM     21  C   UNL     1      31.327  23.145  21.646  0.00  0.00    +0.008 C 
ATOM     22  C   UNL     1      30.102  23.747  21.014  0.00  0.00    +0.008 C 
ENDBRANCH  13  20
ENDBRANCH  12  13
ENDBRANCH   5  12
TORSDOF 5
ENDMDL
MODEL 4
REMARK VINA RESULT:      -6.4      2.814      6.847
REMARK  Name = ZINC001228612316
REMARK  5 active torsions:
REMARK  status: ('A' for Active; 'I' for Inactive)
REMARK    1  A    between atoms: C_2  and  C_4
REMARK    2  A    between atoms: C_8  and  O_9
REMARK    3  A    between atoms: O_9  and  C_10
REMARK    4  A    between atoms: C_10  and  C_11
REMARK    5  A    between atoms: C_10  and  C_17
REMARK                            x       y       z     vdW  Elec       q    Type
REMARK                         _______ _______ _______ _____ _____    ______ ____
ROOT
ATOM      1  C   UNL     1      30.169  23.352  19.129  0.00  0.00    +0.040 A 
ATOM      2  C   UNL     1      31.477  22.954  19.423  0.00  0.00    +0.013 A 
ATOM      3  C   UNL     1      32.328  22.535  18.400  0.00  0.00    +0.004 A 
ATOM      4  C   UNL     1      31.879  22.512  17.077  0.00  0.00    +0.046 A 
ATOM      5  C   UNL     1      30.575  22.901  16.772  0.00  0.00    +0.122 A 
ATOM      6  C   UNL     1      29.724  23.323  17.802  0.00  0.00    +0.058 A 
ENDROOT
BRANCH   1   8
ATOM      7  N   UNL     1      27.999  24.098  19.969  0.00  0.00    -0.325 N 
ATOM      8  C   UNL     1      29.306  23.806  20.253  0.00  0.00    +0.242 C 
ATOM      9  O   UNL     1      29.730  23.884  21.400  0.00  0.00    -0.270 OA
ATOM     10  H   UNL     1      27.406  24.302  20.764  0.00  0.00    +0.145 HD
ATOM     11  H   UNL     1      27.552  23.823  19.108  0.00  0.00    +0.145 HD
ENDBRANCH   1   8
BRANCH   5  12
ATOM     12  O   UNL     1      29.998  22.853  15.532  0.00  0.00    -0.484 OA
BRANCH  12  13
ATOM     13  C   UNL     1      30.833  22.612  14.388  0.00  0.00    +0.208 C 
BRANCH  13  14
ATOM     14  C   UNL     1      30.956  21.143  14.033  0.00  0.00    +0.011 A 
ATOM     15  C   UNL     1      29.916  20.224  14.199  0.00  0.00    +0.010 A 
ATOM     16  C   UNL     1      30.081  18.910  13.766  0.00  0.00    +0.020 A 
ATOM     17  C   UNL     1      31.284  18.556  13.177  0.00  0.00    +0.111 A 
ATOM     18  N   UNL     1      32.315  19.408  13.008  0.00  0.00    -0.263 NA
ATOM     19  C   UNL     1      32.127  20.676  13.435  0.00  0.00    +0.118 A 
ENDBRANCH  13  14
BRANCH  13  20
ATOM     20  C   UNL     1      30.244  23.323  13.174  0.00  0.00    +0.034 C 
ATOM     21  C   UNL     1      31.124  23.708  12.009  0.00  0.00    +0.008 C 
ATOM     22  C   UNL     1      30.504  24.780  12.863  0.00  0.00    +0.008 C 
ENDBRANCH  13  20
ENDBRANCH  12  13
ENDBRANCH   5  12
TORSDOF 5
ENDMDL
MODEL 5
REMARK VINA RESULT:      -6.3      2.050      6.370
REMARK  Name = ZINC001228612316
REMARK  5 active torsions:
REMARK  status: ('A' for Active; 'I' for Inactive)
REMARK    1  A    between atoms: C_2  and  C_4
REMARK    2  A    between atoms: C_8  and  O_9
REMARK    3  A    between atoms: O_9  and  C_10
REMARK    4  A    between atoms: C_10  and  C_11
REMARK    5  A    between atoms: C_10  and  C_17
REMARK                            x       y       z     vdW  Elec       q    Type
REMARK                         _______ _______ _______ _____ _____    ______ ____
ROOT
ATOM      1  C   UNL     1      29.040  23.137  17.736  0.00  0.00    +0.040 A 
ATOM      2  C   UNL     1      27.822  22.550  17.377  0.00  0.00    +0.013 A 
ATOM      3  C   UNL     1      27.729  21.789  16.211  0.00  0.00    +0.004 A 
ATOM      4  C   UNL     1      28.851  21.607  15.398  0.00  0.00    +0.046 A 
ATOM      5  C   UNL     1      30.070  22.191  15.743  0.00  0.00    +0.122 A 
ATOM      6  C   UNL     1      30.160  22.953  16.915  0.00  0.00    +0.058 A 
ENDROOT
BRANCH   1   8
ATOM      7  N   UNL     1      27.961  23.961  19.767  0.00  0.00    -0.325 N 
ATOM      8  C   UNL     1      29.092  23.924  18.997  0.00  0.00    +0.242 C 
ATOM      9  O   UNL     1      30.115  24.492  19.361  0.00  0.00    -0.270 OA
ATOM     10  H   UNL     1      28.051  24.412  20.669  0.00  0.00    +0.145 HD
ATOM     11  H   UNL     1      27.189  23.326  19.634  0.00  0.00    +0.145 HD
ENDBRANCH   1   8
BRANCH   5  12
ATOM     12  O   UNL     1      31.215  22.147  14.995  0.00  0.00    -0.484 OA
BRANCH  12  13
ATOM     13  C   UNL     1      31.150  21.620  13.660  0.00  0.00    +0.208 C 
BRANCH  13  14
ATOM     14  C   UNL     1      31.500  22.641  12.594  0.00  0.00    +0.011 A 
ATOM     15  C   UNL     1      30.746  23.794  12.359  0.00  0.00    +0.010 A 
ATOM     16  C   UNL     1      31.185  24.726  11.421  0.00  0.00    +0.020 A 
ATOM     17  C   UNL     1      32.369  24.476  10.748  0.00  0.00    +0.111 A 
ATOM     18  N   UNL     1      33.120  23.373  10.938  0.00  0.00    -0.263 NA
ATOM     19  C   UNL     1      32.672  22.487  11.854  0.00  0.00    +0.118 A 
ENDBRANCH  13  14
BRANCH  13  20
ATOM     20  C   UNL     1      32.140  20.468  13.524  0.00  0.00    +0.034 C 
ATOM     21  C   UNL     1      31.695  19.137  12.967  0.00  0.00    +0.008 C 
ATOM     22  C   UNL     1      32.107  19.242  14.410  0.00  0.00    +0.008 C 
ENDBRANCH  13  20
ENDBRANCH  12  13
ENDBRANCH   5  12
TORSDOF 5
ENDMDL
MODEL 6
REMARK VINA RESULT:      -6.3      4.166      5.445
REMARK  Name = ZINC001228612316
REMARK  5 active torsions:
REMARK  status: ('A' for Active; 'I' for Inactive)
REMARK    1  A    between atoms: C_2  and  C_4
REMARK    2  A    between atoms: C_8  and  O_9
REMARK    3  A    between atoms: O_9  and  C_10
REMARK    4  A    between atoms: C_10  and  C_11
REMARK    5  A    between atoms: C_10  and  C_17
REMARK                            x       y       z     vdW  Elec       q    Type
REMARK                         _______ _______ _______ _____ _____    ______ ____
ROOT
ATOM      1  C   UNL     1      31.051  19.351  14.399  0.00  0.00    +0.040 A 
ATOM      2  C   UNL     1      29.817  19.898  14.029  0.00  0.00    +0.013 A 
ATOM      3  C   UNL     1      29.368  21.076  14.626  0.00  0.00    +0.004 A 
ATOM      4  C   UNL     1      30.146  21.716  15.595  0.00  0.00    +0.046 A 
ATOM      5  C   UNL     1      31.375  21.178  15.975  0.00  0.00    +0.122 A 
ATOM      6  C   UNL     1      31.825  19.996  15.372  0.00  0.00    +0.058 A 
ENDROOT
BRANCH   1   8
ATOM      7  N   UNL     1      31.645  16.983  14.494  0.00  0.00    -0.325 N 
ATOM      8  C   UNL     1      31.494  18.103  13.722  0.00  0.00    +0.242 C 
ATOM      9  O   UNL     1      31.683  18.059  12.512  0.00  0.00    -0.270 OA
ATOM     10  H   UNL     1      31.843  16.124  13.998  0.00  0.00    +0.145 HD
ATOM     11  H   UNL     1      31.276  16.911  15.430  0.00  0.00    +0.145 HD
ENDBRANCH   1   8
BRANCH   5  12
ATOM     12  O   UNL     1      32.190  21.670  16.958  0.00  0.00    -0.484 OA
BRANCH  12  13
ATOM     13  C   UNL     1      32.008  23.026  17.395  0.00  0.00    +0.208 C 
BRANCH  13  14
ATOM     14  C   UNL     1      31.261  23.137  18.710  0.00  0.00    +0.011 A 
ATOM     15  C   UNL     1      31.789  22.709  19.932  0.00  0.00    +0.010 A 
ATOM     16  C   UNL     1      31.073  22.929  21.107  0.00  0.00    +0.020 A 
ATOM     17  C   UNL     1      29.849  23.573  21.024  0.00  0.00    +0.111 A 
ATOM     18  N   UNL     1      29.301  23.992  19.865  0.00  0.00    -0.263 NA
ATOM     19  C   UNL     1      30.017  23.768  18.742  0.00  0.00    +0.118 A 
ENDBRANCH  13  14
BRANCH  13  20
ATOM     20  C   UNL     1      33.372  23.680  17.593  0.00  0.00    +0.034 C 
ATOM     21  C   UNL     1      33.494  25.181  17.704  0.00  0.00    +0.008 C 
ATOM     22  C   UNL     1      34.074  24.471  16.511  0.00  0.00    +0.008 C 
ENDBRANCH  13  20
ENDBRANCH  12  13
ENDBRANCH   5  12
TORSDOF 5
ENDMDL
MODEL 7
REMARK VINA RESULT:      -6.2      2.689      6.634
REMARK  Name = ZINC001228612316
REMARK  5 active torsions:
REMARK  status: ('A' for Active; 'I' for Inactive)
REMARK    1  A    between atoms: C_2  and  C_4
REMARK    2  A    between atoms: C_8  and  O_9
REMARK    3  A    between atoms: O_9  and  C_10
REMARK    4  A    between atoms: C_10  and  C_11
REMARK    5  A    between atoms: C_10  and  C_17
REMARK                            x       y       z     vdW  Elec       q    Type
REMARK                         _______ _______ _______ _____ _____    ______ ____
ROOT
ATOM      1  C   UNL     1      27.998  22.566  17.493  0.00  0.00    +0.040 A 
ATOM      2  C   UNL     1      28.985  23.245  18.217  0.00  0.00    +0.013 A 
ATOM      3  C   UNL     1      30.248  23.446  17.658  0.00  0.00    +0.004 A 
ATOM      4  C   UNL     1      30.534  22.973  16.375  0.00  0.00    +0.046 A 
ATOM      5  C   UNL     1      29.559  22.291  15.645  0.00  0.00    +0.122 A 
ATOM      6  C   UNL     1      28.292  22.092  16.208  0.00  0.00    +0.058 A 
ENDROOT
BRANCH   1   8
ATOM      7  N   UNL     1      25.629  21.998  17.319  0.00  0.00    -0.325 N 
ATOM      8  C   UNL     1      26.663  22.392  18.125  0.00  0.00    +0.242 C 
ATOM      9  O   UNL     1      26.492  22.556  19.327  0.00  0.00    -0.270 OA
ATOM     10  H   UNL     1      24.757  21.784  17.786  0.00  0.00    +0.145 HD
ATOM     11  H   UNL     1      25.769  21.624  16.393  0.00  0.00    +0.145 HD
ENDBRANCH   1   8
BRANCH   5  12
ATOM     12  O   UNL     1      29.740  21.719  14.415  0.00  0.00    -0.484 OA
BRANCH  12  13
ATOM     13  C   UNL     1      31.069  21.359  14.007  0.00  0.00    +0.208 C 
BRANCH  13  14
ATOM     14  C   UNL     1      31.244  19.871  13.776  0.00  0.00    +0.011 A 
ATOM     15  C   UNL     1      30.331  18.912  14.226  0.00  0.00    +0.010 A 
ATOM     16  C   UNL     1      30.520  17.572  13.895  0.00  0.00    +0.020 A 
ATOM     17  C   UNL     1      31.617  17.231  13.121  0.00  0.00    +0.111 A 
ATOM     18  N   UNL     1      32.525  18.123  12.676  0.00  0.00    -0.263 NA
ATOM     19  C   UNL     1      32.316  19.415  13.009  0.00  0.00    +0.118 A 
ENDBRANCH  13  14
BRANCH  13  20
ATOM     20  C   UNL     1      31.402  22.063  12.695  0.00  0.00    +0.034 C 
ATOM     21  C   UNL     1      32.460  23.139  12.648  0.00  0.00    +0.008 C 
ATOM     22  C   UNL     1      31.019  23.498  12.407  0.00  0.00    +0.008 C 
ENDBRANCH  13  20
ENDBRANCH  12  13
ENDBRANCH   5  12
TORSDOF 5
ENDMDL
MODEL 8
REMARK VINA RESULT:      -6.2      1.788      3.461
REMARK  Name = ZINC001228612316
REMARK  5 active torsions:
REMARK  status: ('A' for Active; 'I' for Inactive)
REMARK    1  A    between atoms: C_2  and  C_4
REMARK    2  A    between atoms: C_8  and  O_9
REMARK    3  A    between atoms: O_9  and  C_10
REMARK    4  A    between atoms: C_10  and  C_11
REMARK    5  A    between atoms: C_10  and  C_17
REMARK                            x       y       z     vdW  Elec       q    Type
REMARK                         _______ _______ _______ _____ _____    ______ ____
ROOT
ATOM      1  C   UNL     1      31.990  23.440  11.130  0.00  0.00    +0.040 A 
ATOM      2  C   UNL     1      31.439  24.719  10.997  0.00  0.00    +0.013 A 
ATOM      3  C   UNL     1      30.859  25.349  12.098  0.00  0.00    +0.004 A 
ATOM      4  C   UNL     1      30.826  24.707  13.339  0.00  0.00    +0.046 A 
ATOM      5  C   UNL     1      31.368  23.430  13.484  0.00  0.00    +0.122 A 
ATOM      6  C   UNL     1      31.952  22.801  12.376  0.00  0.00    +0.058 A 
ENDROOT
BRANCH   1   8
ATOM      7  N   UNL     1      33.650  23.486   9.338  0.00  0.00    -0.325 N 
ATOM      8  C   UNL     1      32.613  22.817   9.931  0.00  0.00    +0.242 C 
ATOM      9  O   UNL     1      32.245  21.730   9.504  0.00  0.00    -0.270 OA
ATOM     10  H   UNL     1      34.126  22.996   8.592  0.00  0.00    +0.145 HD
ATOM     11  H   UNL     1      34.137  24.248   9.786  0.00  0.00    +0.145 HD
ENDBRANCH   1   8
BRANCH   5  12
ATOM     12  O   UNL     1      31.332  22.674  14.623  0.00  0.00    -0.484 OA
BRANCH  12  13
ATOM     13  C   UNL     1      30.241  21.757  14.812  0.00  0.00    +0.208 C 
BRANCH  13  14
ATOM     14  C   UNL     1      30.659  20.302  14.730  0.00  0.00    +0.011 A 
ATOM     15  C   UNL     1      29.966  19.345  13.984  0.00  0.00    +0.010 A 
ATOM     16  C   UNL     1      30.467  18.049  13.889  0.00  0.00    +0.020 A 
ATOM     17  C   UNL     1      31.650  17.749  14.544  0.00  0.00    +0.111 A 
ATOM     18  N   UNL     1      32.344  18.640  15.282  0.00  0.00    -0.263 NA
ATOM     19  C   UNL     1      31.836  19.889  15.354  0.00  0.00    +0.118 A 
ENDBRANCH  13  14
BRANCH  13  20
ATOM     20  C   UNL     1      29.632  21.976  16.193  0.00  0.00    +0.034 C 
ATOM     21  C   UNL     1      28.134  22.054  16.367  0.00  0.00    +0.008 C 
ATOM     22  C   UNL     1      28.978  23.275  16.611  0.00  0.00    +0.008 C 
ENDBRANCH  13  20
ENDBRANCH  12  13
ENDBRANCH   5  12
TORSDOF 5
ENDMDL
MODEL 9
REMARK VINA RESULT:      -6.1     10.447     13.022
REMARK  Name = ZINC001228612316
REMARK  5 active torsions:
REMARK  status: ('A' for Active; 'I' for Inactive)
REMARK    1  A    between atoms: C_2  and  C_4
REMARK    2  A    between atoms: C_8  and  O_9
REMARK    3  A    between atoms: O_9  and  C_10
REMARK    4  A    between atoms: C_10  and  C_11
REMARK    5  A    between atoms: C_10  and  C_17
REMARK                            x       y       z     vdW  Elec       q    Type
REMARK                         _______ _______ _______ _____ _____    ______ ____
ROOT
ATOM      1  C   UNL     1      21.397  25.050  17.781  0.00  0.00    +0.040 A 
ATOM      2  C   UNL     1      21.775  24.036  16.894  0.00  0.00    +0.013 A 
ATOM      3  C   UNL     1      21.278  24.026  15.590  0.00  0.00    +0.004 A 
ATOM      4  C   UNL     1      20.403  25.028  15.163  0.00  0.00    +0.046 A 
ATOM      5  C   UNL     1      20.015  26.042  16.039  0.00  0.00    +0.122 A 
ATOM      6  C   UNL     1      20.517  26.050  17.347  0.00  0.00    +0.058 A 
ENDROOT
BRANCH   1   8
ATOM      7  N   UNL     1      23.307  25.275  19.287  0.00  0.00    -0.325 N 
ATOM      8  C   UNL     1      21.967  25.027  19.155  0.00  0.00    +0.242 C 
ATOM      9  O   UNL     1      21.266  24.831  20.140  0.00  0.00    -0.270 OA
ATOM     10  H   UNL     1      23.652  25.359  20.235  0.00  0.00    +0.145 HD
ATOM     11  H   UNL     1      23.865  25.672  18.547  0.00  0.00    +0.145 HD
ENDBRANCH   1   8
BRANCH   5  12
ATOM     12  O   UNL     1      19.112  27.032  15.762  0.00  0.00    -0.484 OA
BRANCH  12  13
ATOM     13  C   UNL     1      19.068  28.187  16.615  0.00  0.00    +0.208 C 
BRANCH  13  14
ATOM     14  C   UNL     1      20.186  29.175  16.346  0.00  0.00    +0.011 A 
ATOM     15  C   UNL     1      20.451  29.709  15.082  0.00  0.00    +0.010 A 
ATOM     16  C   UNL     1      21.441  30.678  14.936  0.00  0.00    +0.020 A 
ATOM     17  C   UNL     1      22.136  31.086  16.064  0.00  0.00    +0.111 A 
ATOM     18  N   UNL     1      21.918  30.589  17.298  0.00  0.00    -0.263 NA
ATOM     19  C   UNL     1      20.952  29.652  17.410  0.00  0.00    +0.118 A 
ENDBRANCH  13  14
BRANCH  13  20
ATOM     20  C   UNL     1      17.750  28.925  16.398  0.00  0.00    +0.034 C 
ATOM     21  C   UNL     1      17.374  30.097  17.272  0.00  0.00    +0.008 C 
ATOM     22  C   UNL     1      16.579  28.822  17.349  0.00  0.00    +0.008 C 
ENDBRANCH  13  20
ENDBRANCH  12  13
ENDBRANCH   5  12
TORSDOF 5
ENDMDL
