MODEL 1
REMARK VINA RESULT:      -6.6      0.000      0.000
REMARK  Name = ZINC000329563636
REMARK  3 active torsions:
REMARK  status: ('A' for Active; 'I' for Inactive)
REMARK    1  A    between atoms: C_1  and  C_2
REMARK    2  A    between atoms: C_2  and  N_3
REMARK    3  A    between atoms: N_9  and  C_10
REMARK                            x       y       z     vdW  Elec       q    Type
REMARK                         _______ _______ _______ _____ _____    ______ ____
ROOT
ATOM      1  C   UNL     1      34.073  22.162  14.398  0.00  0.00    +0.112 C 
ATOM      2  C   UNL     1      34.611  23.301  15.271  0.00  0.00    +0.075 C 
ATOM      3  C   UNL     1      33.766  23.617  16.514  0.00  0.00    +0.113 C 
ATOM      4  C   UNL     1      34.063  22.722  17.746  0.00  0.00    +0.048 C 
ATOM      5  C   UNL     1      34.720  23.626  18.783  0.00  0.00    +0.004 C 
ATOM      6  C   UNL     1      34.123  24.992  18.507  0.00  0.00    +0.004 C 
ATOM      7  C   UNL     1      34.109  25.053  16.988  0.00  0.00    +0.048 C 
ATOM      8  O   UNL     1      32.355  23.595  16.224  0.00  0.00    -0.485 OA
ATOM      9  C   UNL     1      31.935  22.401  15.698  0.00  0.00    +0.126 A 
ATOM     10  C   UNL     1      30.664  21.955  16.057  0.00  0.00    +0.046 A 
ATOM     11  C   UNL     1      30.197  20.726  15.586  0.00  0.00    +0.004 A 
ATOM     12  C   UNL     1      30.992  19.958  14.738  0.00  0.00    +0.001 A 
ATOM     13  C   UNL     1      32.250  20.425  14.356  0.00  0.00    +0.009 A 
ATOM     14  C   UNL     1      32.732  21.653  14.835  0.00  0.00    +0.015 A 
ENDROOT
BRANCH   1  21
ATOM     15  N   UNL     1      34.067  22.636   8.098  0.00  0.00    -0.299 N 
ATOM     16  C   UNL     1      35.184  21.891   8.679  0.00  0.00    +0.127 C 
ATOM     17  C   UNL     1      35.821  22.649   9.839  0.00  0.00    +0.129 C 
ATOM     18  N   UNL     1      34.806  22.894  10.852  0.00  0.00    -0.275 N 
ATOM     19  C   UNL     1      34.981  22.365  12.112  0.00  0.00    +0.303 C 
ATOM     20  O   UNL     1      35.963  21.689  12.413  0.00  0.00    -0.253 OA
ATOM     21  N   UNL     1      33.981  22.609  13.006  0.00  0.00    -0.292 N 
ATOM     22  C   UNL     1      33.638  23.638  10.370  0.00  0.00    +0.205 C 
ATOM     23  C   UNL     1      33.243  23.431   8.892  0.00  0.00    +0.233 C 
ATOM     24  O   UNL     1      32.240  23.992   8.442  0.00  0.00    -0.274 OA
ATOM     25  H   UNL     1      33.403  23.421  12.862  0.00  0.00    +0.151 HD
BRANCH  15  27
ATOM     26  C   UNL     1      34.765  21.851   5.852  0.00  0.00    +0.024 C 
ATOM     27  C   UNL     1      33.617  22.268   6.761  0.00  0.00    +0.104 C 
ENDBRANCH  15  27
ENDBRANCH   1  21
TORSDOF 2
ENDMDL
MODEL 2
REMARK VINA RESULT:      -6.1      3.458      5.773
REMARK  Name = ZINC000329563636
REMARK  3 active torsions:
REMARK  status: ('A' for Active; 'I' for Inactive)
REMARK    1  A    between atoms: C_1  and  C_2
REMARK    2  A    between atoms: C_2  and  N_3
REMARK    3  A    between atoms: N_9  and  C_10
REMARK                            x       y       z     vdW  Elec       q    Type
REMARK                         _______ _______ _______ _____ _____    ______ ____
ROOT
ATOM      1  C   UNL     1      32.885  21.600  14.740  0.00  0.00    +0.112 C 
ATOM      2  C   UNL     1      32.988  21.838  16.250  0.00  0.00    +0.075 C 
ATOM      3  C   UNL     1      33.945  22.965  16.664  0.00  0.00    +0.113 C 
ATOM      4  C   UNL     1      33.330  24.388  16.625  0.00  0.00    +0.048 C 
ATOM      5  C   UNL     1      33.226  24.849  18.075  0.00  0.00    +0.004 C 
ATOM      6  C   UNL     1      34.377  24.143  18.765  0.00  0.00    +0.004 C 
ATOM      7  C   UNL     1      34.339  22.754  18.149  0.00  0.00    +0.048 C 
ATOM      8  O   UNL     1      35.166  22.941  15.898  0.00  0.00    -0.485 OA
ATOM      9  C   UNL     1      34.951  23.019  14.547  0.00  0.00    +0.126 A 
ATOM     10  C   UNL     1      35.883  23.728  13.790  0.00  0.00    +0.046 A 
ATOM     11  C   UNL     1      35.697  23.877  12.414  0.00  0.00    +0.004 A 
ATOM     12  C   UNL     1      34.592  23.297  11.795  0.00  0.00    +0.001 A 
ATOM     13  C   UNL     1      33.679  22.561  12.551  0.00  0.00    +0.009 A 
ATOM     14  C   UNL     1      33.853  22.417  13.937  0.00  0.00    +0.015 A 
ENDROOT
BRANCH   1  21
ATOM     15  N   UNL     1      32.623  15.682  12.546  0.00  0.00    -0.299 N 
ATOM     16  C   UNL     1      31.338  16.292  12.886  0.00  0.00    +0.127 C 
ATOM     17  C   UNL     1      31.377  16.956  14.258  0.00  0.00    +0.129 C 
ATOM     18  N   UNL     1      32.423  17.967  14.259  0.00  0.00    -0.275 N 
ATOM     19  C   UNL     1      32.080  19.281  14.487  0.00  0.00    +0.303 C 
ATOM     20  O   UNL     1      30.919  19.634  14.687  0.00  0.00    -0.253 OA
ATOM     21  N   UNL     1      33.102  20.182  14.447  0.00  0.00    -0.292 N 
ATOM     22  C   UNL     1      33.757  17.457  13.928  0.00  0.00    +0.205 C 
ATOM     23  C   UNL     1      33.823  16.256  12.960  0.00  0.00    +0.233 C 
ATOM     24  O   UNL     1      34.919  15.814  12.606  0.00  0.00    -0.274 OA
ATOM     25  H   UNL     1      34.034  19.851  14.638  0.00  0.00    +0.151 HD
BRANCH  15  27
ATOM     26  C   UNL     1      31.376  14.677  10.653  0.00  0.00    +0.024 C 
ATOM     27  C   UNL     1      32.648  14.679  11.487  0.00  0.00    +0.104 C 
ENDBRANCH  15  27
ENDBRANCH   1  21
TORSDOF 2
ENDMDL
MODEL 3
REMARK VINA RESULT:      -6.1      2.354      8.051
REMARK  Name = ZINC000329563636
REMARK  3 active torsions:
REMARK  status: ('A' for Active; 'I' for Inactive)
REMARK    1  A    between atoms: C_1  and  C_2
REMARK    2  A    between atoms: C_2  and  N_3
REMARK    3  A    between atoms: N_9  and  C_10
REMARK                            x       y       z     vdW  Elec       q    Type
REMARK                         _______ _______ _______ _____ _____    ______ ____
ROOT
ATOM      1  C   UNL     1      35.333  22.153  10.065  0.00  0.00    +0.112 C 
ATOM      2  C   UNL     1      35.220  21.465   8.700  0.00  0.00    +0.075 C 
ATOM      3  C   UNL     1      35.144  22.418   7.499  0.00  0.00    +0.113 C 
ATOM      4  C   UNL     1      36.517  22.915   6.975  0.00  0.00    +0.048 C 
ATOM      5  C   UNL     1      36.710  22.274   5.606  0.00  0.00    +0.004 C 
ATOM      6  C   UNL     1      35.299  22.114   5.075  0.00  0.00    +0.004 C 
ATOM      7  C   UNL     1      34.529  21.650   6.300  0.00  0.00    +0.048 C 
ATOM      8  O   UNL     1      34.286  23.546   7.761  0.00  0.00    -0.485 OA
ATOM      9  C   UNL     1      34.664  24.260   8.867  0.00  0.00    +0.126 A 
ATOM     10  C   UNL     1      34.488  25.642   8.828  0.00  0.00    +0.046 A 
ATOM     11  C   UNL     1      34.892  26.429   9.909  0.00  0.00    +0.004 A 
ATOM     12  C   UNL     1      35.450  25.829  11.035  0.00  0.00    +0.001 A 
ATOM     13  C   UNL     1      35.595  24.442  11.083  0.00  0.00    +0.009 A 
ATOM     14  C   UNL     1      35.202  23.645   9.995  0.00  0.00    +0.015 A 
ENDROOT
BRANCH   1  21
ATOM     15  N   UNL     1      31.517  20.904  14.941  0.00  0.00    -0.299 N 
ATOM     16  C   UNL     1      32.931  21.077  15.269  0.00  0.00    +0.127 C 
ATOM     17  C   UNL     1      33.826  20.268  14.337  0.00  0.00    +0.129 C 
ATOM     18  N   UNL     1      33.578  20.689  12.966  0.00  0.00    -0.275 N 
ATOM     19  C   UNL     1      34.614  21.227  12.236  0.00  0.00    +0.303 C 
ATOM     20  O   UNL     1      35.744  21.369  12.701  0.00  0.00    -0.253 OA
ATOM     21  N   UNL     1      34.309  21.627  10.969  0.00  0.00    -0.292 N 
ATOM     22  C   UNL     1      32.183  20.555  12.536  0.00  0.00    +0.205 C 
ATOM     23  C   UNL     1      31.100  20.730  13.623  0.00  0.00    +0.233 C 
ATOM     24  O   UNL     1      29.907  20.678  13.313  0.00  0.00    -0.274 OA
ATOM     25  H   UNL     1      33.525  21.192  10.510  0.00  0.00    +0.151 HD
BRANCH  15  27
ATOM     26  C   UNL     1      31.059  22.280  16.952  0.00  0.00    +0.024 C 
ATOM     27  C   UNL     1      30.528  21.263  15.952  0.00  0.00    +0.104 C 
ENDBRANCH  15  27
ENDBRANCH   1  21
TORSDOF 2
ENDMDL
MODEL 4
REMARK VINA RESULT:      -6.0      2.816      4.167
REMARK  Name = ZINC000329563636
REMARK  3 active torsions:
REMARK  status: ('A' for Active; 'I' for Inactive)
REMARK    1  A    between atoms: C_1  and  C_2
REMARK    2  A    between atoms: C_2  and  N_3
REMARK    3  A    between atoms: N_9  and  C_10
REMARK                            x       y       z     vdW  Elec       q    Type
REMARK                         _______ _______ _______ _____ _____    ______ ____
ROOT
ATOM      1  C   UNL     1      33.866  21.218  12.123  0.00  0.00    +0.112 C 
ATOM      2  C   UNL     1      32.631  21.809  12.812  0.00  0.00    +0.075 C 
ATOM      3  C   UNL     1      31.772  20.796  13.581  0.00  0.00    +0.113 C 
ATOM      4  C   UNL     1      32.256  20.494  15.023  0.00  0.00    +0.048 C 
ATOM      5  C   UNL     1      31.209  21.087  15.959  0.00  0.00    +0.004 C 
ATOM      6  C   UNL     1      29.919  20.995  15.167  0.00  0.00    +0.004 C 
ATOM      7  C   UNL     1      30.354  21.396  13.767  0.00  0.00    +0.048 C 
ATOM      8  O   UNL     1      31.614  19.562  12.852  0.00  0.00    -0.485 OA
ATOM      9  C   UNL     1      32.810  18.974  12.532  0.00  0.00    +0.126 A 
ATOM     10  C   UNL     1      32.862  17.581  12.546  0.00  0.00    +0.046 A 
ATOM     11  C   UNL     1      34.063  16.924  12.269  0.00  0.00    +0.004 A 
ATOM     12  C   UNL     1      35.202  17.661  11.956  0.00  0.00    +0.001 A 
ATOM     13  C   UNL     1      35.137  19.055  11.912  0.00  0.00    +0.009 A 
ATOM     14  C   UNL     1      33.937  19.722  12.201  0.00  0.00    +0.015 A 
ENDROOT
BRANCH   1  21
ATOM     15  N   UNL     1      35.307  23.580   6.444  0.00  0.00    -0.299 N 
ATOM     16  C   UNL     1      35.575  24.456   7.584  0.00  0.00    +0.127 C 
ATOM     17  C   UNL     1      34.383  24.523   8.533  0.00  0.00    +0.129 C 
ATOM     18  N   UNL     1      34.081  23.178   9.000  0.00  0.00    -0.275 N 
ATOM     19  C   UNL     1      34.156  22.908  10.348  0.00  0.00    +0.303 C 
ATOM     20  O   UNL     1      34.472  23.761  11.175  0.00  0.00    -0.253 OA
ATOM     21  N   UNL     1      33.888  21.623  10.716  0.00  0.00    -0.292 N 
ATOM     22  C   UNL     1      33.797  22.216   7.930  0.00  0.00    +0.205 C 
ATOM     23  C   UNL     1      34.519  22.440   6.583  0.00  0.00    +0.233 C 
ATOM     24  O   UNL     1      34.358  21.636   5.661  0.00  0.00    -0.274 OA
ATOM     25  H   UNL     1      33.308  21.066  10.109  0.00  0.00    +0.151 HD
BRANCH  15  27
ATOM     26  C   UNL     1      36.135  25.127   4.693  0.00  0.00    +0.024 C 
ATOM     27  C   UNL     1      36.149  23.716   5.261  0.00  0.00    +0.104 C 
ENDBRANCH  15  27
ENDBRANCH   1  21
TORSDOF 2
ENDMDL
MODEL 5
REMARK VINA RESULT:      -5.9      3.959      7.890
REMARK  Name = ZINC000329563636
REMARK  3 active torsions:
REMARK  status: ('A' for Active; 'I' for Inactive)
REMARK    1  A    between atoms: C_1  and  C_2
REMARK    2  A    between atoms: C_2  and  N_3
REMARK    3  A    between atoms: N_9  and  C_10
REMARK                            x       y       z     vdW  Elec       q    Type
REMARK                         _______ _______ _______ _____ _____    ______ ____
ROOT
ATOM      1  C   UNL     1      33.058  18.302  13.933  0.00  0.00    +0.112 C 
ATOM      2  C   UNL     1      32.807  18.072  12.439  0.00  0.00    +0.075 C 
ATOM      3  C   UNL     1      33.665  16.970  11.801  0.00  0.00    +0.113 C 
ATOM      4  C   UNL     1      33.107  15.532  11.970  0.00  0.00    +0.048 C 
ATOM      5  C   UNL     1      32.675  15.075  10.581  0.00  0.00    +0.004 C 
ATOM      6  C   UNL     1      33.614  15.810   9.646  0.00  0.00    +0.004 C 
ATOM      7  C   UNL     1      33.692  17.196  10.266  0.00  0.00    +0.048 C 
ATOM      8  O   UNL     1      35.031  17.019  12.257  0.00  0.00    -0.485 OA
ATOM      9  C   UNL     1      35.142  16.931  13.620  0.00  0.00    +0.126 A 
ATOM     10  C   UNL     1      36.241  16.241  14.129  0.00  0.00    +0.046 A 
ATOM     11  C   UNL     1      36.388  16.082  15.509  0.00  0.00    +0.004 A 
ATOM     12  C   UNL     1      35.448  16.634  16.376  0.00  0.00    +0.001 A 
ATOM     13  C   UNL     1      34.367  17.351  15.863  0.00  0.00    +0.009 A 
ATOM     14  C   UNL     1      34.206  17.505  14.477  0.00  0.00    +0.015 A 
ENDROOT
BRANCH   1  21
ATOM     15  N   UNL     1      33.617  24.092  16.397  0.00  0.00    -0.299 N 
ATOM     16  C   UNL     1      32.386  23.375  16.729  0.00  0.00    +0.127 C 
ATOM     17  C   UNL     1      31.741  22.764  15.490  0.00  0.00    +0.129 C 
ATOM     18  N   UNL     1      32.691  21.857  14.866  0.00  0.00    -0.275 N 
ATOM     19  C   UNL     1      32.362  20.525  14.748  0.00  0.00    +0.303 C 
ATOM     20  O   UNL     1      31.294  20.071  15.154  0.00  0.00    -0.253 OA
ATOM     21  N   UNL     1      33.307  19.723  14.179  0.00  0.00    -0.292 N 
ATOM     22  C   UNL     1      33.965  22.479  14.492  0.00  0.00    +0.205 C 
ATOM     23  C   UNL     1      34.454  23.648  15.375  0.00  0.00    +0.233 C 
ATOM     24  O   UNL     1      35.542  24.179  15.140  0.00  0.00    -0.274 OA
ATOM     25  H   UNL     1      33.977  20.147  13.557  0.00  0.00    +0.151 HD
BRANCH  15  27
ATOM     26  C   UNL     1      33.242  25.188  18.589  0.00  0.00    +0.024 C 
ATOM     27  C   UNL     1      34.132  25.057  17.362  0.00  0.00    +0.104 C 
ENDBRANCH  15  27
ENDBRANCH   1  21
TORSDOF 2
ENDMDL
MODEL 6
REMARK VINA RESULT:      -5.9      3.452      5.390
REMARK  Name = ZINC000329563636
REMARK  3 active torsions:
REMARK  status: ('A' for Active; 'I' for Inactive)
REMARK    1  A    between atoms: C_1  and  C_2
REMARK    2  A    between atoms: C_2  and  N_3
REMARK    3  A    between atoms: N_9  and  C_10
REMARK                            x       y       z     vdW  Elec       q    Type
REMARK                         _______ _______ _______ _____ _____    ______ ____
ROOT
ATOM      1  C   UNL     1      32.976  20.038  11.578  0.00  0.00    +0.112 C 
ATOM      2  C   UNL     1      33.887  18.806  11.540  0.00  0.00    +0.075 C 
ATOM      3  C   UNL     1      33.674  17.809  12.688  0.00  0.00    +0.113 C 
ATOM      4  C   UNL     1      32.525  16.792  12.462  0.00  0.00    +0.048 C 
ATOM      5  C   UNL     1      33.188  15.430  12.290  0.00  0.00    +0.004 C 
ATOM      6  C   UNL     1      34.449  15.529  13.126  0.00  0.00    +0.004 C 
ATOM      7  C   UNL     1      34.947  16.932  12.819  0.00  0.00    +0.048 C 
ATOM      8  O   UNL     1      33.492  18.477  13.952  0.00  0.00    -0.485 OA
ATOM      9  C   UNL     1      32.450  19.366  13.942  0.00  0.00    +0.126 A 
ATOM     10  C   UNL     1      31.704  19.492  15.113  0.00  0.00    +0.046 A 
ATOM     11  C   UNL     1      30.604  20.351  15.151  0.00  0.00    +0.004 A 
ATOM     12  C   UNL     1      30.268  21.101  14.027  0.00  0.00    +0.001 A 
ATOM     13  C   UNL     1      31.037  20.996  12.867  0.00  0.00    +0.009 A 
ATOM     14  C   UNL     1      32.136  20.124  12.817  0.00  0.00    +0.015 A 
ENDROOT
BRANCH   1  21
ATOM     15  N   UNL     1      35.198  25.844  10.455  0.00  0.00    -0.299 N 
ATOM     16  C   UNL     1      34.417  25.242   9.375  0.00  0.00    +0.127 C 
ATOM     17  C   UNL     1      34.870  23.816   9.083  0.00  0.00    +0.129 C 
ATOM     18  N   UNL     1      34.734  23.024  10.297  0.00  0.00    -0.275 N 
ATOM     19  C   UNL     1      33.890  21.936  10.291  0.00  0.00    +0.303 C 
ATOM     20  O   UNL     1      33.242  21.608   9.298  0.00  0.00    -0.253 OA
ATOM     21  N   UNL     1      33.786  21.253  11.466  0.00  0.00    -0.292 N 
ATOM     22  C   UNL     1      35.481  23.545  11.445  0.00  0.00    +0.205 C 
ATOM     23  C   UNL     1      35.665  25.076  11.520  0.00  0.00    +0.233 C 
ATOM     24  O   UNL     1      36.242  25.578  12.488  0.00  0.00    -0.274 OA
ATOM     25  H   UNL     1      34.554  21.308  12.116  0.00  0.00    +0.151 HD
BRANCH  15  27
ATOM     26  C   UNL     1      36.346  27.961   9.863  0.00  0.00    +0.024 C 
ATOM     27  C   UNL     1      35.183  27.297  10.587  0.00  0.00    +0.104 C 
ENDBRANCH  15  27
ENDBRANCH   1  21
TORSDOF 2
ENDMDL
MODEL 7
REMARK VINA RESULT:      -5.9      4.377      7.629
REMARK  Name = ZINC000329563636
REMARK  3 active torsions:
REMARK  status: ('A' for Active; 'I' for Inactive)
REMARK    1  A    between atoms: C_1  and  C_2
REMARK    2  A    between atoms: C_2  and  N_3
REMARK    3  A    between atoms: N_9  and  C_10
REMARK                            x       y       z     vdW  Elec       q    Type
REMARK                         _______ _______ _______ _____ _____    ______ ____
ROOT
ATOM      1  C   UNL     1      33.788  23.268  16.985  0.00  0.00    +0.112 C 
ATOM      2  C   UNL     1      32.597  23.357  16.025  0.00  0.00    +0.075 C 
ATOM      3  C   UNL     1      32.325  22.084  15.212  0.00  0.00    +0.113 C 
ATOM      4  C   UNL     1      31.473  21.014  15.944  0.00  0.00    +0.048 C 
ATOM      5  C   UNL     1      30.133  20.964  15.218  0.00  0.00    +0.004 C 
ATOM      6  C   UNL     1      30.478  21.337  13.789  0.00  0.00    +0.004 C 
ATOM      7  C   UNL     1      31.479  22.466  13.969  0.00  0.00    +0.048 C 
ATOM      8  O   UNL     1      33.543  21.487  14.724  0.00  0.00    -0.485 OA
ATOM      9  C   UNL     1      34.430  21.189  15.725  0.00  0.00    +0.126 A 
ATOM     10  C   UNL     1      35.201  20.038  15.576  0.00  0.00    +0.046 A 
ATOM     11  C   UNL     1      36.094  19.659  16.581  0.00  0.00    +0.004 A 
ATOM     12  C   UNL     1      36.230  20.447  17.722  0.00  0.00    +0.001 A 
ATOM     13  C   UNL     1      35.479  21.616  17.853  0.00  0.00    +0.009 A 
ATOM     14  C   UNL     1      34.570  21.996  16.852  0.00  0.00    +0.015 A 
ENDROOT
BRANCH   1  21
ATOM     15  N   UNL     1      37.827  28.093  17.554  0.00  0.00    -0.299 N 
ATOM     16  C   UNL     1      36.759  28.036  18.552  0.00  0.00    +0.127 C 
ATOM     17  C   UNL     1      35.397  27.812  17.904  0.00  0.00    +0.129 C 
ATOM     18  N   UNL     1      35.437  26.569  17.147  0.00  0.00    -0.275 N 
ATOM     19  C   UNL     1      34.579  25.550  17.494  0.00  0.00    +0.303 C 
ATOM     20  O   UNL     1      33.780  25.647  18.424  0.00  0.00    -0.253 OA
ATOM     21  N   UNL     1      34.686  24.403  16.764  0.00  0.00    -0.292 N 
ATOM     22  C   UNL     1      36.478  26.524  16.116  0.00  0.00    +0.205 C 
ATOM     23  C   UNL     1      37.772  27.317  16.398  0.00  0.00    +0.233 C 
ATOM     24  O   UNL     1      38.704  27.276  15.590  0.00  0.00    -0.274 OA
ATOM     25  H   UNL     1      35.061  24.469  15.831  0.00  0.00    +0.151 HD
BRANCH  15  27
ATOM     26  C   UNL     1      38.926  29.837  18.931  0.00  0.00    +0.024 C 
ATOM     27  C   UNL     1      39.098  28.693  17.942  0.00  0.00    +0.104 C 
ENDBRANCH  15  27
ENDBRANCH   1  21
TORSDOF 2
ENDMDL
MODEL 8
REMARK VINA RESULT:      -5.8      1.244      1.388
REMARK  Name = ZINC000329563636
REMARK  3 active torsions:
REMARK  status: ('A' for Active; 'I' for Inactive)
REMARK    1  A    between atoms: C_1  and  C_2
REMARK    2  A    between atoms: C_2  and  N_3
REMARK    3  A    between atoms: N_9  and  C_10
REMARK                            x       y       z     vdW  Elec       q    Type
REMARK                         _______ _______ _______ _____ _____    ______ ____
ROOT
ATOM      1  C   UNL     1      34.937  23.104  15.049  0.00  0.00    +0.112 C 
ATOM      2  C   UNL     1      35.246  24.239  16.032  0.00  0.00    +0.075 C 
ATOM      3  C   UNL     1      34.197  24.444  17.134  0.00  0.00    +0.113 C 
ATOM      4  C   UNL     1      34.363  23.521  18.369  0.00  0.00    +0.048 C 
ATOM      5  C   UNL     1      34.782  24.423  19.525  0.00  0.00    +0.004 C 
ATOM      6  C   UNL     1      34.137  25.756  19.200  0.00  0.00    +0.004 C 
ATOM      7  C   UNL     1      34.356  25.880  17.701  0.00  0.00    +0.048 C 
ATOM      8  O   UNL     1      32.854  24.340  16.624  0.00  0.00    -0.485 OA
ATOM      9  C   UNL     1      32.610  23.143  16.001  0.00  0.00    +0.126 A 
ATOM     10  C   UNL     1      31.335  22.597  16.140  0.00  0.00    +0.046 A 
ATOM     11  C   UNL     1      31.038  21.361  15.563  0.00  0.00    +0.004 A 
ATOM     12  C   UNL     1      32.010  20.685  14.829  0.00  0.00    +0.001 A 
ATOM     13  C   UNL     1      33.275  21.251  14.665  0.00  0.00    +0.009 A 
ATOM     14  C   UNL     1      33.585  22.488  15.253  0.00  0.00    +0.015 A 
ENDROOT
BRANCH   1  21
ATOM     15  N   UNL     1      34.935  23.814   8.772  0.00  0.00    -0.299 N 
ATOM     16  C   UNL     1      35.543  22.582   9.273  0.00  0.00    +0.127 C 
ATOM     17  C   UNL     1      36.519  22.860  10.411  0.00  0.00    +0.129 C 
ATOM     18  N   UNL     1      35.805  23.534  11.485  0.00  0.00    -0.275 N 
ATOM     19  C   UNL     1      35.737  22.931  12.721  0.00  0.00    +0.303 C 
ATOM     20  O   UNL     1      36.254  21.839  12.952  0.00  0.00    -0.253 OA
ATOM     21  N   UNL     1      35.031  23.601  13.675  0.00  0.00    -0.292 N 
ATOM     22  C   UNL     1      35.155  24.787  11.086  0.00  0.00    +0.205 C 
ATOM     23  C   UNL     1      34.654  24.877   9.628  0.00  0.00    +0.233 C 
ATOM     24  O   UNL     1      34.055  25.886   9.248  0.00  0.00    -0.274 OA
ATOM     25  H   UNL     1      34.936  24.600  13.581  0.00  0.00    +0.151 HD
BRANCH  15  27
ATOM     26  C   UNL     1      34.477  22.442   6.758  0.00  0.00    +0.024 C 
ATOM     27  C   UNL     1      34.310  23.785   7.454  0.00  0.00    +0.104 C 
ENDBRANCH  15  27
ENDBRANCH   1  21
TORSDOF 2
ENDMDL
MODEL 9
REMARK VINA RESULT:      -5.8      2.641      4.269
REMARK  Name = ZINC000329563636
REMARK  3 active torsions:
REMARK  status: ('A' for Active; 'I' for Inactive)
REMARK    1  A    between atoms: C_1  and  C_2
REMARK    2  A    between atoms: C_2  and  N_3
REMARK    3  A    between atoms: N_9  and  C_10
REMARK                            x       y       z     vdW  Elec       q    Type
REMARK                         _______ _______ _______ _____ _____    ______ ____
ROOT
ATOM      1  C   UNL     1      32.620  19.861  11.990  0.00  0.00    +0.112 C 
ATOM      2  C   UNL     1      33.454  18.645  12.409  0.00  0.00    +0.075 C 
ATOM      3  C   UNL     1      33.591  18.446  13.925  0.00  0.00    +0.113 C 
ATOM      4  C   UNL     1      32.413  17.688  14.591  0.00  0.00    +0.048 C 
ATOM      5  C   UNL     1      32.968  16.340  15.036  0.00  0.00    +0.004 C 
ATOM      6  C   UNL     1      34.427  16.626  15.332  0.00  0.00    +0.004 C 
ATOM      7  C   UNL     1      34.828  17.548  14.193  0.00  0.00    +0.048 C 
ATOM      8  O   UNL     1      33.819  19.692  14.612  0.00  0.00    -0.485 OA
ATOM      9  C   UNL     1      32.839  20.620  14.377  0.00  0.00    +0.126 A 
ATOM     10  C   UNL     1      32.493  21.468  15.428  0.00  0.00    +0.046 A 
ATOM     11  C   UNL     1      31.473  22.406  15.262  0.00  0.00    +0.004 A 
ATOM     12  C   UNL     1      30.817  22.511  14.037  0.00  0.00    +0.001 A 
ATOM     13  C   UNL     1      31.189  21.683  12.978  0.00  0.00    +0.009 A 
ATOM     14  C   UNL     1      32.205  20.728  13.141  0.00  0.00    +0.015 A 
ENDROOT
BRANCH   1  21
ATOM     15  N   UNL     1      34.804  22.862   6.878  0.00  0.00    -0.299 N 
ATOM     16  C   UNL     1      34.375  21.480   6.670  0.00  0.00    +0.127 C 
ATOM     17  C   UNL     1      34.953  20.547   7.728  0.00  0.00    +0.129 C 
ATOM     18  N   UNL     1      34.526  21.007   9.041  0.00  0.00    -0.275 N 
ATOM     19  C   UNL     1      33.765  20.169   9.826  0.00  0.00    +0.303 C 
ATOM     20  O   UNL     1      33.427  19.045   9.457  0.00  0.00    -0.253 OA
ATOM     21  N   UNL     1      33.375  20.671  11.032  0.00  0.00    -0.292 N 
ATOM     22  C   UNL     1      34.908  22.388   9.351  0.00  0.00    +0.205 C 
ATOM     23  C   UNL     1      34.997  23.369   8.162  0.00  0.00    +0.233 C 
ATOM     24  O   UNL     1      35.265  24.556   8.366  0.00  0.00    -0.274 OA
ATOM     25  H   UNL     1      33.933  21.401  11.445  0.00  0.00    +0.151 HD
BRANCH  15  27
ATOM     26  C   UNL     1      35.905  23.759   4.846  0.00  0.00    +0.024 C 
ATOM     27  C   UNL     1      34.690  23.793   5.762  0.00  0.00    +0.104 C 
ENDBRANCH  15  27
ENDBRANCH   1  21
TORSDOF 2
ENDMDL
