MODEL 1
REMARK VINA RESULT:      -6.6      0.000      0.000
REMARK  Name = ZINC000870248439
REMARK  2 active torsions:
REMARK  status: ('A' for Active; 'I' for Inactive)
REMARK    1  A    between atoms: C_2  and  C_4
REMARK    2  A    between atoms: C_7  and  C_8
REMARK                            x       y       z     vdW  Elec       q    Type
REMARK                         _______ _______ _______ _____ _____    ______ ____
ROOT
ATOM      1  C   UNL     1      31.438  22.026  15.624  0.00  0.00    +0.247 C 
ATOM      2  O   UNL     1      32.118  21.184  16.209  0.00  0.00    -0.270 OA
ATOM      3  N   UNL     1      31.873  22.701  14.476  0.00  0.00    -0.297 N 
ATOM      4  C   UNL     1      31.122  23.735  13.760  0.00  0.00    +0.108 C 
ATOM      5  C   UNL     1      31.285  23.660  12.247  0.00  0.00    +0.026 C 
ATOM      6  C   UNL     1      32.756  23.576  11.787  0.00  0.00    -0.025 C 
ATOM      7  C   UNL     1      32.750  23.286  10.264  0.00  0.00    +0.017 C 
ATOM      8  C   UNL     1      34.126  23.204   9.618  0.00  0.00    +0.069 C 
ATOM      9  S   UNL     1      35.063  24.747   9.791  0.00  0.00    -0.161 S 
ATOM     10  C   UNL     1      34.917  24.987  11.582  0.00  0.00    +0.069 C 
ATOM     11  C   UNL     1      33.466  24.930  12.048  0.00  0.00    +0.017 C 
ATOM     12  C   UNL     1      33.410  22.402  12.561  0.00  0.00    +0.026 C 
ATOM     13  C   UNL     1      33.268  22.534  14.078  0.00  0.00    +0.108 C 
ENDROOT
BRANCH   1  17
ATOM     14  C   UNL     1      27.574  22.567  17.359  0.00  0.00    +0.037 A 
ATOM     15  C   UNL     1      27.710  21.749  16.232  0.00  0.00    +0.014 A 
ATOM     16  C   UNL     1      28.949  21.643  15.600  0.00  0.00    +0.014 A 
ATOM     17  C   UNL     1      30.071  22.274  16.147  0.00  0.00    +0.037 A 
ATOM     18  C   UNL     1      29.916  23.163  17.219  0.00  0.00    +0.014 A 
ATOM     19  C   UNL     1      28.664  23.318  17.818  0.00  0.00    +0.014 A 
BRANCH  14  21
ATOM     20  N   UNL     1      26.125  23.717  18.935  0.00  0.00    -0.325 N 
ATOM     21  C   UNL     1      26.282  22.660  18.084  0.00  0.00    +0.242 C 
ATOM     22  O   UNL     1      25.380  21.859  17.891  0.00  0.00    -0.270 OA
ATOM     23  H   UNL     1      25.200  23.838  19.329  0.00  0.00    +0.145 HD
ATOM     24  H   UNL     1      26.734  24.524  18.915  0.00  0.00    +0.145 HD
ENDBRANCH  14  21
ENDBRANCH   1  17
TORSDOF 2
ENDMDL
MODEL 2
REMARK VINA RESULT:      -6.6      2.137      3.027
REMARK  Name = ZINC000870248439
REMARK  2 active torsions:
REMARK  status: ('A' for Active; 'I' for Inactive)
REMARK    1  A    between atoms: C_2  and  C_4
REMARK    2  A    between atoms: C_7  and  C_8
REMARK                            x       y       z     vdW  Elec       q    Type
REMARK                         _______ _______ _______ _____ _____    ______ ____
ROOT
ATOM      1  C   UNL     1      30.204  23.552  13.200  0.00  0.00    +0.247 C 
ATOM      2  O   UNL     1      29.458  24.290  12.557  0.00  0.00    -0.270 OA
ATOM      3  N   UNL     1      31.587  23.481  12.983  0.00  0.00    -0.297 N 
ATOM      4  C   UNL     1      32.516  22.598  13.691  0.00  0.00    +0.108 C 
ATOM      5  C   UNL     1      33.866  23.246  13.975  0.00  0.00    +0.026 C 
ATOM      6  C   UNL     1      34.509  23.905  12.737  0.00  0.00    -0.025 C 
ATOM      7  C   UNL     1      35.747  24.699  13.225  0.00  0.00    +0.017 C 
ATOM      8  C   UNL     1      36.540  25.396  12.127  0.00  0.00    +0.069 C 
ATOM      9  S   UNL     1      37.193  24.229  10.902  0.00  0.00    -0.161 S 
ATOM     10  C   UNL     1      35.666  23.341  10.491  0.00  0.00    +0.069 C 
ATOM     11  C   UNL     1      34.963  22.811  11.736  0.00  0.00    +0.017 C 
ATOM     12  C   UNL     1      33.452  24.865  12.130  0.00  0.00    +0.026 C 
ATOM     13  C   UNL     1      32.127  24.171  11.814  0.00  0.00    +0.108 C 
ENDROOT
BRANCH   1  17
ATOM     14  C   UNL     1      28.177  21.330  16.230  0.00  0.00    +0.037 A 
ATOM     15  C   UNL     1      28.787  22.545  16.564  0.00  0.00    +0.014 A 
ATOM     16  C   UNL     1      29.534  23.230  15.605  0.00  0.00    +0.014 A 
ATOM     17  C   UNL     1      29.592  22.754  14.291  0.00  0.00    +0.037 A 
ATOM     18  C   UNL     1      29.058  21.496  13.982  0.00  0.00    +0.014 A 
ATOM     19  C   UNL     1      28.359  20.779  14.956  0.00  0.00    +0.014 A 
BRANCH  14  21
ATOM     20  N   UNL     1      27.625  19.287  17.424  0.00  0.00    -0.325 N 
ATOM     21  C   UNL     1      27.333  20.605  17.212  0.00  0.00    +0.242 C 
ATOM     22  O   UNL     1      26.452  21.170  17.842  0.00  0.00    -0.270 OA
ATOM     23  H   UNL     1      27.126  18.837  18.181  0.00  0.00    +0.145 HD
ATOM     24  H   UNL     1      28.496  18.870  17.126  0.00  0.00    +0.145 HD
ENDBRANCH  14  21
ENDBRANCH   1  17
TORSDOF 2
ENDMDL
MODEL 3
REMARK VINA RESULT:      -6.4      2.824      3.554
REMARK  Name = ZINC000870248439
REMARK  2 active torsions:
REMARK  status: ('A' for Active; 'I' for Inactive)
REMARK    1  A    between atoms: C_2  and  C_4
REMARK    2  A    between atoms: C_7  and  C_8
REMARK                            x       y       z     vdW  Elec       q    Type
REMARK                         _______ _______ _______ _____ _____    ______ ____
ROOT
ATOM      1  C   UNL     1      31.608  22.693  13.814  0.00  0.00    +0.247 C 
ATOM      2  O   UNL     1      31.836  23.901  13.859  0.00  0.00    -0.270 OA
ATOM      3  N   UNL     1      32.362  21.798  13.043  0.00  0.00    -0.297 N 
ATOM      4  C   UNL     1      32.114  20.359  12.924  0.00  0.00    +0.108 C 
ATOM      5  C   UNL     1      33.391  19.531  12.855  0.00  0.00    +0.026 C 
ATOM      6  C   UNL     1      34.405  20.042  11.809  0.00  0.00    -0.025 C 
ATOM      7  C   UNL     1      35.720  19.247  12.010  0.00  0.00    +0.017 C 
ATOM      8  C   UNL     1      36.837  19.592  11.034  0.00  0.00    +0.069 C 
ATOM      9  S   UNL     1      36.367  19.281   9.310  0.00  0.00    -0.161 S 
ATOM     10  C   UNL     1      34.803  20.197   9.256  0.00  0.00    +0.069 C 
ATOM     11  C   UNL     1      33.861  19.782  10.380  0.00  0.00    +0.017 C 
ATOM     12  C   UNL     1      34.632  21.550  12.094  0.00  0.00    +0.026 C 
ATOM     13  C   UNL     1      33.334  22.358  12.109  0.00  0.00    +0.108 C 
ENDROOT
BRANCH   1  17
ATOM     14  C   UNL     1      28.599  20.958  16.297  0.00  0.00    +0.037 A 
ATOM     15  C   UNL     1      28.333  21.160  14.938  0.00  0.00    +0.014 A 
ATOM     16  C   UNL     1      29.271  21.814  14.140  0.00  0.00    +0.014 A 
ATOM     17  C   UNL     1      30.512  22.179  14.672  0.00  0.00    +0.037 A 
ATOM     18  C   UNL     1      30.741  22.058  16.049  0.00  0.00    +0.014 A 
ATOM     19  C   UNL     1      29.779  21.457  16.864  0.00  0.00    +0.014 A 
BRANCH  14  21
ATOM     20  N   UNL     1      27.874  18.883  17.334  0.00  0.00    -0.325 N 
ATOM     21  C   UNL     1      27.645  20.219  17.160  0.00  0.00    +0.242 C 
ATOM     22  O   UNL     1      26.728  20.786  17.734  0.00  0.00    -0.270 OA
ATOM     23  H   UNL     1      27.293  18.416  18.019  0.00  0.00    +0.145 HD
ATOM     24  H   UNL     1      28.756  18.449  17.095  0.00  0.00    +0.145 HD
ENDBRANCH  14  21
ENDBRANCH   1  17
TORSDOF 2
ENDMDL
MODEL 4
REMARK VINA RESULT:      -6.3      4.080      8.475
REMARK  Name = ZINC000870248439
REMARK  2 active torsions:
REMARK  status: ('A' for Active; 'I' for Inactive)
REMARK    1  A    between atoms: C_2  and  C_4
REMARK    2  A    between atoms: C_7  and  C_8
REMARK                            x       y       z     vdW  Elec       q    Type
REMARK                         _______ _______ _______ _____ _____    ______ ____
ROOT
ATOM      1  C   UNL     1      31.640  24.196  11.391  0.00  0.00    +0.247 C 
ATOM      2  O   UNL     1      30.589  24.638  10.929  0.00  0.00    -0.270 OA
ATOM      3  N   UNL     1      31.845  23.976  12.760  0.00  0.00    -0.297 N 
ATOM      4  C   UNL     1      33.084  23.487  13.368  0.00  0.00    +0.108 C 
ATOM      5  C   UNL     1      32.848  22.535  14.535  0.00  0.00    +0.026 C 
ATOM      6  C   UNL     1      31.852  23.076  15.583  0.00  0.00    -0.025 C 
ATOM      7  C   UNL     1      31.551  21.924  16.574  0.00  0.00    +0.017 C 
ATOM      8  C   UNL     1      30.605  22.283  17.712  0.00  0.00    +0.069 C 
ATOM      9  S   UNL     1      31.249  23.627  18.746  0.00  0.00    -0.161 S 
ATOM     10  C   UNL     1      31.618  24.846  17.457  0.00  0.00    +0.069 C 
ATOM     11  C   UNL     1      32.491  24.261  16.352  0.00  0.00    +0.017 C 
ATOM     12  C   UNL     1      30.565  23.486  14.819  0.00  0.00    +0.026 C 
ATOM     13  C   UNL     1      30.833  24.477  13.687  0.00  0.00    +0.108 C 
ENDROOT
BRANCH   1  17
ATOM     14  C   UNL     1      34.612  23.372   8.438  0.00  0.00    +0.037 A 
ATOM     15  C   UNL     1      33.500  22.530   8.543  0.00  0.00    +0.014 A 
ATOM     16  C   UNL     1      32.574  22.732   9.567  0.00  0.00    +0.014 A 
ATOM     17  C   UNL     1      32.704  23.831  10.423  0.00  0.00    +0.037 A 
ATOM     18  C   UNL     1      33.862  24.618  10.373  0.00  0.00    +0.014 A 
ATOM     19  C   UNL     1      34.822  24.381   9.386  0.00  0.00    +0.014 A 
BRANCH  14  21
ATOM     20  N   UNL     1      35.512  24.120   6.308  0.00  0.00    -0.325 N 
ATOM     21  C   UNL     1      35.586  23.215   7.329  0.00  0.00    +0.242 C 
ATOM     22  O   UNL     1      36.449  22.351   7.352  0.00  0.00    -0.270 OA
ATOM     23  H   UNL     1      36.256  24.079   5.622  0.00  0.00    +0.145 HD
ATOM     24  H   UNL     1      34.998  24.986   6.388  0.00  0.00    +0.145 HD
ENDBRANCH  14  21
ENDBRANCH   1  17
TORSDOF 2
ENDMDL
MODEL 5
REMARK VINA RESULT:      -6.3     23.788     25.741
REMARK  Name = ZINC000870248439
REMARK  2 active torsions:
REMARK  status: ('A' for Active; 'I' for Inactive)
REMARK    1  A    between atoms: C_2  and  C_4
REMARK    2  A    between atoms: C_7  and  C_8
REMARK                            x       y       z     vdW  Elec       q    Type
REMARK                         _______ _______ _______ _____ _____    ______ ____
ROOT
ATOM      1  C   UNL     1      20.109   7.980  29.688  0.00  0.00    +0.247 C 
ATOM      2  O   UNL     1      20.292   8.948  28.950  0.00  0.00    -0.270 OA
ATOM      3  N   UNL     1      21.152   7.285  30.314  0.00  0.00    -0.297 N 
ATOM      4  C   UNL     1      20.996   6.107  31.171  0.00  0.00    +0.108 C 
ATOM      5  C   UNL     1      21.961   6.088  32.350  0.00  0.00    +0.026 C 
ATOM      6  C   UNL     1      23.432   6.336  31.951  0.00  0.00    -0.025 C 
ATOM      7  C   UNL     1      24.245   6.506  33.260  0.00  0.00    +0.017 C 
ATOM      8  C   UNL     1      25.739   6.724  33.066  0.00  0.00    +0.069 C 
ATOM      9  S   UNL     1      26.533   5.339  32.205  0.00  0.00    -0.161 S 
ATOM     10  C   UNL     1      25.441   5.219  30.762  0.00  0.00    +0.069 C 
ATOM     11  C   UNL     1      23.974   5.114  31.165  0.00  0.00    +0.017 C 
ATOM     12  C   UNL     1      23.464   7.643  31.117  0.00  0.00    +0.026 C 
ATOM     13  C   UNL     1      22.519   7.608  29.915  0.00  0.00    +0.108 C 
ENDROOT
BRANCH   1  17
ATOM     14  C   UNL     1      16.156   6.731  30.708  0.00  0.00    +0.037 A 
ATOM     15  C   UNL     1      16.842   6.064  29.687  0.00  0.00    +0.014 A 
ATOM     16  C   UNL     1      18.094   6.526  29.280  0.00  0.00    +0.014 A 
ATOM     17  C   UNL     1      18.703   7.590  29.955  0.00  0.00    +0.037 A 
ATOM     18  C   UNL     1      17.979   8.310  30.914  0.00  0.00    +0.014 A 
ATOM     19  C   UNL     1      16.699   7.887  31.283  0.00  0.00    +0.014 A 
BRANCH  14  21
ATOM     20  N   UNL     1      13.924   7.174  31.563  0.00  0.00    -0.325 N 
ATOM     21  C   UNL     1      14.847   6.233  31.199  0.00  0.00    +0.242 C 
ATOM     22  O   UNL     1      14.583   5.040  31.226  0.00  0.00    -0.270 OA
ATOM     23  H   UNL     1      12.997   6.828  31.778  0.00  0.00    +0.145 HD
ATOM     24  H   UNL     1      14.012   8.146  31.305  0.00  0.00    +0.145 HD
ENDBRANCH  14  21
ENDBRANCH   1  17
TORSDOF 2
ENDMDL
MODEL 6
REMARK VINA RESULT:      -6.3      4.337      5.849
REMARK  Name = ZINC000870248439
REMARK  2 active torsions:
REMARK  status: ('A' for Active; 'I' for Inactive)
REMARK    1  A    between atoms: C_2  and  C_4
REMARK    2  A    between atoms: C_7  and  C_8
REMARK                            x       y       z     vdW  Elec       q    Type
REMARK                         _______ _______ _______ _____ _____    ______ ____
ROOT
ATOM      1  C   UNL     1      31.750  22.821  16.470  0.00  0.00    +0.247 C 
ATOM      2  O   UNL     1      32.448  22.482  15.515  0.00  0.00    -0.270 OA
ATOM      3  N   UNL     1      32.217  23.633  17.512  0.00  0.00    -0.297 N 
ATOM      4  C   UNL     1      31.443  24.037  18.689  0.00  0.00    +0.108 C 
ATOM      5  C   UNL     1      31.727  25.466  19.135  0.00  0.00    +0.026 C 
ATOM      6  C   UNL     1      33.232  25.781  19.283  0.00  0.00    -0.025 C 
ATOM      7  C   UNL     1      33.365  27.306  19.522  0.00  0.00    +0.017 C 
ATOM      8  C   UNL     1      34.789  27.804  19.729  0.00  0.00    +0.069 C 
ATOM      9  S   UNL     1      35.584  27.039  21.169  0.00  0.00    -0.161 S 
ATOM     10  C   UNL     1      35.283  25.293  20.785  0.00  0.00    +0.069 C 
ATOM     11  C   UNL     1      33.810  25.018  20.503  0.00  0.00    +0.017 C 
ATOM     12  C   UNL     1      33.915  25.377  17.951  0.00  0.00    +0.026 C 
ATOM     13  C   UNL     1      33.648  23.924  17.558  0.00  0.00    +0.108 C 
ENDROOT
BRANCH   1  17
ATOM     14  C   UNL     1      27.635  21.705  16.696  0.00  0.00    +0.037 A 
ATOM     15  C   UNL     1      28.620  20.747  16.962  0.00  0.00    +0.014 A 
ATOM     16  C   UNL     1      29.966  21.075  16.796  0.00  0.00    +0.014 A 
ATOM     17  C   UNL     1      30.333  22.382  16.460  0.00  0.00    +0.037 A 
ATOM     18  C   UNL     1      29.347  23.313  16.108  0.00  0.00    +0.014 A 
ATOM     19  C   UNL     1      27.996  22.970  16.215  0.00  0.00    +0.014 A 
BRANCH  14  21
ATOM     20  N   UNL     1      25.842  20.085  16.953  0.00  0.00    -0.325 N 
ATOM     21  C   UNL     1      26.198  21.404  16.914  0.00  0.00    +0.242 C 
ATOM     22  O   UNL     1      25.379  22.290  17.104  0.00  0.00    -0.270 OA
ATOM     23  H   UNL     1      24.886  19.890  17.223  0.00  0.00    +0.145 HD
ATOM     24  H   UNL     1      26.520  19.344  17.064  0.00  0.00    +0.145 HD
ENDBRANCH  14  21
ENDBRANCH   1  17
TORSDOF 2
ENDMDL
MODEL 7
REMARK VINA RESULT:      -6.2      5.677      7.895
REMARK  Name = ZINC000870248439
REMARK  2 active torsions:
REMARK  status: ('A' for Active; 'I' for Inactive)
REMARK    1  A    between atoms: C_2  and  C_4
REMARK    2  A    between atoms: C_7  and  C_8
REMARK                            x       y       z     vdW  Elec       q    Type
REMARK                         _______ _______ _______ _____ _____    ______ ____
ROOT
ATOM      1  C   UNL     1      31.591  24.294  18.998  0.00  0.00    +0.247 C 
ATOM      2  O   UNL     1      30.922  25.231  19.432  0.00  0.00    -0.270 OA
ATOM      3  N   UNL     1      32.668  23.731  19.696  0.00  0.00    -0.297 N 
ATOM      4  C   UNL     1      33.520  22.642  19.213  0.00  0.00    +0.108 C 
ATOM      5  C   UNL     1      33.932  21.668  20.310  0.00  0.00    +0.026 C 
ATOM      6  C   UNL     1      34.512  22.358  21.564  0.00  0.00    -0.025 C 
ATOM      7  C   UNL     1      34.675  21.271  22.657  0.00  0.00    +0.017 C 
ATOM      8  C   UNL     1      35.274  21.762  23.968  0.00  0.00    +0.069 C 
ATOM      9  S   UNL     1      36.938  22.451  23.751  0.00  0.00    -0.161 S 
ATOM     10  C   UNL     1      36.601  23.629  22.414  0.00  0.00    +0.069 C 
ATOM     11  C   UNL     1      35.901  22.965  21.233  0.00  0.00    +0.017 C 
ATOM     12  C   UNL     1      33.485  23.430  22.011  0.00  0.00    +0.026 C 
ATOM     13  C   UNL     1      33.130  24.418  20.899  0.00  0.00    +0.108 C 
ENDROOT
BRANCH   1  17
ATOM     14  C   UNL     1      30.179  22.819  15.248  0.00  0.00    +0.037 A 
ATOM     15  C   UNL     1      29.972  22.059  16.405  0.00  0.00    +0.014 A 
ATOM     16  C   UNL     1      30.514  22.484  17.618  0.00  0.00    +0.014 A 
ATOM     17  C   UNL     1      31.177  23.714  17.696  0.00  0.00    +0.037 A 
ATOM     18  C   UNL     1      31.461  24.427  16.525  0.00  0.00    +0.014 A 
ATOM     19  C   UNL     1      30.970  23.973  15.298  0.00  0.00    +0.014 A 
BRANCH  14  21
ATOM     20  N   UNL     1      29.907  23.164  12.858  0.00  0.00    -0.325 N 
ATOM     21  C   UNL     1      29.571  22.421  13.954  0.00  0.00    +0.242 C 
ATOM     22  O   UNL     1      28.847  21.441  13.860  0.00  0.00    -0.270 OA
ATOM     23  H   UNL     1      29.587  22.811  11.965  0.00  0.00    +0.145 HD
ATOM     24  H   UNL     1      30.693  23.799  12.855  0.00  0.00    +0.145 HD
ENDBRANCH  14  21
ENDBRANCH   1  17
TORSDOF 2
ENDMDL
MODEL 8
REMARK VINA RESULT:      -6.1      3.208      5.163
REMARK  Name = ZINC000870248439
REMARK  2 active torsions:
REMARK  status: ('A' for Active; 'I' for Inactive)
REMARK    1  A    between atoms: C_2  and  C_4
REMARK    2  A    between atoms: C_7  and  C_8
REMARK                            x       y       z     vdW  Elec       q    Type
REMARK                         _______ _______ _______ _____ _____    ______ ____
ROOT
ATOM      1  C   UNL     1      33.154  24.957  10.868  0.00  0.00    +0.247 C 
ATOM      2  O   UNL     1      33.273  26.161  10.641  0.00  0.00    -0.270 OA
ATOM      3  N   UNL     1      33.965  23.980  10.275  0.00  0.00    -0.297 N 
ATOM      4  C   UNL     1      33.845  22.535  10.481  0.00  0.00    +0.108 C 
ATOM      5  C   UNL     1      35.190  21.820  10.532  0.00  0.00    +0.026 C 
ATOM      6  C   UNL     1      36.124  22.173   9.354  0.00  0.00    -0.025 C 
ATOM      7  C   UNL     1      37.511  21.552   9.660  0.00  0.00    +0.017 C 
ATOM      8  C   UNL     1      38.564  21.766   8.582  0.00  0.00    +0.069 C 
ATOM      9  S   UNL     1      38.078  21.047   6.989  0.00  0.00    -0.161 S 
ATOM     10  C   UNL     1      36.436  21.797   6.812  0.00  0.00    +0.069 C 
ATOM     11  C   UNL     1      35.567  21.562   8.042  0.00  0.00    +0.017 C 
ATOM     12  C   UNL     1      36.221  23.720   9.296  0.00  0.00    +0.026 C 
ATOM     13  C   UNL     1      34.856  24.401   9.197  0.00  0.00    +0.108 C 
ENDROOT
BRANCH   1  17
ATOM     14  C   UNL     1      30.275  23.519  13.674  0.00  0.00    +0.037 A 
ATOM     15  C   UNL     1      29.835  24.108  12.484  0.00  0.00    +0.014 A 
ATOM     16  C   UNL     1      30.764  24.668  11.606  0.00  0.00    +0.014 A 
ATOM     17  C   UNL     1      32.133  24.555  11.868  0.00  0.00    +0.037 A 
ATOM     18  C   UNL     1      32.566  24.047  13.099  0.00  0.00    +0.014 A 
ATOM     19  C   UNL     1      31.635  23.538  14.008  0.00  0.00    +0.014 A 
BRANCH  14  21
ATOM     20  N   UNL     1      29.084  23.499  15.793  0.00  0.00    -0.325 N 
ATOM     21  C   UNL     1      29.317  22.868  14.603  0.00  0.00    +0.242 C 
ATOM     22  O   UNL     1      28.723  21.845  14.298  0.00  0.00    -0.270 OA
ATOM     23  H   UNL     1      28.341  23.113  16.362  0.00  0.00    +0.145 HD
ATOM     24  H   UNL     1      29.349  24.460  15.957  0.00  0.00    +0.145 HD
ENDBRANCH  14  21
ENDBRANCH   1  17
TORSDOF 2
ENDMDL
MODEL 9
REMARK VINA RESULT:      -6.0      4.178      8.719
REMARK  Name = ZINC000870248439
REMARK  2 active torsions:
REMARK  status: ('A' for Active; 'I' for Inactive)
REMARK    1  A    between atoms: C_2  and  C_4
REMARK    2  A    between atoms: C_7  and  C_8
REMARK                            x       y       z     vdW  Elec       q    Type
REMARK                         _______ _______ _______ _____ _____    ______ ____
ROOT
ATOM      1  C   UNL     1      33.934  21.430  11.828  0.00  0.00    +0.247 C 
ATOM      2  O   UNL     1      34.525  20.382  12.087  0.00  0.00    -0.270 OA
ATOM      3  N   UNL     1      32.884  21.933  12.608  0.00  0.00    -0.297 N 
ATOM      4  C   UNL     1      32.123  23.153  12.328  0.00  0.00    +0.108 C 
ATOM      5  C   UNL     1      31.756  23.935  13.583  0.00  0.00    +0.026 C 
ATOM      6  C   UNL     1      31.100  23.072  14.681  0.00  0.00    -0.025 C 
ATOM      7  C   UNL     1      30.990  23.947  15.955  0.00  0.00    +0.017 C 
ATOM      8  C   UNL     1      30.327  23.269  17.147  0.00  0.00    +0.069 C 
ATOM      9  S   UNL     1      28.624  22.757  16.790  0.00  0.00    -0.161 S 
ATOM     10  C   UNL     1      28.907  21.824  15.261  0.00  0.00    +0.069 C 
ATOM     11  C   UNL     1      29.680  22.640  14.231  0.00  0.00    +0.017 C 
ATOM     12  C   UNL     1      32.038  21.862  14.931  0.00  0.00    +0.026 C 
ATOM     13  C   UNL     1      32.347  21.072  13.659  0.00  0.00    +0.108 C 
ENDROOT
BRANCH   1  17
ATOM     14  C   UNL     1      35.495  23.437   8.398  0.00  0.00    +0.037 A 
ATOM     15  C   UNL     1      35.924  23.825   9.673  0.00  0.00    +0.014 A 
ATOM     16  C   UNL     1      35.348  23.243  10.802  0.00  0.00    +0.014 A 
ATOM     17  C   UNL     1      34.418  22.208  10.661  0.00  0.00    +0.037 A 
ATOM     18  C   UNL     1      33.925  21.884   9.390  0.00  0.00    +0.014 A 
ATOM     19  C   UNL     1      34.457  22.508   8.258  0.00  0.00    +0.014 A 
BRANCH  14  21
ATOM     20  N   UNL     1      35.339  24.092   6.063  0.00  0.00    -0.325 N 
ATOM     21  C   UNL     1      36.125  23.999   7.177  0.00  0.00    +0.242 C 
ATOM     22  O   UNL     1      37.275  24.410   7.180  0.00  0.00    -0.270 OA
ATOM     23  H   UNL     1      35.739  24.587   5.276  0.00  0.00    +0.145 HD
ATOM     24  H   UNL     1      34.332  24.011   6.102  0.00  0.00    +0.145 HD
ENDBRANCH  14  21
ENDBRANCH   1  17
TORSDOF 2
ENDMDL
