MODEL 1
REMARK VINA RESULT:      -6.9      0.000      0.000
REMARK  Name = ZINC000583127796
REMARK  2 active torsions:
REMARK  status: ('A' for Active; 'I' for Inactive)
REMARK    1  A    between atoms: C_2  and  C_4
REMARK    2  A    between atoms: C_7  and  C_8
REMARK                            x       y       z     vdW  Elec       q    Type
REMARK                         _______ _______ _______ _____ _____    ______ ____
ROOT
ATOM      1  C   UNL     1      31.849  17.186  15.953  0.00  0.00    +0.247 C 
ATOM      2  O   UNL     1      33.054  16.953  15.876  0.00  0.00    -0.270 OA
ATOM      3  N   UNL     1      31.340  18.384  16.479  0.00  0.00    -0.297 N 
ATOM      4  C   UNL     1      29.927  18.750  16.604  0.00  0.00    +0.108 C 
ATOM      5  C   UNL     1      29.613  20.079  15.940  0.00  0.00    +0.020 C 
ATOM      6  C   UNL     1      30.569  21.168  16.390  0.00  0.00    +0.011 C 
ATOM      7  C   UNL     1      32.057  20.767  16.233  0.00  0.00    -0.004 C 
ATOM      8  C   UNL     1      32.898  21.906  16.848  0.00  0.00    +0.020 C 
ATOM      9  C   UNL     1      34.286  21.903  16.244  0.00  0.00    +0.070 C 
ATOM     10  S   UNL     1      34.003  21.565  14.499  0.00  0.00    -0.160 S 
ATOM     11  C   UNL     1      32.453  20.654  14.743  0.00  0.00    +0.077 C 
ATOM     12  C   UNL     1      32.285  19.409  16.953  0.00  0.00    +0.115 C 
ENDROOT
BRANCH   1  16
ATOM     13  C   UNL     1      29.000  14.595  14.089  0.00  0.00    +0.037 A 
ATOM     14  C   UNL     1      28.956  14.773  15.476  0.00  0.00    +0.014 A 
ATOM     15  C   UNL     1      29.949  15.521  16.114  0.00  0.00    +0.014 A 
ATOM     16  C   UNL     1      30.925  16.179  15.359  0.00  0.00    +0.037 A 
ATOM     17  C   UNL     1      31.028  15.916  13.986  0.00  0.00    +0.014 A 
ATOM     18  C   UNL     1      30.073  15.114  13.354  0.00  0.00    +0.014 A 
BRANCH  13  20
ATOM     19  N   UNL     1      28.315  12.923  12.462  0.00  0.00    -0.325 N 
ATOM     20  C   UNL     1      27.924  13.865  13.371  0.00  0.00    +0.242 C 
ATOM     21  O   UNL     1      26.744  14.060  13.622  0.00  0.00    -0.270 OA
ATOM     22  H   UNL     1      27.576  12.346  12.078  0.00  0.00    +0.145 HD
ATOM     23  H   UNL     1      29.254  12.551  12.442  0.00  0.00    +0.145 HD
ENDBRANCH  13  20
ENDBRANCH   1  16
TORSDOF 2
ENDMDL
MODEL 2
REMARK VINA RESULT:      -6.6      4.856      7.127
REMARK  Name = ZINC000583127796
REMARK  2 active torsions:
REMARK  status: ('A' for Active; 'I' for Inactive)
REMARK    1  A    between atoms: C_2  and  C_4
REMARK    2  A    between atoms: C_7  and  C_8
REMARK                            x       y       z     vdW  Elec       q    Type
REMARK                         _______ _______ _______ _____ _____    ______ ____
ROOT
ATOM      1  C   UNL     1      33.166  22.162  12.920  0.00  0.00    +0.247 C 
ATOM      2  O   UNL     1      33.927  21.251  12.598  0.00  0.00    -0.270 OA
ATOM      3  N   UNL     1      33.144  23.401  12.258  0.00  0.00    -0.297 N 
ATOM      4  C   UNL     1      32.272  24.537  12.566  0.00  0.00    +0.108 C 
ATOM      5  C   UNL     1      31.487  25.009  11.355  0.00  0.00    +0.020 C 
ATOM      6  C   UNL     1      32.393  25.238  10.159  0.00  0.00    +0.011 C 
ATOM      7  C   UNL     1      33.293  24.019   9.840  0.00  0.00    -0.004 C 
ATOM      8  C   UNL     1      34.240  24.444   8.698  0.00  0.00    +0.020 C 
ATOM      9  C   UNL     1      34.718  23.221   7.945  0.00  0.00    +0.070 C 
ATOM     10  S   UNL     1      33.254  22.179   7.828  0.00  0.00    -0.160 S 
ATOM     11  C   UNL     1      32.457  22.824   9.326  0.00  0.00    +0.077 C 
ATOM     12  C   UNL     1      34.063  23.618  11.129  0.00  0.00    +0.115 C 
ENDROOT
BRANCH   1  16
ATOM     13  C   UNL     1      30.516  20.997  16.069  0.00  0.00    +0.037 A 
ATOM     14  C   UNL     1      30.091  20.881  14.742  0.00  0.00    +0.014 A 
ATOM     15  C   UNL     1      30.897  21.364  13.708  0.00  0.00    +0.014 A 
ATOM     16  C   UNL     1      32.171  21.868  13.989  0.00  0.00    +0.037 A 
ATOM     17  C   UNL     1      32.550  22.079  15.322  0.00  0.00    +0.014 A 
ATOM     18  C   UNL     1      31.717  21.654  16.361  0.00  0.00    +0.014 A 
BRANCH  13  20
ATOM     19  N   UNL     1      29.895  19.105  17.465  0.00  0.00    -0.325 N 
ATOM     20  C   UNL     1      29.716  20.431  17.186  0.00  0.00    +0.242 C 
ATOM     21  O   UNL     1      28.974  21.132  17.858  0.00  0.00    -0.270 OA
ATOM     22  H   UNL     1      29.443  18.767  18.306  0.00  0.00    +0.145 HD
ATOM     23  H   UNL     1      30.689  18.585  17.121  0.00  0.00    +0.145 HD
ENDBRANCH  13  20
ENDBRANCH   1  16
TORSDOF 2
ENDMDL
MODEL 3
REMARK VINA RESULT:      -6.6      1.237      1.349
REMARK  Name = ZINC000583127796
REMARK  2 active torsions:
REMARK  status: ('A' for Active; 'I' for Inactive)
REMARK    1  A    between atoms: C_2  and  C_4
REMARK    2  A    between atoms: C_7  and  C_8
REMARK                            x       y       z     vdW  Elec       q    Type
REMARK                         _______ _______ _______ _____ _____    ______ ____
ROOT
ATOM      1  C   UNL     1      31.615  17.707  16.195  0.00  0.00    +0.247 C 
ATOM      2  O   UNL     1      32.497  17.392  16.991  0.00  0.00    -0.270 OA
ATOM      3  N   UNL     1      31.268  19.043  15.936  0.00  0.00    -0.297 N 
ATOM      4  C   UNL     1      30.240  19.511  15.002  0.00  0.00    +0.108 C 
ATOM      5  C   UNL     1      30.784  20.506  13.994  0.00  0.00    +0.020 C 
ATOM      6  C   UNL     1      31.549  21.627  14.673  0.00  0.00    +0.011 C 
ATOM      7  C   UNL     1      32.643  21.111  15.641  0.00  0.00    -0.004 C 
ATOM      8  C   UNL     1      33.238  22.347  16.349  0.00  0.00    +0.020 C 
ATOM      9  C   UNL     1      34.637  22.035  16.836  0.00  0.00    +0.070 C 
ATOM     10  S   UNL     1      35.365  21.080  15.494  0.00  0.00    -0.160 S 
ATOM     11  C   UNL     1      33.793  20.421  14.872  0.00  0.00    +0.077 C 
ATOM     12  C   UNL     1      31.993  20.114  16.640  0.00  0.00    +0.115 C 
ENDROOT
BRANCH   1  16
ATOM     13  C   UNL     1      29.660  14.822  13.713  0.00  0.00    +0.037 A 
ATOM     14  C   UNL     1      29.142  15.092  14.984  0.00  0.00    +0.014 A 
ATOM     15  C   UNL     1      29.832  15.943  15.851  0.00  0.00    +0.014 A 
ATOM     16  C   UNL     1      30.983  16.607  15.414  0.00  0.00    +0.037 A 
ATOM     17  C   UNL     1      31.555  16.256  14.183  0.00  0.00    +0.014 A 
ATOM     18  C   UNL     1      30.899  15.355  13.339  0.00  0.00    +0.014 A 
BRANCH  13  20
ATOM     19  N   UNL     1      27.889  13.226  13.236  0.00  0.00    -0.325 N 
ATOM     20  C   UNL     1      28.918  13.979  12.742  0.00  0.00    +0.242 C 
ATOM     21  O   UNL     1      29.180  13.999  11.549  0.00  0.00    -0.270 OA
ATOM     22  H   UNL     1      27.313  12.759  12.545  0.00  0.00    +0.145 HD
ATOM     23  H   UNL     1      27.480  13.402  14.142  0.00  0.00    +0.145 HD
ENDBRANCH  13  20
ENDBRANCH   1  16
TORSDOF 2
ENDMDL
MODEL 4
REMARK VINA RESULT:      -6.6      5.539      7.417
REMARK  Name = ZINC000583127796
REMARK  2 active torsions:
REMARK  status: ('A' for Active; 'I' for Inactive)
REMARK    1  A    between atoms: C_2  and  C_4
REMARK    2  A    between atoms: C_7  and  C_8
REMARK                            x       y       z     vdW  Elec       q    Type
REMARK                         _______ _______ _______ _____ _____    ______ ____
ROOT
ATOM      1  C   UNL     1      33.247  22.090  12.905  0.00  0.00    +0.247 C 
ATOM      2  O   UNL     1      33.933  21.133  12.553  0.00  0.00    -0.270 OA
ATOM      3  N   UNL     1      33.272  23.327  12.240  0.00  0.00    -0.297 N 
ATOM      4  C   UNL     1      32.487  24.516  12.582  0.00  0.00    +0.108 C 
ATOM      5  C   UNL     1      31.678  25.034  11.406  0.00  0.00    +0.020 C 
ATOM      6  C   UNL     1      32.540  25.205  10.169  0.00  0.00    +0.011 C 
ATOM      7  C   UNL     1      33.347  23.931   9.815  0.00  0.00    -0.004 C 
ATOM      8  C   UNL     1      34.266  24.295   8.629  0.00  0.00    +0.020 C 
ATOM      9  C   UNL     1      34.631  23.043   7.860  0.00  0.00    +0.070 C 
ATOM     10  S   UNL     1      33.102  22.095   7.815  0.00  0.00    -0.160 S 
ATOM     11  C   UNL     1      32.416  22.790   9.344  0.00  0.00    +0.077 C 
ATOM     12  C   UNL     1      34.149  23.485  11.069  0.00  0.00    +0.115 C 
ENDROOT
BRANCH   1  16
ATOM     13  C   UNL     1      30.319  21.772  16.008  0.00  0.00    +0.037 A 
ATOM     14  C   UNL     1      31.647  22.049  16.349  0.00  0.00    +0.014 A 
ATOM     15  C   UNL     1      32.636  22.042  15.361  0.00  0.00    +0.014 A 
ATOM     16  C   UNL     1      32.285  21.861  14.019  0.00  0.00    +0.037 A 
ATOM     17  C   UNL     1      30.975  21.481  13.695  0.00  0.00    +0.014 A 
ATOM     18  C   UNL     1      29.996  21.425  14.691  0.00  0.00    +0.014 A 
BRANCH  13  20
ATOM     19  N   UNL     1      28.433  22.948  16.994  0.00  0.00    -0.325 N 
ATOM     20  C   UNL     1      29.234  21.841  17.020  0.00  0.00    +0.242 C 
ATOM     21  O   UNL     1      29.035  20.926  17.805  0.00  0.00    -0.270 OA
ATOM     22  H   UNL     1      27.622  22.920  17.602  0.00  0.00    +0.145 HD
ATOM     23  H   UNL     1      28.397  23.568  16.197  0.00  0.00    +0.145 HD
ENDBRANCH  13  20
ENDBRANCH   1  16
TORSDOF 2
ENDMDL
MODEL 5
REMARK VINA RESULT:      -6.5      3.564      6.365
REMARK  Name = ZINC000583127796
REMARK  2 active torsions:
REMARK  status: ('A' for Active; 'I' for Inactive)
REMARK    1  A    between atoms: C_2  and  C_4
REMARK    2  A    between atoms: C_7  and  C_8
REMARK                            x       y       z     vdW  Elec       q    Type
REMARK                         _______ _______ _______ _____ _____    ______ ____
ROOT
ATOM      1  C   UNL     1      31.829  20.174  15.812  0.00  0.00    +0.247 C 
ATOM      2  O   UNL     1      32.865  20.678  16.240  0.00  0.00    -0.270 OA
ATOM      3  N   UNL     1      31.818  18.992  15.054  0.00  0.00    -0.297 N 
ATOM      4  C   UNL     1      30.636  18.317  14.510  0.00  0.00    +0.108 C 
ATOM      5  C   UNL     1      30.556  16.861  14.932  0.00  0.00    +0.020 C 
ATOM      6  C   UNL     1      31.858  16.129  14.660  0.00  0.00    +0.011 C 
ATOM      7  C   UNL     1      33.091  16.850  15.259  0.00  0.00    -0.004 C 
ATOM      8  C   UNL     1      34.339  16.070  14.793  0.00  0.00    +0.020 C 
ATOM      9  C   UNL     1      35.484  16.312  15.753  0.00  0.00    +0.070 C 
ATOM     10  S   UNL     1      34.709  16.277  17.377  0.00  0.00    -0.160 S 
ATOM     11  C   UNL     1      33.071  16.808  16.804  0.00  0.00    +0.077 C 
ATOM     12  C   UNL     1      33.096  18.323  14.764  0.00  0.00    +0.115 C 
ENDROOT
BRANCH   1  16
ATOM     13  C   UNL     1      28.346  22.183  17.272  0.00  0.00    +0.037 A 
ATOM     14  C   UNL     1      28.484  20.808  17.493  0.00  0.00    +0.014 A 
ATOM     15  C   UNL     1      29.556  20.116  16.924  0.00  0.00    +0.014 A 
ATOM     16  C   UNL     1      30.546  20.811  16.222  0.00  0.00    +0.037 A 
ATOM     17  C   UNL     1      30.351  22.165  15.915  0.00  0.00    +0.014 A 
ATOM     18  C   UNL     1      29.246  22.847  16.430  0.00  0.00    +0.014 A 
BRANCH  13  20
ATOM     19  N   UNL     1      27.543  23.536  19.126  0.00  0.00    -0.325 N 
ATOM     20  C   UNL     1      27.259  22.962  17.919  0.00  0.00    +0.242 C 
ATOM     21  O   UNL     1      26.179  23.125  17.372  0.00  0.00    -0.270 OA
ATOM     22  H   UNL     1      26.839  24.167  19.491  0.00  0.00    +0.145 HD
ATOM     23  H   UNL     1      28.490  23.652  19.458  0.00  0.00    +0.145 HD
ENDBRANCH  13  20
ENDBRANCH   1  16
TORSDOF 2
ENDMDL
MODEL 6
REMARK VINA RESULT:      -6.4      1.941      2.437
REMARK  Name = ZINC000583127796
REMARK  2 active torsions:
REMARK  status: ('A' for Active; 'I' for Inactive)
REMARK    1  A    between atoms: C_2  and  C_4
REMARK    2  A    between atoms: C_7  and  C_8
REMARK                            x       y       z     vdW  Elec       q    Type
REMARK                         _______ _______ _______ _____ _____    ______ ____
ROOT
ATOM      1  C   UNL     1      32.245  16.031  16.361  0.00  0.00    +0.247 C 
ATOM      2  O   UNL     1      33.094  15.173  16.597  0.00  0.00    -0.270 OA
ATOM      3  N   UNL     1      32.376  17.364  16.783  0.00  0.00    -0.297 N 
ATOM      4  C   UNL     1      31.423  18.451  16.543  0.00  0.00    +0.108 C 
ATOM      5  C   UNL     1      32.071  19.651  15.876  0.00  0.00    +0.020 C 
ATOM      6  C   UNL     1      33.324  20.088  16.611  0.00  0.00    +0.011 C 
ATOM      7  C   UNL     1      34.325  18.928  16.838  0.00  0.00    -0.004 C 
ATOM      8  C   UNL     1      35.475  19.488  17.703  0.00  0.00    +0.020 C 
ATOM      9  C   UNL     1      36.726  18.662  17.491  0.00  0.00    +0.070 C 
ATOM     10  S   UNL     1      36.741  18.336  15.721  0.00  0.00    -0.160 S 
ATOM     11  C   UNL     1      34.942  18.449  15.504  0.00  0.00    +0.077 C 
ATOM     12  C   UNL     1      33.580  17.756  17.534  0.00  0.00    +0.115 C 
ENDROOT
BRANCH   1  16
ATOM     13  C   UNL     1      29.000  14.513  14.023  0.00  0.00    +0.037 A 
ATOM     14  C   UNL     1      30.191  14.874  13.384  0.00  0.00    +0.014 A 
ATOM     15  C   UNL     1      31.217  15.479  14.115  0.00  0.00    +0.014 A 
ATOM     16  C   UNL     1      31.098  15.629  15.500  0.00  0.00    +0.037 A 
ATOM     17  C   UNL     1      29.868  15.363  16.118  0.00  0.00    +0.014 A 
ATOM     18  C   UNL     1      28.816  14.817  15.377  0.00  0.00    +0.014 A 
BRANCH  13  20
ATOM     19  N   UNL     1      28.301  12.922  12.322  0.00  0.00    -0.325 N 
ATOM     20  C   UNL     1      27.918  13.805  13.292  0.00  0.00    +0.242 C 
ATOM     21  O   UNL     1      26.742  13.965  13.582  0.00  0.00    -0.270 OA
ATOM     22  H   UNL     1      27.562  12.355  11.925  0.00  0.00    +0.145 HD
ATOM     23  H   UNL     1      29.245  12.568  12.259  0.00  0.00    +0.145 HD
ENDBRANCH  13  20
ENDBRANCH   1  16
TORSDOF 2
ENDMDL
MODEL 7
REMARK VINA RESULT:      -6.4      5.893      8.443
REMARK  Name = ZINC000583127796
REMARK  2 active torsions:
REMARK  status: ('A' for Active; 'I' for Inactive)
REMARK    1  A    between atoms: C_2  and  C_4
REMARK    2  A    between atoms: C_7  and  C_8
REMARK                            x       y       z     vdW  Elec       q    Type
REMARK                         _______ _______ _______ _____ _____    ______ ____
ROOT
ATOM      1  C   UNL     1      27.910  21.908  17.876  0.00  0.00    +0.247 C 
ATOM      2  O   UNL     1      27.514  20.841  17.410  0.00  0.00    -0.270 OA
ATOM      3  N   UNL     1      29.269  22.262  17.913  0.00  0.00    -0.297 N 
ATOM      4  C   UNL     1      29.830  23.509  18.440  0.00  0.00    +0.108 C 
ATOM      5  C   UNL     1      30.705  24.223  17.425  0.00  0.00    +0.020 C 
ATOM      6  C   UNL     1      31.741  23.290  16.827  0.00  0.00    +0.011 C 
ATOM      7  C   UNL     1      31.125  21.987  16.260  0.00  0.00    -0.004 C 
ATOM      8  C   UNL     1      32.299  21.090  15.813  0.00  0.00    +0.020 C 
ATOM      9  C   UNL     1      31.825  20.114  14.757  0.00  0.00    +0.070 C 
ATOM     10  S   UNL     1      30.731  21.092  13.715  0.00  0.00    -0.160 S 
ATOM     11  C   UNL     1      30.259  22.272  15.011  0.00  0.00    +0.077 C 
ATOM     12  C   UNL     1      30.262  21.321  17.368  0.00  0.00    +0.115 C 
ENDROOT
BRANCH   1  16
ATOM     13  C   UNL     1      25.080  24.960  18.863  0.00  0.00    +0.037 A 
ATOM     14  C   UNL     1      26.102  24.658  19.770  0.00  0.00    +0.014 A 
ATOM     15  C   UNL     1      26.963  23.587  19.516  0.00  0.00    +0.014 A 
ATOM     16  C   UNL     1      26.872  22.884  18.311  0.00  0.00    +0.037 A 
ATOM     17  C   UNL     1      25.786  23.121  17.456  0.00  0.00    +0.014 A 
ATOM     18  C   UNL     1      24.885  24.150  17.739  0.00  0.00    +0.014 A 
BRANCH  13  20
ATOM     19  N   UNL     1      23.298  26.413  18.073  0.00  0.00    -0.325 N 
ATOM     20  C   UNL     1      24.192  26.134  19.067  0.00  0.00    +0.242 C 
ATOM     21  O   UNL     1      24.224  26.786  20.100  0.00  0.00    -0.270 OA
ATOM     22  H   UNL     1      22.616  27.133  18.282  0.00  0.00    +0.145 HD
ATOM     23  H   UNL     1      23.061  25.741  17.356  0.00  0.00    +0.145 HD
ENDBRANCH  13  20
ENDBRANCH   1  16
TORSDOF 2
ENDMDL
MODEL 8
REMARK VINA RESULT:      -6.3      3.425      6.672
REMARK  Name = ZINC000583127796
REMARK  2 active torsions:
REMARK  status: ('A' for Active; 'I' for Inactive)
REMARK    1  A    between atoms: C_2  and  C_4
REMARK    2  A    between atoms: C_7  and  C_8
REMARK                            x       y       z     vdW  Elec       q    Type
REMARK                         _______ _______ _______ _____ _____    ______ ____
ROOT
ATOM      1  C   UNL     1      30.779  17.138  15.234  0.00  0.00    +0.247 C 
ATOM      2  O   UNL     1      29.795  16.526  14.820  0.00  0.00    -0.270 OA
ATOM      3  N   UNL     1      32.045  16.543  15.356  0.00  0.00    -0.297 N 
ATOM      4  C   UNL     1      33.270  17.192  15.831  0.00  0.00    +0.108 C 
ATOM      5  C   UNL     1      34.414  17.064  14.840  0.00  0.00    +0.020 C 
ATOM      6  C   UNL     1      34.614  15.624  14.403  0.00  0.00    +0.011 C 
ATOM      7  C   UNL     1      33.311  14.963  13.889  0.00  0.00    -0.004 C 
ATOM      8  C   UNL     1      33.638  13.480  13.610  0.00  0.00    +0.020 C 
ATOM      9  C   UNL     1      32.662  12.922  12.596  0.00  0.00    +0.070 C 
ATOM     10  S   UNL     1      32.470  14.249  11.396  0.00  0.00    -0.160 S 
ATOM     11  C   UNL     1      32.851  15.593  12.554  0.00  0.00    +0.077 C 
ATOM     12  C   UNL     1      32.207  15.132  14.969  0.00  0.00    +0.115 C 
ENDROOT
BRANCH   1  16
ATOM     13  C   UNL     1      29.900  21.252  16.008  0.00  0.00    +0.037 A 
ATOM     14  C   UNL     1      30.387  20.883  14.750  0.00  0.00    +0.014 A 
ATOM     15  C   UNL     1      30.788  19.565  14.517  0.00  0.00    +0.014 A 
ATOM     16  C   UNL     1      30.607  18.592  15.505  0.00  0.00    +0.037 A 
ATOM     17  C   UNL     1      30.219  18.983  16.794  0.00  0.00    +0.014 A 
ATOM     18  C   UNL     1      29.877  20.315  17.048  0.00  0.00    +0.014 A 
BRANCH  13  20
ATOM     19  N   UNL     1      30.181  23.661  15.836  0.00  0.00    -0.325 N 
ATOM     20  C   UNL     1      29.400  22.626  16.268  0.00  0.00    +0.242 C 
ATOM     21  O   UNL     1      28.316  22.821  16.796  0.00  0.00    -0.270 OA
ATOM     22  H   UNL     1      29.768  24.584  15.904  0.00  0.00    +0.145 HD
ATOM     23  H   UNL     1      30.924  23.531  15.163  0.00  0.00    +0.145 HD
ENDBRANCH  13  20
ENDBRANCH   1  16
TORSDOF 2
ENDMDL
MODEL 9
REMARK VINA RESULT:      -6.3      7.138      9.338
REMARK  Name = ZINC000583127796
REMARK  2 active torsions:
REMARK  status: ('A' for Active; 'I' for Inactive)
REMARK    1  A    between atoms: C_2  and  C_4
REMARK    2  A    between atoms: C_7  and  C_8
REMARK                            x       y       z     vdW  Elec       q    Type
REMARK                         _______ _______ _______ _____ _____    ______ ____
ROOT
ATOM      1  C   UNL     1      26.473  24.074  19.268  0.00  0.00    +0.247 C 
ATOM      2  O   UNL     1      26.865  24.583  20.317  0.00  0.00    -0.270 OA
ATOM      3  N   UNL     1      25.216  24.358  18.711  0.00  0.00    -0.297 N 
ATOM      4  C   UNL     1      24.669  23.807  17.468  0.00  0.00    +0.108 C 
ATOM      5  C   UNL     1      24.228  24.890  16.500  0.00  0.00    +0.020 C 
ATOM      6  C   UNL     1      23.318  25.902  17.173  0.00  0.00    +0.011 C 
ATOM      7  C   UNL     1      23.922  26.485  18.474  0.00  0.00    -0.004 C 
ATOM      8  C   UNL     1      22.841  27.386  19.109  0.00  0.00    +0.020 C 
ATOM      9  C   UNL     1      23.494  28.416  20.005  0.00  0.00    +0.070 C 
ATOM     10  S   UNL     1      24.955  28.932  19.089  0.00  0.00    -0.160 S 
ATOM     11  C   UNL     1      25.149  27.376  18.174  0.00  0.00    +0.077 C 
ATOM     12  C   UNL     1      24.330  25.308  19.404  0.00  0.00    +0.115 C 
ENDROOT
BRANCH   1  16
ATOM     13  C   UNL     1      29.219  21.339  17.456  0.00  0.00    +0.037 A 
ATOM     14  C   UNL     1      29.700  22.544  17.979  0.00  0.00    +0.014 A 
ATOM     15  C   UNL     1      28.804  23.498  18.469  0.00  0.00    +0.014 A 
ATOM     16  C   UNL     1      27.438  23.209  18.533  0.00  0.00    +0.037 A 
ATOM     17  C   UNL     1      26.949  22.049  17.916  0.00  0.00    +0.014 A 
ATOM     18  C   UNL     1      27.839  21.121  17.367  0.00  0.00    +0.014 A 
BRANCH  13  20
ATOM     19  N   UNL     1      29.670  18.994  16.999  0.00  0.00    -0.325 N 
ATOM     20  C   UNL     1      30.146  20.275  16.993  0.00  0.00    +0.242 C 
ATOM     21  O   UNL     1      31.263  20.541  16.576  0.00  0.00    -0.270 OA
ATOM     22  H   UNL     1      30.265  18.301  16.561  0.00  0.00    +0.145 HD
ATOM     23  H   UNL     1      28.684  18.786  17.066  0.00  0.00    +0.145 HD
ENDBRANCH  13  20
ENDBRANCH   1  16
TORSDOF 2
ENDMDL
