MODEL 1
REMARK VINA RESULT:      -6.6      0.000      0.000
REMARK  Name = ZINC000826139982
REMARK  4 active torsions:
REMARK  status: ('A' for Active; 'I' for Inactive)
REMARK    1  A    between atoms: C_2  and  C_4
REMARK    2  A    between atoms: C_8  and  C_10
REMARK    3  A    between atoms: C_14  and  S_15
REMARK    4  A    between atoms: S_15  and  C_16
REMARK                            x       y       z     vdW  Elec       q    Type
REMARK                         _______ _______ _______ _____ _____    ______ ____
ROOT
ATOM      1  C   UNL     1      30.288  22.704  19.231  0.00  0.00    +0.093 C 
ATOM      2  C   UNL     1      28.793  22.866  19.527  0.00  0.00    +0.033 C 
ATOM      3  C   UNL     1      28.117  21.678  18.856  0.00  0.00    +0.109 C 
ATOM      4  N   UNL     1      29.001  21.338  17.760  0.00  0.00    -0.297 N 
ATOM      5  C   UNL     1      28.533  20.694  16.622  0.00  0.00    +0.247 C 
ATOM      6  O   UNL     1      27.335  20.460  16.463  0.00  0.00    -0.270 OA
ATOM      7  C   UNL     1      30.371  21.649  18.135  0.00  0.00    +0.120 C 
ENDROOT
BRANCH   5   8
ATOM      8  C   UNL     1      29.466  20.324  15.508  0.00  0.00    +0.038 A 
ATOM      9  C   UNL     1      29.658  21.112  14.369  0.00  0.00    +0.013 A 
ATOM     10  C   UNL     1      30.443  20.661  13.308  0.00  0.00    +0.002 A 
ATOM     11  C   UNL     1      31.133  19.460  13.418  0.00  0.00    +0.015 A 
ATOM     12  C   UNL     1      31.069  18.720  14.602  0.00  0.00    +0.017 A 
ATOM     13  C   UNL     1      30.208  19.136  15.628  0.00  0.00    +0.028 A 
BRANCH  12  14
ATOM     14  S   UNL     1      32.036  17.238  14.803  0.00  0.00    -0.016 S 
BRANCH  14  15
ATOM     15  C   UNL     1      31.412  16.226  13.445  0.00  0.00    +0.448 C 
ATOM     16  F   UNL     1      31.827  16.628  12.221  0.00  0.00    -0.160 F 
ATOM     17  F   UNL     1      31.796  14.935  13.589  0.00  0.00    -0.160 F 
ATOM     18  F   UNL     1      30.056  16.238  13.425  0.00  0.00    -0.160 F 
ENDBRANCH  14  15
ENDBRANCH  12  14
ENDBRANCH   5   8
BRANCH   1  20
ATOM     19  N   UNL     1      30.711  22.887  21.617  0.00  0.00    -0.329 N 
ATOM     20  C   UNL     1      31.129  22.339  20.440  0.00  0.00    +0.215 C 
ATOM     21  O   UNL     1      32.147  21.664  20.404  0.00  0.00    -0.276 OA
ATOM     22  H   UNL     1      31.284  22.726  22.436  0.00  0.00    +0.145 HD
ATOM     23  H   UNL     1      29.920  23.510  21.692  0.00  0.00    +0.145 HD
ENDBRANCH   1  20
TORSDOF 4
ENDMDL
MODEL 2
REMARK VINA RESULT:      -6.3      4.717      6.687
REMARK  Name = ZINC000826139982
REMARK  4 active torsions:
REMARK  status: ('A' for Active; 'I' for Inactive)
REMARK    1  A    between atoms: C_2  and  C_4
REMARK    2  A    between atoms: C_8  and  C_10
REMARK    3  A    between atoms: C_14  and  S_15
REMARK    4  A    between atoms: S_15  and  C_16
REMARK                            x       y       z     vdW  Elec       q    Type
REMARK                         _______ _______ _______ _____ _____    ______ ____
ROOT
ATOM      1  C   UNL     1      31.322  17.386  15.527  0.00  0.00    +0.093 C 
ATOM      2  C   UNL     1      30.753  17.578  14.117  0.00  0.00    +0.033 C 
ATOM      3  C   UNL     1      30.597  19.083  13.946  0.00  0.00    +0.109 C 
ATOM      4  N   UNL     1      30.410  19.577  15.295  0.00  0.00    -0.297 N 
ATOM      5  C   UNL     1      29.729  20.761  15.548  0.00  0.00    +0.247 C 
ATOM      6  O   UNL     1      29.185  21.395  14.643  0.00  0.00    -0.270 OA
ATOM      7  C   UNL     1      31.145  18.730  16.221  0.00  0.00    +0.120 C 
ENDROOT
BRANCH   5   8
ATOM      8  C   UNL     1      29.568  21.272  16.949  0.00  0.00    +0.038 A 
ATOM      9  C   UNL     1      28.390  21.134  17.690  0.00  0.00    +0.013 A 
ATOM     10  C   UNL     1      28.253  21.736  18.940  0.00  0.00    +0.002 A 
ATOM     11  C   UNL     1      29.334  22.398  19.513  0.00  0.00    +0.015 A 
ATOM     12  C   UNL     1      30.566  22.431  18.852  0.00  0.00    +0.017 A 
ATOM     13  C   UNL     1      30.668  21.900  17.558  0.00  0.00    +0.028 A 
BRANCH  12  14
ATOM     14  S   UNL     1      31.990  23.174  19.621  0.00  0.00    -0.016 S 
BRANCH  14  15
ATOM     15  C   UNL     1      32.646  21.781  20.564  0.00  0.00    +0.448 C 
ATOM     16  F   UNL     1      31.867  21.406  21.606  0.00  0.00    -0.160 F 
ATOM     17  F   UNL     1      32.802  20.693  19.773  0.00  0.00    -0.160 F 
ATOM     18  F   UNL     1      33.866  22.082  21.073  0.00  0.00    -0.160 F 
ENDBRANCH  14  15
ENDBRANCH  12  14
ENDBRANCH   5   8
BRANCH   1  20
ATOM     19  N   UNL     1      33.089  16.145  16.641  0.00  0.00    -0.329 N 
ATOM     20  C   UNL     1      32.763  16.912  15.561  0.00  0.00    +0.215 C 
ATOM     21  O   UNL     1      33.619  17.218  14.744  0.00  0.00    -0.276 OA
ATOM     22  H   UNL     1      34.057  15.865  16.739  0.00  0.00    +0.145 HD
ATOM     23  H   UNL     1      32.440  15.921  17.382  0.00  0.00    +0.145 HD
ENDBRANCH   1  20
TORSDOF 4
ENDMDL
MODEL 3
REMARK VINA RESULT:      -6.2      3.213      3.904
REMARK  Name = ZINC000826139982
REMARK  4 active torsions:
REMARK  status: ('A' for Active; 'I' for Inactive)
REMARK    1  A    between atoms: C_2  and  C_4
REMARK    2  A    between atoms: C_8  and  C_10
REMARK    3  A    between atoms: C_14  and  S_15
REMARK    4  A    between atoms: S_15  and  C_16
REMARK                            x       y       z     vdW  Elec       q    Type
REMARK                         _______ _______ _______ _____ _____    ______ ____
ROOT
ATOM      1  C   UNL     1      30.429  22.704  19.320  0.00  0.00    +0.093 C 
ATOM      2  C   UNL     1      28.917  22.812  19.547  0.00  0.00    +0.033 C 
ATOM      3  C   UNL     1      28.303  21.690  18.720  0.00  0.00    +0.109 C 
ATOM      4  N   UNL     1      29.251  21.480  17.646  0.00  0.00    -0.297 N 
ATOM      5  C   UNL     1      28.858  20.952  16.422  0.00  0.00    +0.247 C 
ATOM      6  O   UNL     1      27.676  20.718  16.174  0.00  0.00    -0.270 OA
ATOM      7  C   UNL     1      30.592  21.771  18.126  0.00  0.00    +0.120 C 
ENDROOT
BRANCH   5   8
ATOM      8  C   UNL     1      29.858  20.715  15.329  0.00  0.00    +0.038 A 
ATOM      9  C   UNL     1      30.028  19.481  14.694  0.00  0.00    +0.013 A 
ATOM     10  C   UNL     1      31.055  19.284  13.772  0.00  0.00    +0.002 A 
ATOM     11  C   UNL     1      31.861  20.351  13.393  0.00  0.00    +0.015 A 
ATOM     12  C   UNL     1      31.623  21.628  13.911  0.00  0.00    +0.017 A 
ATOM     13  C   UNL     1      30.646  21.797  14.903  0.00  0.00    +0.028 A 
BRANCH  12  14
ATOM     14  S   UNL     1      32.571  23.028  13.352  0.00  0.00    -0.016 S 
BRANCH  14  15
ATOM     15  C   UNL     1      31.643  23.516  11.883  0.00  0.00    +0.448 C 
ATOM     16  F   UNL     1      30.334  23.173  11.917  0.00  0.00    -0.160 F 
ATOM     17  F   UNL     1      31.697  24.858  11.702  0.00  0.00    -0.160 F 
ATOM     18  F   UNL     1      32.172  22.943  10.773  0.00  0.00    -0.160 F 
ENDBRANCH  14  15
ENDBRANCH  12  14
ENDBRANCH   5   8
BRANCH   1  20
ATOM     19  N   UNL     1      30.813  22.762  21.718  0.00  0.00    -0.329 N 
ATOM     20  C   UNL     1      31.212  22.227  20.529  0.00  0.00    +0.215 C 
ATOM     21  O   UNL     1      32.172  21.473  20.485  0.00  0.00    -0.276 OA
ATOM     22  H   UNL     1      31.353  22.524  22.541  0.00  0.00    +0.145 HD
ATOM     23  H   UNL     1      30.073  23.444  21.802  0.00  0.00    +0.145 HD
ENDBRANCH   1  20
TORSDOF 4
ENDMDL
MODEL 4
REMARK VINA RESULT:      -6.2      5.103      6.898
REMARK  Name = ZINC000826139982
REMARK  4 active torsions:
REMARK  status: ('A' for Active; 'I' for Inactive)
REMARK    1  A    between atoms: C_2  and  C_4
REMARK    2  A    between atoms: C_8  and  C_10
REMARK    3  A    between atoms: C_14  and  S_15
REMARK    4  A    between atoms: S_15  and  C_16
REMARK                            x       y       z     vdW  Elec       q    Type
REMARK                         _______ _______ _______ _____ _____    ______ ____
ROOT
ATOM      1  C   UNL     1      31.598  17.539  16.067  0.00  0.00    +0.093 C 
ATOM      2  C   UNL     1      30.318  17.379  15.239  0.00  0.00    +0.033 C 
ATOM      3  C   UNL     1      30.033  18.761  14.665  0.00  0.00    +0.109 C 
ATOM      4  N   UNL     1      30.631  19.672  15.618  0.00  0.00    -0.297 N 
ATOM      5  C   UNL     1      30.170  20.975  15.766  0.00  0.00    +0.247 C 
ATOM      6  O   UNL     1      29.183  21.380  15.153  0.00  0.00    -0.270 OA
ATOM      7  C   UNL     1      31.796  19.043  16.218  0.00  0.00    +0.120 C 
ENDROOT
BRANCH   5   8
ATOM      8  C   UNL     1      30.818  21.915  16.738  0.00  0.00    +0.038 A 
ATOM      9  C   UNL     1      31.819  22.824  16.382  0.00  0.00    +0.013 A 
ATOM     10  C   UNL     1      32.474  23.587  17.348  0.00  0.00    +0.002 A 
ATOM     11  C   UNL     1      32.062  23.528  18.674  0.00  0.00    +0.015 A 
ATOM     12  C   UNL     1      30.971  22.731  19.034  0.00  0.00    +0.017 A 
ATOM     13  C   UNL     1      30.378  21.901  18.072  0.00  0.00    +0.028 A 
BRANCH  12  14
ATOM     14  S   UNL     1      30.357  22.731  20.706  0.00  0.00    -0.016 S 
BRANCH  14  15
ATOM     15  C   UNL     1      31.704  21.897  21.573  0.00  0.00    +0.448 C 
ATOM     16  F   UNL     1      32.379  21.003  20.814  0.00  0.00    -0.160 F 
ATOM     17  F   UNL     1      32.611  22.793  22.031  0.00  0.00    -0.160 F 
ATOM     18  F   UNL     1      31.231  21.223  22.651  0.00  0.00    -0.160 F 
ENDBRANCH  14  15
ENDBRANCH  12  14
ENDBRANCH   5   8
BRANCH   1  20
ATOM     19  N   UNL     1      32.837  15.503  15.599  0.00  0.00    -0.329 N 
ATOM     20  C   UNL     1      32.818  16.860  15.472  0.00  0.00    +0.215 C 
ATOM     21  O   UNL     1      33.764  17.444  14.966  0.00  0.00    -0.276 OA
ATOM     22  H   UNL     1      33.665  15.016  15.278  0.00  0.00    +0.145 HD
ATOM     23  H   UNL     1      32.116  14.977  16.072  0.00  0.00    +0.145 HD
ENDBRANCH   1  20
TORSDOF 4
ENDMDL
MODEL 5
REMARK VINA RESULT:      -6.1      4.274      6.623
REMARK  Name = ZINC000826139982
REMARK  4 active torsions:
REMARK  status: ('A' for Active; 'I' for Inactive)
REMARK    1  A    between atoms: C_2  and  C_4
REMARK    2  A    between atoms: C_8  and  C_10
REMARK    3  A    between atoms: C_14  and  S_15
REMARK    4  A    between atoms: S_15  and  C_16
REMARK                            x       y       z     vdW  Elec       q    Type
REMARK                         _______ _______ _______ _____ _____    ______ ____
ROOT
ATOM      1  C   UNL     1      32.248  22.703  13.126  0.00  0.00    +0.093 C 
ATOM      2  C   UNL     1      32.924  21.382  12.742  0.00  0.00    +0.033 C 
ATOM      3  C   UNL     1      32.092  20.294  13.407  0.00  0.00    +0.109 C 
ATOM      4  N   UNL     1      31.509  20.947  14.561  0.00  0.00    -0.297 N 
ATOM      5  C   UNL     1      31.131  20.230  15.689  0.00  0.00    +0.247 C 
ATOM      6  O   UNL     1      31.352  19.023  15.786  0.00  0.00    -0.270 OA
ATOM      7  C   UNL     1      31.288  22.352  14.255  0.00  0.00    +0.120 C 
ENDROOT
BRANCH   5   8
ATOM      8  C   UNL     1      30.503  20.918  16.864  0.00  0.00    +0.038 A 
ATOM      9  C   UNL     1      31.231  21.637  17.817  0.00  0.00    +0.013 A 
ATOM     10  C   UNL     1      30.613  22.151  18.956  0.00  0.00    +0.002 A 
ATOM     11  C   UNL     1      29.235  22.044  19.105  0.00  0.00    +0.015 A 
ATOM     12  C   UNL     1      28.465  21.452  18.099  0.00  0.00    +0.017 A 
ATOM     13  C   UNL     1      29.105  20.859  17.001  0.00  0.00    +0.028 A 
BRANCH  12  14
ATOM     14  S   UNL     1      26.689  21.408  18.220  0.00  0.00    -0.016 S 
BRANCH  14  15
ATOM     15  C   UNL     1      26.223  21.253  16.483  0.00  0.00    +0.448 C 
ATOM     16  F   UNL     1      25.705  20.045  16.156  0.00  0.00    -0.160 F 
ATOM     17  F   UNL     1      25.301  22.185  16.145  0.00  0.00    -0.160 F 
ATOM     18  F   UNL     1      27.299  21.449  15.681  0.00  0.00    -0.160 F 
ENDBRANCH  14  15
ENDBRANCH  12  14
ENDBRANCH   5   8
BRANCH   1  20
ATOM     19  N   UNL     1      30.413  24.078  12.325  0.00  0.00    -0.329 N 
ATOM     20  C   UNL     1      31.548  23.406  11.979  0.00  0.00    +0.215 C 
ATOM     21  O   UNL     1      31.898  23.352  10.809  0.00  0.00    -0.276 OA
ATOM     22  H   UNL     1      29.876  24.503  11.579  0.00  0.00    +0.145 HD
ATOM     23  H   UNL     1      30.039  24.095  13.263  0.00  0.00    +0.145 HD
ENDBRANCH   1  20
TORSDOF 4
ENDMDL
MODEL 6
REMARK VINA RESULT:      -6.1      2.036      3.514
REMARK  Name = ZINC000826139982
REMARK  4 active torsions:
REMARK  status: ('A' for Active; 'I' for Inactive)
REMARK    1  A    between atoms: C_2  and  C_4
REMARK    2  A    between atoms: C_8  and  C_10
REMARK    3  A    between atoms: C_14  and  S_15
REMARK    4  A    between atoms: S_15  and  C_16
REMARK                            x       y       z     vdW  Elec       q    Type
REMARK                         _______ _______ _______ _____ _____    ______ ____
ROOT
ATOM      1  C   UNL     1      27.584  21.275  18.426  0.00  0.00    +0.093 C 
ATOM      2  C   UNL     1      27.964  21.981  19.733  0.00  0.00    +0.033 C 
ATOM      3  C   UNL     1      29.181  22.831  19.393  0.00  0.00    +0.109 C 
ATOM      4  N   UNL     1      29.803  22.135  18.287  0.00  0.00    -0.297 N 
ATOM      5  C   UNL     1      31.162  22.256  18.024  0.00  0.00    +0.247 C 
ATOM      6  O   UNL     1      31.906  22.893  18.770  0.00  0.00    -0.270 OA
ATOM      7  C   UNL     1      28.777  21.470  17.500  0.00  0.00    +0.120 C 
ENDROOT
BRANCH   5   8
ATOM      8  C   UNL     1      31.787  21.550  16.857  0.00  0.00    +0.038 A 
ATOM      9  C   UNL     1      32.521  22.203  15.863  0.00  0.00    +0.013 A 
ATOM     10  C   UNL     1      32.974  21.518  14.737  0.00  0.00    +0.002 A 
ATOM     11  C   UNL     1      32.789  20.143  14.641  0.00  0.00    +0.015 A 
ATOM     12  C   UNL     1      32.181  19.443  15.688  0.00  0.00    +0.017 A 
ATOM     13  C   UNL     1      31.650  20.153  16.774  0.00  0.00    +0.028 A 
BRANCH  12  14
ATOM     14  S   UNL     1      32.039  17.669  15.634  0.00  0.00    -0.016 S 
BRANCH  14  15
ATOM     15  C   UNL     1      30.459  17.470  14.783  0.00  0.00    +0.448 C 
ATOM     16  F   UNL     1      30.013  18.595  14.176  0.00  0.00    -0.160 F 
ATOM     17  F   UNL     1      30.542  16.511  13.829  0.00  0.00    -0.160 F 
ATOM     18  F   UNL     1      29.494  17.083  15.653  0.00  0.00    -0.160 F 
ENDBRANCH  14  15
ENDBRANCH  12  14
ENDBRANCH   5   8
BRANCH   1  20
ATOM     19  N   UNL     1      26.248  21.696  16.441  0.00  0.00    -0.329 N 
ATOM     20  C   UNL     1      26.290  21.765  17.802  0.00  0.00    +0.215 C 
ATOM     21  O   UNL     1      25.357  22.251  18.423  0.00  0.00    -0.276 OA
ATOM     22  H   UNL     1      25.431  22.077  15.980  0.00  0.00    +0.145 HD
ATOM     23  H   UNL     1      27.019  21.371  15.875  0.00  0.00    +0.145 HD
ENDBRANCH   1  20
TORSDOF 4
ENDMDL
MODEL 7
REMARK VINA RESULT:      -6.1      9.167     11.579
REMARK  Name = ZINC000826139982
REMARK  4 active torsions:
REMARK  status: ('A' for Active; 'I' for Inactive)
REMARK    1  A    between atoms: C_2  and  C_4
REMARK    2  A    between atoms: C_8  and  C_10
REMARK    3  A    between atoms: C_14  and  S_15
REMARK    4  A    between atoms: S_15  and  C_16
REMARK                            x       y       z     vdW  Elec       q    Type
REMARK                         _______ _______ _______ _____ _____    ______ ____
ROOT
ATOM      1  C   UNL     1      21.036  25.483  15.712  0.00  0.00    +0.093 C 
ATOM      2  C   UNL     1      20.646  26.833  15.101  0.00  0.00    +0.033 C 
ATOM      3  C   UNL     1      21.388  27.878  15.922  0.00  0.00    +0.109 C 
ATOM      4  N   UNL     1      21.560  27.256  17.218  0.00  0.00    -0.297 N 
ATOM      5  C   UNL     1      21.701  28.012  18.375  0.00  0.00    +0.247 C 
ATOM      6  O   UNL     1      21.603  29.239  18.357  0.00  0.00    -0.270 OA
ATOM      7  C   UNL     1      21.692  25.818  17.046  0.00  0.00    +0.120 C 
ENDROOT
BRANCH   5   8
ATOM      8  C   UNL     1      21.906  27.352  19.707  0.00  0.00    +0.038 A 
ATOM      9  C   UNL     1      20.885  27.170  20.643  0.00  0.00    +0.013 A 
ATOM     10  C   UNL     1      21.156  26.663  21.914  0.00  0.00    +0.002 A 
ATOM     11  C   UNL     1      22.439  26.231  22.227  0.00  0.00    +0.015 A 
ATOM     12  C   UNL     1      23.449  26.272  21.261  0.00  0.00    +0.017 A 
ATOM     13  C   UNL     1      23.188  26.866  20.018  0.00  0.00    +0.028 A 
BRANCH  12  14
ATOM     14  S   UNL     1      25.068  25.617  21.609  0.00  0.00    -0.016 S 
BRANCH  14  15
ATOM     15  C   UNL     1      25.272  24.447  20.250  0.00  0.00    +0.448 C 
ATOM     16  F   UNL     1      26.127  23.432  20.519  0.00  0.00    -0.160 F 
ATOM     17  F   UNL     1      24.085  23.887  19.913  0.00  0.00    -0.160 F 
ATOM     18  F   UNL     1      25.743  25.076  19.145  0.00  0.00    -0.160 F 
ENDBRANCH  14  15
ENDBRANCH  12  14
ENDBRANCH   5   8
BRANCH   1  20
ATOM     19  N   UNL     1      22.908  23.949  15.498  0.00  0.00    -0.329 N 
ATOM     20  C   UNL     1      21.934  24.633  14.832  0.00  0.00    +0.215 C 
ATOM     21  O   UNL     1      21.870  24.581  13.613  0.00  0.00    -0.276 OA
ATOM     22  H   UNL     1      23.572  23.424  14.942  0.00  0.00    +0.145 HD
ATOM     23  H   UNL     1      23.051  24.012  16.496  0.00  0.00    +0.145 HD
ENDBRANCH   1  20
TORSDOF 4
ENDMDL
MODEL 8
REMARK VINA RESULT:      -6.1      5.115      7.158
REMARK  Name = ZINC000826139982
REMARK  4 active torsions:
REMARK  status: ('A' for Active; 'I' for Inactive)
REMARK    1  A    between atoms: C_2  and  C_4
REMARK    2  A    between atoms: C_8  and  C_10
REMARK    3  A    between atoms: C_14  and  S_15
REMARK    4  A    between atoms: S_15  and  C_16
REMARK                            x       y       z     vdW  Elec       q    Type
REMARK                         _______ _______ _______ _____ _____    ______ ____
ROOT
ATOM      1  C   UNL     1      32.330  23.106  12.670  0.00  0.00    +0.093 C 
ATOM      2  C   UNL     1      33.152  21.902  12.196  0.00  0.00    +0.033 C 
ATOM      3  C   UNL     1      32.461  20.681  12.790  0.00  0.00    +0.109 C 
ATOM      4  N   UNL     1      31.818  21.184  13.986  0.00  0.00    -0.297 N 
ATOM      5  C   UNL     1      31.539  20.354  15.065  0.00  0.00    +0.247 C 
ATOM      6  O   UNL     1      31.902  19.178  15.081  0.00  0.00    -0.270 OA
ATOM      7  C   UNL     1      31.429  22.569  13.776  0.00  0.00    +0.120 C 
ENDROOT
BRANCH   5   8
ATOM      8  C   UNL     1      30.847  20.884  16.286  0.00  0.00    +0.038 A 
ATOM      9  C   UNL     1      29.503  20.637  16.579  0.00  0.00    +0.013 A 
ATOM     10  C   UNL     1      28.878  21.256  17.661  0.00  0.00    +0.002 A 
ATOM     11  C   UNL     1      29.620  22.049  18.529  0.00  0.00    +0.015 A 
ATOM     12  C   UNL     1      30.996  22.200  18.337  0.00  0.00    +0.017 A 
ATOM     13  C   UNL     1      31.597  21.647  17.197  0.00  0.00    +0.028 A 
BRANCH  12  14
ATOM     14  S   UNL     1      31.982  23.119  19.502  0.00  0.00    -0.016 S 
BRANCH  14  15
ATOM     15  C   UNL     1      32.484  21.813  20.643  0.00  0.00    +0.448 C 
ATOM     16  F   UNL     1      31.517  21.439  21.514  0.00  0.00    -0.160 F 
ATOM     17  F   UNL     1      32.860  20.701  19.967  0.00  0.00    -0.160 F 
ATOM     18  F   UNL     1      33.549  22.209  21.382  0.00  0.00    -0.160 F 
ENDBRANCH  14  15
ENDBRANCH  12  14
ENDBRANCH   5   8
BRANCH   1  20
ATOM     19  N   UNL     1      30.396  24.410  11.991  0.00  0.00    -0.329 N 
ATOM     20  C   UNL     1      31.539  23.795  11.573  0.00  0.00    +0.215 C 
ATOM     21  O   UNL     1      31.828  23.774  10.386  0.00  0.00    -0.276 OA
ATOM     22  H   UNL     1      29.803  24.823  11.282  0.00  0.00    +0.145 HD
ATOM     23  H   UNL     1      30.073  24.397  12.948  0.00  0.00    +0.145 HD
ENDBRANCH   1  20
TORSDOF 4
ENDMDL
MODEL 9
REMARK VINA RESULT:      -6.1      2.077      3.011
REMARK  Name = ZINC000826139982
REMARK  4 active torsions:
REMARK  status: ('A' for Active; 'I' for Inactive)
REMARK    1  A    between atoms: C_2  and  C_4
REMARK    2  A    between atoms: C_8  and  C_10
REMARK    3  A    between atoms: C_14  and  S_15
REMARK    4  A    between atoms: S_15  and  C_16
REMARK                            x       y       z     vdW  Elec       q    Type
REMARK                         _______ _______ _______ _____ _____    ______ ____
ROOT
ATOM      1  C   UNL     1      28.270  21.777  19.224  0.00  0.00    +0.093 C 
ATOM      2  C   UNL     1      29.269  22.698  19.935  0.00  0.00    +0.033 C 
ATOM      3  C   UNL     1      30.097  23.329  18.824  0.00  0.00    +0.109 C 
ATOM      4  N   UNL     1      30.054  22.356  17.752  0.00  0.00    -0.297 N 
ATOM      5  C   UNL     1      31.062  22.280  16.799  0.00  0.00    +0.247 C 
ATOM      6  O   UNL     1      32.072  22.979  16.875  0.00  0.00    -0.270 OA
ATOM      7  C   UNL     1      28.783  21.651  17.795  0.00  0.00    +0.120 C 
ENDROOT
BRANCH   5   8
ATOM      8  C   UNL     1      30.988  21.285  15.678  0.00  0.00    +0.038 A 
ATOM      9  C   UNL     1      30.128  21.418  14.584  0.00  0.00    +0.013 A 
ATOM     10  C   UNL     1      30.011  20.403  13.635  0.00  0.00    +0.002 A 
ATOM     11  C   UNL     1      30.834  19.285  13.711  0.00  0.00    +0.015 A 
ATOM     12  C   UNL     1      31.801  19.193  14.717  0.00  0.00    +0.017 A 
ATOM     13  C   UNL     1      31.849  20.175  15.717  0.00  0.00    +0.028 A 
BRANCH  12  14
ATOM     14  S   UNL     1      32.939  17.824  14.762  0.00  0.00    -0.016 S 
BRANCH  14  15
ATOM     15  C   UNL     1      32.054  16.668  15.830  0.00  0.00    +0.448 C 
ATOM     16  F   UNL     1      30.726  16.912  15.927  0.00  0.00    -0.160 F 
ATOM     17  F   UNL     1      32.192  15.396  15.384  0.00  0.00    -0.160 F 
ATOM     18  F   UNL     1      32.554  16.705  17.090  0.00  0.00    -0.160 F 
ENDBRANCH  14  15
ENDBRANCH  12  14
ENDBRANCH   5   8
BRANCH   1  20
ATOM     19  N   UNL     1      26.564  23.169  20.251  0.00  0.00    -0.329 N 
ATOM     20  C   UNL     1      26.831  22.256  19.274  0.00  0.00    +0.215 C 
ATOM     21  O   UNL     1      25.932  21.840  18.558  0.00  0.00    -0.276 OA
ATOM     22  H   UNL     1      25.602  23.463  20.364  0.00  0.00    +0.145 HD
ATOM     23  H   UNL     1      27.252  23.492  20.915  0.00  0.00    +0.145 HD
ENDBRANCH   1  20
TORSDOF 4
ENDMDL
