MODEL 1
REMARK VINA RESULT:      -6.9      0.000      0.000
REMARK  Name = ZINC000435351830
REMARK  5 active torsions:
REMARK  status: ('A' for Active; 'I' for Inactive)
REMARK    1  A    between atoms: C_2  and  C_3
REMARK    2  A    between atoms: C_7  and  C_8
REMARK    3  A    between atoms: C_8  and  C_9
REMARK    4  A    between atoms: N_11  and  C_12
REMARK    5  A    between atoms: C_12  and  C_13
REMARK                            x       y       z     vdW  Elec       q    Type
REMARK                         _______ _______ _______ _____ _____    ______ ____
ROOT
ATOM      1  C   UNL     1      31.561  22.437  15.632  0.00  0.00    +0.224 C 
ATOM      2  O   UNL     1      32.429  22.876  16.378  0.00  0.00    -0.275 OA
ATOM      3  N   UNL     1      30.847  23.196  14.742  0.00  0.00    -0.309 N 
ATOM      4  H   UNL     1      30.171  22.755  14.134  0.00  0.00    +0.149 HD
ENDROOT
BRANCH   1   5
ATOM      5  C   UNL     1      31.164  20.984  15.687  0.00  0.00    +0.072 C 
ATOM      6  C   UNL     1      31.804  20.017  14.697  0.00  0.00    +0.022 C 
ATOM      7  C   UNL     1      32.242  19.985  16.124  0.00  0.00    +0.022 C 
BRANCH   5  12
ATOM      8  C   UNL     1      28.211  20.926  18.135  0.00  0.00    +0.052 A 
ATOM      9  C   UNL     1      27.298  20.097  17.482  0.00  0.00    +0.019 A 
ATOM     10  C   UNL     1      27.601  19.593  16.217  0.00  0.00    +0.002 A 
ATOM     11  C   UNL     1      28.826  19.895  15.615  0.00  0.00    +0.005 A 
ATOM     12  C   UNL     1      29.778  20.701  16.264  0.00  0.00    -0.031 A 
ATOM     13  C   UNL     1      29.428  21.233  17.519  0.00  0.00    +0.023 A 
BRANCH   8  15
ATOM     14  N   UNL     1      27.699  21.835  20.509  0.00  0.00    -0.191 NA
ATOM     15  C   UNL     1      27.926  21.435  19.442  0.00  0.00    +0.099 C 
ENDBRANCH   8  15
ENDBRANCH   5  12
ENDBRANCH   1   5
BRANCH   3  16
ATOM     16  C   UNL     1      31.001  24.632  14.674  0.00  0.00    +0.159 C 
BRANCH  16  17
ATOM     17  C   UNL     1      31.430  25.124  13.310  0.00  0.00    +0.058 A 
ATOM     18  C   UNL     1      30.819  26.244  12.742  0.00  0.00    +0.028 A 
ATOM     19  C   UNL     1      31.214  26.662  11.472  0.00  0.00    +0.042 A 
ATOM     20  C   UNL     1      32.206  25.954  10.816  0.00  0.00    +0.141 A 
ATOM     21  F   UNL     1      32.605  26.323   9.592  0.00  0.00    -0.204 F 
ATOM     22  C   UNL     1      32.775  24.862  11.444  0.00  0.00    +0.149 A 
ATOM     23  N   UNL     1      32.416  24.431  12.678  0.00  0.00    -0.255 NA
ENDBRANCH  16  17
ENDBRANCH   3  16
TORSDOF 5
ENDMDL
MODEL 2
REMARK VINA RESULT:      -6.8      5.139      7.402
REMARK  Name = ZINC000435351830
REMARK  5 active torsions:
REMARK  status: ('A' for Active; 'I' for Inactive)
REMARK    1  A    between atoms: C_2  and  C_3
REMARK    2  A    between atoms: C_7  and  C_8
REMARK    3  A    between atoms: C_8  and  C_9
REMARK    4  A    between atoms: N_11  and  C_12
REMARK    5  A    between atoms: C_12  and  C_13
REMARK                            x       y       z     vdW  Elec       q    Type
REMARK                         _______ _______ _______ _____ _____    ______ ____
ROOT
ATOM      1  C   UNL     1      27.486  22.635  19.512  0.00  0.00    +0.224 C 
ATOM      2  O   UNL     1      27.339  21.866  20.455  0.00  0.00    -0.275 OA
ATOM      3  N   UNL     1      26.589  23.609  19.158  0.00  0.00    -0.309 N 
ATOM      4  H   UNL     1      26.797  24.228  18.388  0.00  0.00    +0.149 HD
ENDROOT
BRANCH   1   5
ATOM      5  C   UNL     1      28.682  22.516  18.602  0.00  0.00    +0.072 C 
ATOM      6  C   UNL     1      29.433  23.786  18.219  0.00  0.00    +0.022 C 
ATOM      7  C   UNL     1      30.050  22.852  19.208  0.00  0.00    +0.022 C 
BRANCH   5  12
ATOM      8  C   UNL     1      29.983  19.627  16.438  0.00  0.00    +0.052 A 
ATOM      9  C   UNL     1      28.814  19.147  15.847  0.00  0.00    +0.019 A 
ATOM     10  C   UNL     1      27.584  19.712  16.185  0.00  0.00    +0.002 A 
ATOM     11  C   UNL     1      27.524  20.774  17.092  0.00  0.00    +0.005 A 
ATOM     12  C   UNL     1      28.689  21.299  17.678  0.00  0.00    -0.031 A 
ATOM     13  C   UNL     1      29.911  20.681  17.354  0.00  0.00    +0.023 A 
BRANCH   8  15
ATOM     14  N   UNL     1      32.283  18.617  15.793  0.00  0.00    -0.191 NA
ATOM     15  C   UNL     1      31.256  19.074  16.088  0.00  0.00    +0.099 C 
ENDBRANCH   8  15
ENDBRANCH   5  12
ENDBRANCH   1   5
BRANCH   3  16
ATOM     16  C   UNL     1      25.319  23.754  19.836  0.00  0.00    +0.159 C 
BRANCH  16  17
ATOM     17  C   UNL     1      24.390  24.735  19.159  0.00  0.00    +0.058 A 
ATOM     18  C   UNL     1      23.908  24.476  17.873  0.00  0.00    +0.028 A 
ATOM     19  C   UNL     1      23.073  25.408  17.259  0.00  0.00    +0.042 A 
ATOM     20  C   UNL     1      22.743  26.562  17.948  0.00  0.00    +0.141 A 
ATOM     21  F   UNL     1      21.949  27.482  17.387  0.00  0.00    -0.204 F 
ATOM     22  C   UNL     1      23.247  26.747  19.223  0.00  0.00    +0.149 A 
ATOM     23  N   UNL     1      24.058  25.860  19.848  0.00  0.00    -0.255 NA
ENDBRANCH  16  17
ENDBRANCH   3  16
TORSDOF 5
ENDMDL
MODEL 3
REMARK VINA RESULT:      -6.8      3.890      6.026
REMARK  Name = ZINC000435351830
REMARK  5 active torsions:
REMARK  status: ('A' for Active; 'I' for Inactive)
REMARK    1  A    between atoms: C_2  and  C_3
REMARK    2  A    between atoms: C_7  and  C_8
REMARK    3  A    between atoms: C_8  and  C_9
REMARK    4  A    between atoms: N_11  and  C_12
REMARK    5  A    between atoms: C_12  and  C_13
REMARK                            x       y       z     vdW  Elec       q    Type
REMARK                         _______ _______ _______ _____ _____    ______ ____
ROOT
ATOM      1  C   UNL     1      31.883  20.108  14.880  0.00  0.00    +0.224 C 
ATOM      2  O   UNL     1      32.481  20.191  13.813  0.00  0.00    -0.275 OA
ATOM      3  N   UNL     1      31.842  18.983  15.661  0.00  0.00    -0.309 N 
ATOM      4  H   UNL     1      31.356  19.002  16.546  0.00  0.00    +0.149 HD
ENDROOT
BRANCH   1   5
ATOM      5  C   UNL     1      31.070  21.267  15.398  0.00  0.00    +0.072 C 
ATOM      6  C   UNL     1      31.794  22.558  15.762  0.00  0.00    +0.022 C 
ATOM      7  C   UNL     1      30.989  22.512  14.505  0.00  0.00    +0.022 C 
BRANCH   5  12
ATOM      8  C   UNL     1      28.351  20.957  18.087  0.00  0.00    +0.052 A 
ATOM      9  C   UNL     1      27.415  20.126  17.470  0.00  0.00    +0.019 A 
ATOM     10  C   UNL     1      27.622  19.703  16.157  0.00  0.00    +0.002 A 
ATOM     11  C   UNL     1      28.777  20.087  15.468  0.00  0.00    +0.005 A 
ATOM     12  C   UNL     1      29.752  20.897  16.076  0.00  0.00    -0.031 A 
ATOM     13  C   UNL     1      29.496  21.346  17.386  0.00  0.00    +0.023 A 
BRANCH   8  15
ATOM     14  N   UNL     1      28.029  21.736  20.539  0.00  0.00    -0.191 NA
ATOM     15  C   UNL     1      28.166  21.383  19.440  0.00  0.00    +0.099 C 
ENDBRANCH   8  15
ENDBRANCH   5  12
ENDBRANCH   1   5
BRANCH   3  16
ATOM     16  C   UNL     1      32.444  17.739  15.231  0.00  0.00    +0.159 C 
BRANCH  16  17
ATOM     17  C   UNL     1      31.590  16.971  14.247  0.00  0.00    +0.058 A 
ATOM     18  C   UNL     1      30.201  16.938  14.398  0.00  0.00    +0.028 A 
ATOM     19  C   UNL     1      29.437  16.202  13.493  0.00  0.00    +0.042 A 
ATOM     20  C   UNL     1      30.082  15.531  12.469  0.00  0.00    +0.141 A 
ATOM     21  F   UNL     1      29.381  14.809  11.585  0.00  0.00    -0.204 F 
ATOM     22  C   UNL     1      31.459  15.619  12.374  0.00  0.00    +0.149 A 
ATOM     23  N   UNL     1      32.230  16.327  13.234  0.00  0.00    -0.255 NA
ENDBRANCH  16  17
ENDBRANCH   3  16
TORSDOF 5
ENDMDL
MODEL 4
REMARK VINA RESULT:      -6.5      1.147      1.525
REMARK  Name = ZINC000435351830
REMARK  5 active torsions:
REMARK  status: ('A' for Active; 'I' for Inactive)
REMARK    1  A    between atoms: C_2  and  C_3
REMARK    2  A    between atoms: C_7  and  C_8
REMARK    3  A    between atoms: C_8  and  C_9
REMARK    4  A    between atoms: N_11  and  C_12
REMARK    5  A    between atoms: C_12  and  C_13
REMARK                            x       y       z     vdW  Elec       q    Type
REMARK                         _______ _______ _______ _____ _____    ______ ____
ROOT
ATOM      1  C   UNL     1      32.272  21.434  16.275  0.00  0.00    +0.224 C 
ATOM      2  O   UNL     1      32.656  21.851  17.362  0.00  0.00    -0.275 OA
ATOM      3  N   UNL     1      32.431  22.100  15.088  0.00  0.00    -0.309 N 
ATOM      4  H   UNL     1      32.119  21.674  14.227  0.00  0.00    +0.149 HD
ENDROOT
BRANCH   1   5
ATOM      5  C   UNL     1      31.515  20.135  16.175  0.00  0.00    +0.072 C 
ATOM      6  C   UNL     1      32.041  19.057  15.234  0.00  0.00    +0.022 C 
ATOM      7  C   UNL     1      32.217  18.879  16.706  0.00  0.00    +0.022 C 
BRANCH   5  12
ATOM      8  C   UNL     1      28.283  20.836  18.119  0.00  0.00    +0.052 A 
ATOM      9  C   UNL     1      27.312  20.253  17.305  0.00  0.00    +0.019 A 
ATOM     10  C   UNL     1      27.682  19.676  16.090  0.00  0.00    +0.002 A 
ATOM     11  C   UNL     1      29.024  19.659  15.700  0.00  0.00    +0.005 A 
ATOM     12  C   UNL     1      30.027  20.211  16.515  0.00  0.00    -0.031 A 
ATOM     13  C   UNL     1      29.620  20.825  17.715  0.00  0.00    +0.023 A 
BRANCH   8  15
ATOM     14  N   UNL     1      27.620  21.875  20.401  0.00  0.00    -0.191 NA
ATOM     15  C   UNL     1      27.925  21.414  19.379  0.00  0.00    +0.099 C 
ENDBRANCH   8  15
ENDBRANCH   5  12
ENDBRANCH   1   5
BRANCH   3  16
ATOM     16  C   UNL     1      33.002  23.428  15.034  0.00  0.00    +0.159 C 
BRANCH  16  17
ATOM     17  C   UNL     1      32.459  24.265  13.898  0.00  0.00    +0.058 A 
ATOM     18  C   UNL     1      32.940  24.084  12.599  0.00  0.00    +0.028 A 
ATOM     19  C   UNL     1      32.443  24.886  11.572  0.00  0.00    +0.042 A 
ATOM     20  C   UNL     1      31.481  25.834  11.874  0.00  0.00    +0.141 A 
ATOM     21  F   UNL     1      30.986  26.625  10.914  0.00  0.00    -0.204 F 
ATOM     22  C   UNL     1      31.042  25.949  13.180  0.00  0.00    +0.149 A 
ATOM     23  N   UNL     1      31.503  25.185  14.200  0.00  0.00    -0.255 NA
ENDBRANCH  16  17
ENDBRANCH   3  16
TORSDOF 5
ENDMDL
MODEL 5
REMARK VINA RESULT:      -6.5      5.476      8.121
REMARK  Name = ZINC000435351830
REMARK  5 active torsions:
REMARK  status: ('A' for Active; 'I' for Inactive)
REMARK    1  A    between atoms: C_2  and  C_3
REMARK    2  A    between atoms: C_7  and  C_8
REMARK    3  A    between atoms: C_8  and  C_9
REMARK    4  A    between atoms: N_11  and  C_12
REMARK    5  A    between atoms: C_12  and  C_13
REMARK                            x       y       z     vdW  Elec       q    Type
REMARK                         _______ _______ _______ _____ _____    ______ ____
ROOT
ATOM      1  C   UNL     1      27.316  22.614  19.433  0.00  0.00    +0.224 C 
ATOM      2  O   UNL     1      27.050  21.837  20.344  0.00  0.00    -0.275 OA
ATOM      3  N   UNL     1      26.473  23.594  18.978  0.00  0.00    -0.309 N 
ATOM      4  H   UNL     1      26.778  24.218  18.245  0.00  0.00    +0.149 HD
ENDROOT
BRANCH   1   5
ATOM      5  C   UNL     1      28.617  22.499  18.681  0.00  0.00    +0.072 C 
ATOM      6  C   UNL     1      29.430  23.765  18.437  0.00  0.00    +0.022 C 
ATOM      7  C   UNL     1      29.901  22.792  19.467  0.00  0.00    +0.022 C 
BRANCH   5  12
ATOM      8  C   UNL     1      30.152  19.793  16.436  0.00  0.00    +0.052 A 
ATOM      9  C   UNL     1      29.025  19.221  15.844  0.00  0.00    +0.019 A 
ATOM     10  C   UNL     1      27.753  19.664  16.206  0.00  0.00    +0.002 A 
ATOM     11  C   UNL     1      27.605  20.695  17.139  0.00  0.00    +0.005 A 
ATOM     12  C   UNL     1      28.724  21.310  17.727  0.00  0.00    -0.031 A 
ATOM     13  C   UNL     1      29.995  20.814  17.377  0.00  0.00    +0.023 A 
BRANCH   8  15
ATOM     14  N   UNL     1      32.528  19.020  15.743  0.00  0.00    -0.191 NA
ATOM     15  C   UNL     1      31.466  19.366  16.061  0.00  0.00    +0.099 C 
ENDBRANCH   8  15
ENDBRANCH   5  12
ENDBRANCH   1   5
BRANCH   3  16
ATOM     16  C   UNL     1      25.128  23.736  19.491  0.00  0.00    +0.159 C 
BRANCH  16  17
ATOM     17  C   UNL     1      24.985  24.866  20.487  0.00  0.00    +0.058 A 
ATOM     18  C   UNL     1      25.938  25.887  20.534  0.00  0.00    +0.028 A 
ATOM     19  C   UNL     1      25.799  26.903  21.477  0.00  0.00    +0.042 A 
ATOM     20  C   UNL     1      24.714  26.871  22.336  0.00  0.00    +0.141 A 
ATOM     21  F   UNL     1      24.553  27.827  23.259  0.00  0.00    -0.204 F 
ATOM     22  C   UNL     1      23.804  25.836  22.225  0.00  0.00    +0.149 A 
ATOM     23  N   UNL     1      23.908  24.835  21.317  0.00  0.00    -0.255 NA
ENDBRANCH  16  17
ENDBRANCH   3  16
TORSDOF 5
ENDMDL
MODEL 6
REMARK VINA RESULT:      -6.4      4.911      6.717
REMARK  Name = ZINC000435351830
REMARK  5 active torsions:
REMARK  status: ('A' for Active; 'I' for Inactive)
REMARK    1  A    between atoms: C_2  and  C_3
REMARK    2  A    between atoms: C_7  and  C_8
REMARK    3  A    between atoms: C_8  and  C_9
REMARK    4  A    between atoms: N_11  and  C_12
REMARK    5  A    between atoms: C_12  and  C_13
REMARK                            x       y       z     vdW  Elec       q    Type
REMARK                         _______ _______ _______ _____ _____    ______ ____
ROOT
ATOM      1  C   UNL     1      30.368  19.449  16.459  0.00  0.00    +0.224 C 
ATOM      2  O   UNL     1      31.327  19.496  17.221  0.00  0.00    -0.275 OA
ATOM      3  N   UNL     1      30.232  18.542  15.440  0.00  0.00    -0.309 N 
ATOM      4  H   UNL     1      29.395  18.544  14.874  0.00  0.00    +0.149 HD
ENDROOT
BRANCH   1   5
ATOM      5  C   UNL     1      29.257  20.463  16.557  0.00  0.00    +0.072 C 
ATOM      6  C   UNL     1      28.604  20.952  15.269  0.00  0.00    +0.022 C 
ATOM      7  C   UNL     1      27.856  19.999  16.141  0.00  0.00    +0.022 C 
BRANCH   5  12
ATOM      8  C   UNL     1      30.166  23.332  18.936  0.00  0.00    +0.052 A 
ATOM      9  C   UNL     1      29.513  22.962  20.112  0.00  0.00    +0.019 A 
ATOM     10  C   UNL     1      28.724  21.812  20.135  0.00  0.00    +0.002 A 
ATOM     11  C   UNL     1      28.607  21.017  18.991  0.00  0.00    +0.005 A 
ATOM     12  C   UNL     1      29.280  21.348  17.802  0.00  0.00    -0.031 A 
ATOM     13  C   UNL     1      30.034  22.537  17.794  0.00  0.00    +0.023 A 
BRANCH   8  15
ATOM     14  N   UNL     1      31.684  25.433  18.870  0.00  0.00    -0.191 NA
ATOM     15  C   UNL     1      30.997  24.496  18.900  0.00  0.00    +0.099 C 
ENDBRANCH   8  15
ENDBRANCH   5  12
ENDBRANCH   1   5
BRANCH   3  16
ATOM     16  C   UNL     1      31.281  17.600  15.117  0.00  0.00    +0.159 C 
BRANCH  16  17
ATOM     17  C   UNL     1      30.933  16.693  13.958  0.00  0.00    +0.058 A 
ATOM     18  C   UNL     1      29.600  16.370  13.693  0.00  0.00    +0.028 A 
ATOM     19  C   UNL     1      29.306  15.511  12.635  0.00  0.00    +0.042 A 
ATOM     20  C   UNL     1      30.348  15.010  11.875  0.00  0.00    +0.141 A 
ATOM     21  F   UNL     1      30.104  14.177  10.856  0.00  0.00    -0.204 F 
ATOM     22  C   UNL     1      31.643  15.382  12.187  0.00  0.00    +0.149 A 
ATOM     23  N   UNL     1      31.962  16.217  13.207  0.00  0.00    -0.255 NA
ENDBRANCH  16  17
ENDBRANCH   3  16
TORSDOF 5
ENDMDL
MODEL 7
REMARK VINA RESULT:      -6.4      3.254      8.046
REMARK  Name = ZINC000435351830
REMARK  5 active torsions:
REMARK  status: ('A' for Active; 'I' for Inactive)
REMARK    1  A    between atoms: C_2  and  C_3
REMARK    2  A    between atoms: C_7  and  C_8
REMARK    3  A    between atoms: C_8  and  C_9
REMARK    4  A    between atoms: N_11  and  C_12
REMARK    5  A    between atoms: C_12  and  C_13
REMARK                            x       y       z     vdW  Elec       q    Type
REMARK                         _______ _______ _______ _____ _____    ______ ____
ROOT
ATOM      1  C   UNL     1      31.755  22.711  13.998  0.00  0.00    +0.224 C 
ATOM      2  O   UNL     1      32.369  21.703  13.667  0.00  0.00    -0.275 OA
ATOM      3  N   UNL     1      30.435  22.730  14.365  0.00  0.00    -0.309 N 
ATOM      4  H   UNL     1      30.007  23.597  14.659  0.00  0.00    +0.149 HD
ENDROOT
BRANCH   1   5
ATOM      5  C   UNL     1      32.422  24.063  13.964  0.00  0.00    +0.072 C 
ATOM      6  C   UNL     1      32.579  24.828  15.273  0.00  0.00    +0.022 C 
ATOM      7  C   UNL     1      33.781  24.184  14.665  0.00  0.00    +0.022 C 
BRANCH   5  12
ATOM      8  C   UNL     1      33.193  25.124  10.359  0.00  0.00    +0.052 A 
ATOM      9  C   UNL     1      32.360  26.230  10.189  0.00  0.00    +0.019 A 
ATOM     10  C   UNL     1      31.497  26.612  11.216  0.00  0.00    +0.002 A 
ATOM     11  C   UNL     1      31.483  25.906  12.422  0.00  0.00    +0.005 A 
ATOM     12  C   UNL     1      32.335  24.808  12.633  0.00  0.00    -0.031 A 
ATOM     13  C   UNL     1      33.164  24.417  11.564  0.00  0.00    +0.023 A 
BRANCH   8  15
ATOM     14  N   UNL     1      34.825  24.410   8.474  0.00  0.00    -0.191 NA
ATOM     15  C   UNL     1      34.100  24.730   9.324  0.00  0.00    +0.099 C 
ENDBRANCH   8  15
ENDBRANCH   5  12
ENDBRANCH   1   5
BRANCH   3  16
ATOM     16  C   UNL     1      29.613  21.541  14.303  0.00  0.00    +0.159 C 
BRANCH  16  17
ATOM     17  C   UNL     1      28.901  21.239  15.602  0.00  0.00    +0.058 A 
ATOM     18  C   UNL     1      28.244  20.018  15.777  0.00  0.00    +0.028 A 
ATOM     19  C   UNL     1      27.573  19.773  16.974  0.00  0.00    +0.042 A 
ATOM     20  C   UNL     1      27.584  20.749  17.955  0.00  0.00    +0.141 A 
ATOM     21  F   UNL     1      26.943  20.551  19.115  0.00  0.00    -0.204 F 
ATOM     22  C   UNL     1      28.264  21.930  17.718  0.00  0.00    +0.149 A 
ATOM     23  N   UNL     1      28.929  22.197  16.567  0.00  0.00    -0.255 NA
ENDBRANCH  16  17
ENDBRANCH   3  16
TORSDOF 5
ENDMDL
MODEL 8
REMARK VINA RESULT:      -6.4      1.448      2.252
REMARK  Name = ZINC000435351830
REMARK  5 active torsions:
REMARK  status: ('A' for Active; 'I' for Inactive)
REMARK    1  A    between atoms: C_2  and  C_3
REMARK    2  A    between atoms: C_7  and  C_8
REMARK    3  A    between atoms: C_8  and  C_9
REMARK    4  A    between atoms: N_11  and  C_12
REMARK    5  A    between atoms: C_12  and  C_13
REMARK                            x       y       z     vdW  Elec       q    Type
REMARK                         _______ _______ _______ _____ _____    ______ ____
ROOT
ATOM      1  C   UNL     1      31.061  21.294  16.098  0.00  0.00    +0.224 C 
ATOM      2  O   UNL     1      32.063  20.827  16.628  0.00  0.00    -0.275 OA
ATOM      3  N   UNL     1      31.064  22.359  15.235  0.00  0.00    -0.309 N 
ATOM      4  H   UNL     1      30.200  22.664  14.810  0.00  0.00    +0.149 HD
ENDROOT
BRANCH   1   5
ATOM      5  C   UNL     1      29.694  20.744  16.418  0.00  0.00    +0.072 C 
ATOM      6  C   UNL     1      28.811  20.276  15.267  0.00  0.00    +0.022 C 
ATOM      7  C   UNL     1      29.463  19.254  16.138  0.00  0.00    +0.022 C 
BRANCH   5  12
ATOM      8  C   UNL     1      29.337  22.481  19.820  0.00  0.00    +0.052 A 
ATOM      9  C   UNL     1      28.069  22.072  20.232  0.00  0.00    +0.019 A 
ATOM     10  C   UNL     1      27.289  21.278  19.391  0.00  0.00    +0.002 A 
ATOM     11  C   UNL     1      27.786  20.869  18.150  0.00  0.00    +0.005 A 
ATOM     12  C   UNL     1      29.074  21.240  17.723  0.00  0.00    -0.031 A 
ATOM     13  C   UNL     1      29.821  22.078  18.572  0.00  0.00    +0.023 A 
BRANCH   8  15
ATOM     14  N   UNL     1      30.838  23.917  21.372  0.00  0.00    -0.191 NA
ATOM     15  C   UNL     1      30.159  23.279  20.678  0.00  0.00    +0.099 C 
ENDBRANCH   8  15
ENDBRANCH   5  12
ENDBRANCH   1   5
BRANCH   3  16
ATOM     16  C   UNL     1      32.275  23.095  14.943  0.00  0.00    +0.159 C 
BRANCH  16  17
ATOM     17  C   UNL     1      32.122  24.064  13.792  0.00  0.00    +0.058 A 
ATOM     18  C   UNL     1      31.270  25.165  13.908  0.00  0.00    +0.028 A 
ATOM     19  C   UNL     1      31.125  26.030  12.824  0.00  0.00    +0.042 A 
ATOM     20  C   UNL     1      31.838  25.771  11.667  0.00  0.00    +0.141 A 
ATOM     21  F   UNL     1      31.718  26.576  10.603  0.00  0.00    -0.204 F 
ATOM     22  C   UNL     1      32.672  24.669  11.627  0.00  0.00    +0.149 A 
ATOM     23  N   UNL     1      32.837  23.811  12.663  0.00  0.00    -0.255 NA
ENDBRANCH  16  17
ENDBRANCH   3  16
TORSDOF 5
ENDMDL
MODEL 9
REMARK VINA RESULT:      -6.3      2.175      2.759
REMARK  Name = ZINC000435351830
REMARK  5 active torsions:
REMARK  status: ('A' for Active; 'I' for Inactive)
REMARK    1  A    between atoms: C_2  and  C_3
REMARK    2  A    between atoms: C_7  and  C_8
REMARK    3  A    between atoms: C_8  and  C_9
REMARK    4  A    between atoms: N_11  and  C_12
REMARK    5  A    between atoms: C_12  and  C_13
REMARK                            x       y       z     vdW  Elec       q    Type
REMARK                         _______ _______ _______ _____ _____    ______ ____
ROOT
ATOM      1  C   UNL     1      30.876  23.849  15.683  0.00  0.00    +0.224 C 
ATOM      2  O   UNL     1      30.114  24.653  16.209  0.00  0.00    -0.275 OA
ATOM      3  N   UNL     1      31.510  24.050  14.485  0.00  0.00    -0.309 N 
ATOM      4  H   UNL     1      32.151  23.354  14.133  0.00  0.00    +0.149 HD
ENDROOT
BRANCH   1   5
ATOM      5  C   UNL     1      31.131  22.505  16.316  0.00  0.00    +0.072 C 
ATOM      6  C   UNL     1      32.569  22.011  16.417  0.00  0.00    +0.022 C 
ATOM      7  C   UNL     1      31.885  22.499  17.652  0.00  0.00    +0.022 C 
BRANCH   5  12
ATOM      8  C   UNL     1      29.171  19.275  15.652  0.00  0.00    +0.052 A 
ATOM      9  C   UNL     1      27.860  19.657  15.936  0.00  0.00    +0.019 A 
ATOM     10  C   UNL     1      27.599  20.947  16.400  0.00  0.00    +0.002 A 
ATOM     11  C   UNL     1      28.644  21.862  16.557  0.00  0.00    +0.005 A 
ATOM     12  C   UNL     1      29.970  21.514  16.248  0.00  0.00    -0.031 A 
ATOM     13  C   UNL     1      30.211  20.193  15.824  0.00  0.00    +0.023 A 
BRANCH   8  15
ATOM     14  N   UNL     1      29.680  16.903  14.737  0.00  0.00    -0.191 NA
ATOM     15  C   UNL     1      29.455  17.963  15.155  0.00  0.00    +0.099 C 
ENDBRANCH   8  15
ENDBRANCH   5  12
ENDBRANCH   1   5
BRANCH   3  16
ATOM     16  C   UNL     1      31.252  25.223  13.677  0.00  0.00    +0.159 C 
BRANCH  16  17
ATOM     17  C   UNL     1      32.000  25.218  12.363  0.00  0.00    +0.058 A 
ATOM     18  C   UNL     1      31.813  26.254  11.444  0.00  0.00    +0.028 A 
ATOM     19  C   UNL     1      32.493  26.214  10.228  0.00  0.00    +0.042 A 
ATOM     20  C   UNL     1      33.339  25.149   9.973  0.00  0.00    +0.141 A 
ATOM     21  F   UNL     1      34.004  25.075   8.812  0.00  0.00    -0.204 F 
ATOM     22  C   UNL     1      33.485  24.165  10.934  0.00  0.00    +0.149 A 
ATOM     23  N   UNL     1      32.841  24.176  12.126  0.00  0.00    -0.255 NA
ENDBRANCH  16  17
ENDBRANCH   3  16
TORSDOF 5
ENDMDL
