MODEL 1
REMARK VINA RESULT:      -6.1      0.000      0.000
REMARK  Name = ZINC000560333501
REMARK  5 active torsions:
REMARK  status: ('A' for Active; 'I' for Inactive)
REMARK    1  A    between atoms: C_2  and  C_3
REMARK    2  A    between atoms: C_7  and  C_8
REMARK    3  A    between atoms: C_8  and  C_9
REMARK    4  A    between atoms: N_11  and  C_12
REMARK    5  A    between atoms: C_12  and  C_13
REMARK                            x       y       z     vdW  Elec       q    Type
REMARK                         _______ _______ _______ _____ _____    ______ ____
ROOT
ATOM      1  C   UNL     1      31.559  22.955  12.964  0.00  0.00    +0.217 C 
ATOM      2  O   UNL     1      31.688  23.964  13.663  0.00  0.00    -0.275 OA
ATOM      3  N   UNL     1      31.998  22.880  11.654  0.00  0.00    -0.315 N 
ATOM      4  H   UNL     1      32.117  21.946  11.280  0.00  0.00    +0.149 HD
ENDROOT
BRANCH   1   5
ATOM      5  C   UNL     1      30.893  21.715  13.512  0.00  0.00    +0.131 C 
BRANCH   5  10
ATOM      6  C   UNL     1      33.298  18.780  14.062  0.00  0.00    +0.052 A 
ATOM      7  C   UNL     1      33.681  18.995  15.391  0.00  0.00    +0.019 A 
ATOM      8  C   UNL     1      33.144  20.065  16.105  0.00  0.00    +0.002 A 
ATOM      9  C   UNL     1      32.223  20.921  15.498  0.00  0.00    +0.004 A 
ATOM     10  C   UNL     1      31.822  20.718  14.170  0.00  0.00    -0.037 A 
ATOM     11  C   UNL     1      32.375  19.643  13.455  0.00  0.00    +0.023 A 
BRANCH   6  13
ATOM     12  N   UNL     1      34.321  16.803  12.730  0.00  0.00    -0.191 NA
ATOM     13  C   UNL     1      33.865  17.691  13.323  0.00  0.00    +0.099 C 
ENDBRANCH   6  13
ENDBRANCH   5  10
ENDBRANCH   1   5
BRANCH   3  14
ATOM     14  C   UNL     1      32.924  23.894  11.182  0.00  0.00    +0.108 C 
BRANCH  14  15
ATOM     15  C   UNL     1      34.417  23.650  11.475  0.00  0.00    +0.011 C 
ATOM     16  C   UNL     1      35.282  24.896  11.312  0.00  0.00    +0.033 C 
ATOM     17  C   UNL     1      35.210  25.417   9.884  0.00  0.00    +0.161 C 
ATOM     18  O   UNL     1      35.410  24.409   8.896  0.00  0.00    -0.373 OA
ATOM     19  C   UNL     1      34.883  23.060   9.061  0.00  0.00    +0.070 C 
ATOM     20  C   UNL     1      33.507  22.713   8.394  0.00  0.00    +0.035 C 
ATOM     21  C   UNL     1      34.265  22.332   7.122  0.00  0.00    +0.006 C 
ATOM     22  C   UNL     1      35.500  22.079   8.007  0.00  0.00    +0.035 C 
ATOM     23  C   UNL     1      34.997  22.589  10.517  0.00  0.00    +0.040 C 
ENDBRANCH  14  15
ENDBRANCH   3  14
TORSDOF 5
ENDMDL
MODEL 2
REMARK VINA RESULT:      -6.1      2.253      5.668
REMARK  Name = ZINC000560333501
REMARK  5 active torsions:
REMARK  status: ('A' for Active; 'I' for Inactive)
REMARK    1  A    between atoms: C_2  and  C_3
REMARK    2  A    between atoms: C_7  and  C_8
REMARK    3  A    between atoms: C_8  and  C_9
REMARK    4  A    between atoms: N_11  and  C_12
REMARK    5  A    between atoms: C_12  and  C_13
REMARK                            x       y       z     vdW  Elec       q    Type
REMARK                         _______ _______ _______ _____ _____    ______ ____
ROOT
ATOM      1  C   UNL     1      31.282  23.329  13.049  0.00  0.00    +0.217 C 
ATOM      2  O   UNL     1      30.611  22.339  12.747  0.00  0.00    -0.275 OA
ATOM      3  N   UNL     1      31.695  23.598  14.343  0.00  0.00    -0.315 N 
ATOM      4  H   UNL     1      32.470  24.244  14.435  0.00  0.00    +0.149 HD
ENDROOT
BRANCH   1   5
ATOM      5  C   UNL     1      31.699  24.333  12.000  0.00  0.00    +0.131 C 
BRANCH   5  10
ATOM      6  C   UNL     1      34.450  22.356  10.204  0.00  0.00    +0.052 A 
ATOM      7  C   UNL     1      34.202  22.704   8.872  0.00  0.00    +0.019 A 
ATOM      8  C   UNL     1      33.169  23.589   8.565  0.00  0.00    +0.002 A 
ATOM      9  C   UNL     1      32.385  24.133   9.585  0.00  0.00    +0.004 A 
ATOM     10  C   UNL     1      32.623  23.801  10.926  0.00  0.00    -0.037 A 
ATOM     11  C   UNL     1      33.659  22.900  11.226  0.00  0.00    +0.023 A 
BRANCH   6  13
ATOM     12  N   UNL     1      36.348  20.683  10.777  0.00  0.00    -0.191 NA
ATOM     13  C   UNL     1      35.499  21.430  10.516  0.00  0.00    +0.099 C 
ENDBRANCH   6  13
ENDBRANCH   5  10
ENDBRANCH   1   5
BRANCH   3  14
ATOM     14  C   UNL     1      31.619  22.528  15.322  0.00  0.00    +0.108 C 
BRANCH  14  15
ATOM     15  C   UNL     1      32.825  22.375  16.268  0.00  0.00    +0.011 C 
ATOM     16  C   UNL     1      34.078  23.097  15.781  0.00  0.00    +0.033 C 
ATOM     17  C   UNL     1      34.524  22.547  14.434  0.00  0.00    +0.161 C 
ATOM     18  O   UNL     1      34.590  21.123  14.390  0.00  0.00    -0.373 OA
ATOM     19  C   UNL     1      33.609  20.290  15.074  0.00  0.00    +0.070 C 
ATOM     20  C   UNL     1      32.393  19.744  14.247  0.00  0.00    +0.035 C 
ATOM     21  C   UNL     1      33.248  18.536  13.862  0.00  0.00    +0.006 C 
ATOM     22  C   UNL     1      34.079  18.797  15.133  0.00  0.00    +0.035 C 
ATOM     23  C   UNL     1      33.211  20.890  16.429  0.00  0.00    +0.040 C 
ENDBRANCH  14  15
ENDBRANCH   3  14
TORSDOF 5
ENDMDL
MODEL 3
REMARK VINA RESULT:      -6.0      2.093      6.415
REMARK  Name = ZINC000560333501
REMARK  5 active torsions:
REMARK  status: ('A' for Active; 'I' for Inactive)
REMARK    1  A    between atoms: C_2  and  C_3
REMARK    2  A    between atoms: C_7  and  C_8
REMARK    3  A    between atoms: C_8  and  C_9
REMARK    4  A    between atoms: N_11  and  C_12
REMARK    5  A    between atoms: C_12  and  C_13
REMARK                            x       y       z     vdW  Elec       q    Type
REMARK                         _______ _______ _______ _____ _____    ______ ____
ROOT
ATOM      1  C   UNL     1      32.074  23.803  11.640  0.00  0.00    +0.217 C 
ATOM      2  O   UNL     1      31.464  24.540  12.419  0.00  0.00    -0.275 OA
ATOM      3  N   UNL     1      32.820  22.714  12.056  0.00  0.00    -0.315 N 
ATOM      4  H   UNL     1      33.022  22.019  11.348  0.00  0.00    +0.149 HD
ENDROOT
BRANCH   1   5
ATOM      5  C   UNL     1      32.045  24.055  10.152  0.00  0.00    +0.131 C 
BRANCH   5  10
ATOM      6  C   UNL     1      34.769  22.716   7.808  0.00  0.00    +0.052 A 
ATOM      7  C   UNL     1      35.778  23.666   8.002  0.00  0.00    +0.019 A 
ATOM      8  C   UNL     1      35.583  24.714   8.902  0.00  0.00    +0.002 A 
ATOM      9  C   UNL     1      34.386  24.814   9.613  0.00  0.00    +0.004 A 
ATOM     10  C   UNL     1      33.366  23.868   9.437  0.00  0.00    -0.037 A 
ATOM     11  C   UNL     1      33.566  22.822   8.521  0.00  0.00    +0.023 A 
BRANCH   6  13
ATOM     12  N   UNL     1      35.117  20.794   6.102  0.00  0.00    -0.191 NA
ATOM     13  C   UNL     1      34.963  21.651   6.869  0.00  0.00    +0.099 C 
ENDBRANCH   6  13
ENDBRANCH   5  10
ENDBRANCH   1   5
BRANCH   3  14
ATOM     14  C   UNL     1      32.624  22.226  13.410  0.00  0.00    +0.108 C 
BRANCH  14  15
ATOM     15  C   UNL     1      31.467  21.231  13.621  0.00  0.00    +0.011 C 
ATOM     16  C   UNL     1      31.079  21.047  15.085  0.00  0.00    +0.033 C 
ATOM     17  C   UNL     1      32.253  20.506  15.887  0.00  0.00    +0.161 C 
ATOM     18  O   UNL     1      32.889  19.382  15.285  0.00  0.00    -0.373 OA
ATOM     19  C   UNL     1      33.064  19.285  13.841  0.00  0.00    +0.070 C 
ATOM     20  C   UNL     1      34.434  19.736  13.226  0.00  0.00    +0.035 C 
ATOM     21  C   UNL     1      34.959  18.318  13.452  0.00  0.00    +0.006 C 
ATOM     22  C   UNL     1      33.495  17.838  13.420  0.00  0.00    +0.035 C 
ATOM     23  C   UNL     1      31.843  19.832  13.091  0.00  0.00    +0.040 C 
ENDBRANCH  14  15
ENDBRANCH   3  14
TORSDOF 5
ENDMDL
MODEL 4
REMARK VINA RESULT:      -6.0      2.354      6.832
REMARK  Name = ZINC000560333501
REMARK  5 active torsions:
REMARK  status: ('A' for Active; 'I' for Inactive)
REMARK    1  A    between atoms: C_2  and  C_3
REMARK    2  A    between atoms: C_7  and  C_8
REMARK    3  A    between atoms: C_8  and  C_9
REMARK    4  A    between atoms: N_11  and  C_12
REMARK    5  A    between atoms: C_12  and  C_13
REMARK                            x       y       z     vdW  Elec       q    Type
REMARK                         _______ _______ _______ _____ _____    ______ ____
ROOT
ATOM      1  C   UNL     1      32.020  23.691  11.562  0.00  0.00    +0.217 C 
ATOM      2  O   UNL     1      31.538  24.437  12.419  0.00  0.00    -0.275 OA
ATOM      3  N   UNL     1      32.485  22.418  11.842  0.00  0.00    -0.315 N 
ATOM      4  H   UNL     1      32.575  21.795  11.048  0.00  0.00    +0.149 HD
ENDROOT
BRANCH   1   5
ATOM      5  C   UNL     1      32.138  24.138  10.124  0.00  0.00    +0.131 C 
BRANCH   5  10
ATOM      6  C   UNL     1      35.034  23.218   7.785  0.00  0.00    +0.052 A 
ATOM      7  C   UNL     1      36.072  23.979   8.334  0.00  0.00    +0.019 A 
ATOM      8  C   UNL     1      35.838  24.761   9.465  0.00  0.00    +0.002 A 
ATOM      9  C   UNL     1      34.572  24.783  10.053  0.00  0.00    +0.004 A 
ATOM     10  C   UNL     1      33.521  24.022   9.521  0.00  0.00    -0.037 A 
ATOM     11  C   UNL     1      33.763  23.245   8.375  0.00  0.00    +0.023 A 
BRANCH   6  13
ATOM     12  N   UNL     1      35.455  21.795   5.657  0.00  0.00    -0.191 NA
ATOM     13  C   UNL     1      35.270  22.430   6.611  0.00  0.00    +0.099 C 
ENDBRANCH   6  13
ENDBRANCH   5  10
ENDBRANCH   1   5
BRANCH   3  14
ATOM     14  C   UNL     1      32.105  21.812  13.106  0.00  0.00    +0.108 C 
BRANCH  14  15
ATOM     15  C   UNL     1      33.029  20.702  13.640  0.00  0.00    +0.011 C 
ATOM     16  C   UNL     1      32.298  19.640  14.457  0.00  0.00    +0.033 C 
ATOM     17  C   UNL     1      31.635  20.262  15.676  0.00  0.00    +0.161 C 
ATOM     18  O   UNL     1      32.499  21.113  16.426  0.00  0.00    -0.373 OA
ATOM     19  C   UNL     1      33.473  21.979  15.776  0.00  0.00    +0.070 C 
ATOM     20  C   UNL     1      33.080  23.474  15.513  0.00  0.00    +0.035 C 
ATOM     21  C   UNL     1      33.606  23.818  16.906  0.00  0.00    +0.006 C 
ATOM     22  C   UNL     1      34.494  22.562  16.813  0.00  0.00    +0.035 C 
ATOM     23  C   UNL     1      34.116  21.290  14.565  0.00  0.00    +0.040 C 
ENDBRANCH  14  15
ENDBRANCH   3  14
TORSDOF 5
ENDMDL
MODEL 5
REMARK VINA RESULT:      -6.0      3.609      5.814
REMARK  Name = ZINC000560333501
REMARK  5 active torsions:
REMARK  status: ('A' for Active; 'I' for Inactive)
REMARK    1  A    between atoms: C_2  and  C_3
REMARK    2  A    between atoms: C_7  and  C_8
REMARK    3  A    between atoms: C_8  and  C_9
REMARK    4  A    between atoms: N_11  and  C_12
REMARK    5  A    between atoms: C_12  and  C_13
REMARK                            x       y       z     vdW  Elec       q    Type
REMARK                         _______ _______ _______ _____ _____    ______ ____
ROOT
ATOM      1  C   UNL     1      34.019  19.719  16.689  0.00  0.00    +0.217 C 
ATOM      2  O   UNL     1      33.670  19.025  15.730  0.00  0.00    -0.275 OA
ATOM      3  N   UNL     1      34.119  21.098  16.629  0.00  0.00    -0.315 N 
ATOM      4  H   UNL     1      34.116  21.581  17.518  0.00  0.00    +0.149 HD
ENDROOT
BRANCH   1   5
ATOM      5  C   UNL     1      34.369  19.087  18.015  0.00  0.00    +0.131 C 
BRANCH   5  10
ATOM      6  C   UNL     1      36.664  16.026  17.763  0.00  0.00    +0.052 A 
ATOM      7  C   UNL     1      37.924  16.631  17.825  0.00  0.00    +0.019 A 
ATOM      8  C   UNL     1      38.024  18.014  17.972  0.00  0.00    +0.002 A 
ATOM      9  C   UNL     1      36.871  18.795  18.061  0.00  0.00    +0.004 A 
ATOM     10  C   UNL     1      35.600  18.206  18.008  0.00  0.00    -0.037 A 
ATOM     11  C   UNL     1      35.507  16.813  17.849  0.00  0.00    +0.023 A 
BRANCH   6  13
ATOM     12  N   UNL     1      36.479  13.457  17.445  0.00  0.00    -0.191 NA
ATOM     13  C   UNL     1      36.562  14.606  17.592  0.00  0.00    +0.099 C 
ENDBRANCH   6  13
ENDBRANCH   5  10
ENDBRANCH   1   5
BRANCH   3  14
ATOM     14  C   UNL     1      33.491  21.783  15.513  0.00  0.00    +0.108 C 
BRANCH  14  15
ATOM     15  C   UNL     1      32.121  22.431  15.788  0.00  0.00    +0.011 C 
ATOM     16  C   UNL     1      30.948  21.468  15.629  0.00  0.00    +0.033 C 
ATOM     17  C   UNL     1      30.883  20.931  14.207  0.00  0.00    +0.161 C 
ATOM     18  O   UNL     1      30.975  21.942  13.208  0.00  0.00    -0.373 OA
ATOM     19  C   UNL     1      31.851  23.096  13.364  0.00  0.00    +0.070 C 
ATOM     20  C   UNL     1      33.274  23.043  12.707  0.00  0.00    +0.035 C 
ATOM     21  C   UNL     1      32.659  23.602  11.423  0.00  0.00    +0.006 C 
ATOM     22  C   UNL     1      31.535  24.196  12.294  0.00  0.00    +0.035 C 
ATOM     23  C   UNL     1      31.861  23.599  14.813  0.00  0.00    +0.040 C 
ENDBRANCH  14  15
ENDBRANCH   3  14
TORSDOF 5
ENDMDL
MODEL 6
REMARK VINA RESULT:      -5.9      1.420      1.932
REMARK  Name = ZINC000560333501
REMARK  5 active torsions:
REMARK  status: ('A' for Active; 'I' for Inactive)
REMARK    1  A    between atoms: C_2  and  C_3
REMARK    2  A    between atoms: C_7  and  C_8
REMARK    3  A    between atoms: C_8  and  C_9
REMARK    4  A    between atoms: N_11  and  C_12
REMARK    5  A    between atoms: C_12  and  C_13
REMARK                            x       y       z     vdW  Elec       q    Type
REMARK                         _______ _______ _______ _____ _____    ______ ____
ROOT
ATOM      1  C   UNL     1      31.563  23.163  12.742  0.00  0.00    +0.217 C 
ATOM      2  O   UNL     1      31.440  24.303  13.199  0.00  0.00    -0.275 OA
ATOM      3  N   UNL     1      32.215  22.892  11.552  0.00  0.00    -0.315 N 
ATOM      4  H   UNL     1      32.519  21.934  11.422  0.00  0.00    +0.149 HD
ENDROOT
BRANCH   1   5
ATOM      5  C   UNL     1      30.993  21.970  13.472  0.00  0.00    +0.131 C 
BRANCH   5  10
ATOM      6  C   UNL     1      33.704  20.157  15.488  0.00  0.00    +0.052 A 
ATOM      7  C   UNL     1      33.751  18.925  14.824  0.00  0.00    +0.019 A 
ATOM      8  C   UNL     1      32.929  18.698  13.721  0.00  0.00    +0.002 A 
ATOM      9  C   UNL     1      32.063  19.698  13.274  0.00  0.00    +0.004 A 
ATOM     10  C   UNL     1      32.007  20.940  13.921  0.00  0.00    -0.037 A 
ATOM     11  C   UNL     1      32.831  21.157  15.039  0.00  0.00    +0.023 A 
BRANCH   6  13
ATOM     12  N   UNL     1      35.210  20.556  17.562  0.00  0.00    -0.191 NA
ATOM     13  C   UNL     1      34.535  20.382  16.633  0.00  0.00    +0.099 C 
ENDBRANCH   6  13
ENDBRANCH   5  10
ENDBRANCH   1   5
BRANCH   3  14
ATOM     14  C   UNL     1      33.058  23.926  10.980  0.00  0.00    +0.108 C 
BRANCH  14  15
ATOM     15  C   UNL     1      34.562  23.841  11.302  0.00  0.00    +0.011 C 
ATOM     16  C   UNL     1      35.322  25.132  11.010  0.00  0.00    +0.033 C 
ATOM     17  C   UNL     1      35.224  25.492   9.536  0.00  0.00    +0.161 C 
ATOM     18  O   UNL     1      35.519  24.407   8.660  0.00  0.00    -0.373 OA
ATOM     19  C   UNL     1      35.105  23.044   8.965  0.00  0.00    +0.070 C 
ATOM     20  C   UNL     1      33.771  22.513   8.334  0.00  0.00    +0.035 C 
ATOM     21  C   UNL     1      34.573  22.067   7.111  0.00  0.00    +0.006 C 
ATOM     22  C   UNL     1      35.814  22.013   8.022  0.00  0.00    +0.035 C 
ATOM     23  C   UNL     1      35.241  22.738  10.462  0.00  0.00    +0.040 C 
ENDBRANCH  14  15
ENDBRANCH   3  14
TORSDOF 5
ENDMDL
MODEL 7
REMARK VINA RESULT:      -5.9      2.180      6.889
REMARK  Name = ZINC000560333501
REMARK  5 active torsions:
REMARK  status: ('A' for Active; 'I' for Inactive)
REMARK    1  A    between atoms: C_2  and  C_3
REMARK    2  A    between atoms: C_7  and  C_8
REMARK    3  A    between atoms: C_8  and  C_9
REMARK    4  A    between atoms: N_11  and  C_12
REMARK    5  A    between atoms: C_12  and  C_13
REMARK                            x       y       z     vdW  Elec       q    Type
REMARK                         _______ _______ _______ _____ _____    ______ ____
ROOT
ATOM      1  C   UNL     1      32.866  22.568  11.932  0.00  0.00    +0.217 C 
ATOM      2  O   UNL     1      33.911  21.919  12.018  0.00  0.00    -0.275 OA
ATOM      3  N   UNL     1      31.693  22.204  12.571  0.00  0.00    -0.315 N 
ATOM      4  H   UNL     1      31.004  22.937  12.683  0.00  0.00    +0.149 HD
ENDROOT
BRANCH   1   5
ATOM      5  C   UNL     1      32.803  23.828  11.101  0.00  0.00    +0.131 C 
BRANCH   5  10
ATOM      6  C   UNL     1      35.140  23.584   8.072  0.00  0.00    +0.052 A 
ATOM      7  C   UNL     1      36.057  24.602   8.359  0.00  0.00    +0.019 A 
ATOM      8  C   UNL     1      35.929  25.340   9.535  0.00  0.00    +0.002 A 
ATOM      9  C   UNL     1      34.892  25.064  10.428  0.00  0.00    +0.004 A 
ATOM     10  C   UNL     1      33.969  24.043  10.161  0.00  0.00    -0.037 A 
ATOM     11  C   UNL     1      34.098  23.311   8.969  0.00  0.00    +0.023 A 
BRANCH   6  13
ATOM     12  N   UNL     1      35.360  22.242   5.863  0.00  0.00    -0.191 NA
ATOM     13  C   UNL     1      35.261  22.838   6.854  0.00  0.00    +0.099 C 
ENDBRANCH   6  13
ENDBRANCH   5  10
ENDBRANCH   1   5
BRANCH   3  14
ATOM     14  C   UNL     1      31.769  21.213  13.629  0.00  0.00    +0.108 C 
BRANCH  14  15
ATOM     15  C   UNL     1      31.375  21.686  15.042  0.00  0.00    +0.011 C 
ATOM     16  C   UNL     1      32.029  23.003  15.449  0.00  0.00    +0.033 C 
ATOM     17  C   UNL     1      33.545  22.870  15.455  0.00  0.00    +0.161 C 
ATOM     18  O   UNL     1      34.017  21.720  16.152  0.00  0.00    -0.373 OA
ATOM     19  C   UNL     1      33.312  20.446  16.092  0.00  0.00    +0.070 C 
ATOM     20  C   UNL     1      33.797  19.376  15.052  0.00  0.00    +0.035 C 
ATOM     21  C   UNL     1      34.779  18.858  16.102  0.00  0.00    +0.006 C 
ATOM     22  C   UNL     1      33.848  19.451  17.177  0.00  0.00    +0.035 C 
ATOM     23  C   UNL     1      31.791  20.646  16.104  0.00  0.00    +0.040 C 
ENDBRANCH  14  15
ENDBRANCH   3  14
TORSDOF 5
ENDMDL
MODEL 8
REMARK VINA RESULT:      -5.9      5.142      7.338
REMARK  Name = ZINC000560333501
REMARK  5 active torsions:
REMARK  status: ('A' for Active; 'I' for Inactive)
REMARK    1  A    between atoms: C_2  and  C_3
REMARK    2  A    between atoms: C_7  and  C_8
REMARK    3  A    between atoms: C_8  and  C_9
REMARK    4  A    between atoms: N_11  and  C_12
REMARK    5  A    between atoms: C_12  and  C_13
REMARK                            x       y       z     vdW  Elec       q    Type
REMARK                         _______ _______ _______ _____ _____    ______ ____
ROOT
ATOM      1  C   UNL     1      35.702  22.880  16.071  0.00  0.00    +0.217 C 
ATOM      2  O   UNL     1      35.626  21.955  16.884  0.00  0.00    -0.275 OA
ATOM      3  N   UNL     1      34.983  22.909  14.888  0.00  0.00    -0.315 N 
ATOM      4  H   UNL     1      34.885  23.818  14.452  0.00  0.00    +0.149 HD
ENDROOT
BRANCH   1   5
ATOM      5  C   UNL     1      36.608  24.061  16.324  0.00  0.00    +0.131 C 
BRANCH   5  10
ATOM      6  C   UNL     1      36.274  27.199  18.502  0.00  0.00    +0.052 A 
ATOM      7  C   UNL     1      34.898  27.201  18.758  0.00  0.00    +0.019 A 
ATOM      8  C   UNL     1      34.095  26.181  18.249  0.00  0.00    +0.002 A 
ATOM      9  C   UNL     1      34.661  25.156  17.488  0.00  0.00    +0.004 A 
ATOM     10  C   UNL     1      36.038  25.133  17.227  0.00  0.00    -0.037 A 
ATOM     11  C   UNL     1      36.839  26.171  17.735  0.00  0.00    +0.023 A 
BRANCH   6  13
ATOM     12  N   UNL     1      37.755  29.123  19.416  0.00  0.00    -0.191 NA
ATOM     13  C   UNL     1      37.095  28.259  19.009  0.00  0.00    +0.099 C 
ENDBRANCH   6  13
ENDBRANCH   5  10
ENDBRANCH   1   5
BRANCH   3  14
ATOM     14  C   UNL     1      33.868  21.991  14.741  0.00  0.00    +0.108 C 
BRANCH  14  15
ATOM     15  C   UNL     1      32.541  22.412  15.402  0.00  0.00    +0.011 C 
ATOM     16  C   UNL     1      31.486  21.309  15.408  0.00  0.00    +0.033 C 
ATOM     17  C   UNL     1      31.138  20.891  13.988  0.00  0.00    +0.161 C 
ATOM     18  O   UNL     1      30.861  21.987  13.119  0.00  0.00    -0.373 OA
ATOM     19  C   UNL     1      31.606  23.236  13.202  0.00  0.00    +0.070 C 
ATOM     20  C   UNL     1      32.820  23.442  12.230  0.00  0.00    +0.035 C 
ATOM     21  C   UNL     1      31.847  24.015  11.199  0.00  0.00    +0.006 C 
ATOM     22  C   UNL     1      30.910  24.366  12.370  0.00  0.00    +0.035 C 
ATOM     23  C   UNL     1      31.914  23.610  14.658  0.00  0.00    +0.040 C 
ENDBRANCH  14  15
ENDBRANCH   3  14
TORSDOF 5
ENDMDL
MODEL 9
REMARK VINA RESULT:      -5.8      0.869      2.253
REMARK  Name = ZINC000560333501
REMARK  5 active torsions:
REMARK  status: ('A' for Active; 'I' for Inactive)
REMARK    1  A    between atoms: C_2  and  C_3
REMARK    2  A    between atoms: C_7  and  C_8
REMARK    3  A    between atoms: C_8  and  C_9
REMARK    4  A    between atoms: N_11  and  C_12
REMARK    5  A    between atoms: C_12  and  C_13
REMARK                            x       y       z     vdW  Elec       q    Type
REMARK                         _______ _______ _______ _____ _____    ______ ____
ROOT
ATOM      1  C   UNL     1      31.614  22.960  12.918  0.00  0.00    +0.217 C 
ATOM      2  O   UNL     1      31.791  23.958  13.621  0.00  0.00    -0.275 OA
ATOM      3  N   UNL     1      32.026  22.881  11.599  0.00  0.00    -0.315 N 
ATOM      4  H   UNL     1      32.107  21.947  11.215  0.00  0.00    +0.149 HD
ENDROOT
BRANCH   1   5
ATOM      5  C   UNL     1      30.917  21.738  13.467  0.00  0.00    +0.131 C 
BRANCH   5  10
ATOM      6  C   UNL     1      33.254  18.749  14.022  0.00  0.00    +0.052 A 
ATOM      7  C   UNL     1      33.635  18.952  15.354  0.00  0.00    +0.019 A 
ATOM      8  C   UNL     1      33.118  20.033  16.067  0.00  0.00    +0.002 A 
ATOM      9  C   UNL     1      32.219  20.910  15.459  0.00  0.00    +0.004 A 
ATOM     10  C   UNL     1      31.820  20.719  14.128  0.00  0.00    -0.037 A 
ATOM     11  C   UNL     1      32.354  19.634  13.413  0.00  0.00    +0.023 A 
BRANCH   6  13
ATOM     12  N   UNL     1      34.237  16.754  12.688  0.00  0.00    -0.191 NA
ATOM     13  C   UNL     1      33.801  17.649  13.284  0.00  0.00    +0.099 C 
ENDBRANCH   6  13
ENDBRANCH   5  10
ENDBRANCH   1   5
BRANCH   3  14
ATOM     14  C   UNL     1      32.978  23.867  11.118  0.00  0.00    +0.108 C 
BRANCH  14  15
ATOM     15  C   UNL     1      33.213  23.909   9.596  0.00  0.00    +0.011 C 
ATOM     16  C   UNL     1      33.636  22.567   9.007  0.00  0.00    +0.033 C 
ATOM     17  C   UNL     1      34.946  22.098   9.624  0.00  0.00    +0.161 C 
ATOM     18  O   UNL     1      35.961  23.099   9.641  0.00  0.00    -0.373 OA
ATOM     19  C   UNL     1      35.652  24.499   9.901  0.00  0.00    +0.070 C 
ATOM     20  C   UNL     1      35.820  25.038  11.364  0.00  0.00    +0.035 C 
ATOM     21  C   UNL     1      37.280  25.352  11.039  0.00  0.00    +0.006 C 
ATOM     22  C   UNL     1      36.871  25.421   9.556  0.00  0.00    +0.035 C 
ATOM     23  C   UNL     1      34.330  24.912   9.241  0.00  0.00    +0.040 C 
ENDBRANCH  14  15
ENDBRANCH   3  14
TORSDOF 5
ENDMDL
