MODEL 1
REMARK VINA RESULT:      -6.6      0.000      0.000
REMARK  Name = ZINC000329563636
REMARK  3 active torsions:
REMARK  status: ('A' for Active; 'I' for Inactive)
REMARK    1  A    between atoms: C_1  and  C_2
REMARK    2  A    between atoms: C_2  and  N_3
REMARK    3  A    between atoms: N_9  and  C_10
REMARK                            x       y       z     vdW  Elec       q    Type
REMARK                         _______ _______ _______ _____ _____    ______ ____
ROOT
ATOM      1  C   UNL     1      33.147  16.600  14.001  0.00  0.00    +0.112 C 
ATOM      2  C   UNL     1      31.802  15.894  13.794  0.00  0.00    +0.075 C 
ATOM      3  C   UNL     1      31.740  14.967  12.571  0.00  0.00    +0.113 C 
ATOM      4  C   UNL     1      32.292  13.537  12.811  0.00  0.00    +0.048 C 
ATOM      5  C   UNL     1      31.092  12.599  12.749  0.00  0.00    +0.004 C 
ATOM      6  C   UNL     1      30.140  13.288  11.791  0.00  0.00    +0.004 C 
ATOM      7  C   UNL     1      30.251  14.748  12.196  0.00  0.00    +0.048 C 
ATOM      8  O   UNL     1      32.382  15.551  11.421  0.00  0.00    -0.485 OA
ATOM      9  C   UNL     1      33.690  15.888  11.652  0.00  0.00    +0.126 A 
ATOM     10  C   UNL     1      34.587  15.733  10.597  0.00  0.00    +0.046 A 
ATOM     11  C   UNL     1      35.941  16.021  10.783  0.00  0.00    +0.004 A 
ATOM     12  C   UNL     1      36.390  16.486  12.017  0.00  0.00    +0.001 A 
ATOM     13  C   UNL     1      35.482  16.671  13.061  0.00  0.00    +0.009 A 
ATOM     14  C   UNL     1      34.122  16.371  12.885  0.00  0.00    +0.015 A 
ENDROOT
BRANCH   1  21
ATOM     15  N   UNL     1      33.583  22.755  15.351  0.00  0.00    -0.299 N 
ATOM     16  C   UNL     1      34.001  21.840  16.412  0.00  0.00    +0.127 C 
ATOM     17  C   UNL     1      32.975  20.735  16.637  0.00  0.00    +0.129 C 
ATOM     18  N   UNL     1      32.795  20.003  15.391  0.00  0.00    -0.275 N 
ATOM     19  C   UNL     1      33.094  18.659  15.359  0.00  0.00    +0.303 C 
ATOM     20  O   UNL     1      33.511  18.052  16.344  0.00  0.00    -0.253 OA
ATOM     21  N   UNL     1      32.930  18.039  14.156  0.00  0.00    -0.292 N 
ATOM     22  C   UNL     1      32.375  20.833  14.259  0.00  0.00    +0.205 C 
ATOM     23  C   UNL     1      32.864  22.298  14.249  0.00  0.00    +0.233 C 
ATOM     24  O   UNL     1      32.584  23.031  13.297  0.00  0.00    -0.274 OA
ATOM     25  H   UNL     1      32.278  18.440  13.501  0.00  0.00    +0.151 HD
BRANCH  15  27
ATOM     26  C   UNL     1      34.279  24.757  16.637  0.00  0.00    +0.024 C 
ATOM     27  C   UNL     1      34.220  24.066  15.283  0.00  0.00    +0.104 C 
ENDBRANCH  15  27
ENDBRANCH   1  21
TORSDOF 2
ENDMDL
MODEL 2
REMARK VINA RESULT:      -6.5      2.220      8.400
REMARK  Name = ZINC000329563636
REMARK  3 active torsions:
REMARK  status: ('A' for Active; 'I' for Inactive)
REMARK    1  A    between atoms: C_1  and  C_2
REMARK    2  A    between atoms: C_2  and  N_3
REMARK    3  A    between atoms: N_9  and  C_10
REMARK                            x       y       z     vdW  Elec       q    Type
REMARK                         _______ _______ _______ _____ _____    ______ ____
ROOT
ATOM      1  C   UNL     1      34.695  21.263  16.162  0.00  0.00    +0.112 C 
ATOM      2  C   UNL     1      35.421  22.606  16.032  0.00  0.00    +0.075 C 
ATOM      3  C   UNL     1      34.538  23.843  16.251  0.00  0.00    +0.113 C 
ATOM      4  C   UNL     1      34.346  24.251  17.735  0.00  0.00    +0.048 C 
ATOM      5  C   UNL     1      35.085  25.572  17.914  0.00  0.00    +0.004 C 
ATOM      6  C   UNL     1      34.996  26.228  16.550  0.00  0.00    +0.004 C 
ATOM      7  C   UNL     1      35.236  25.066  15.601  0.00  0.00    +0.048 C 
ATOM      8  O   UNL     1      33.252  23.704  15.614  0.00  0.00    -0.485 OA
ATOM      9  C   UNL     1      32.566  22.593  16.030  0.00  0.00    +0.126 A 
ATOM     10  C   UNL     1      31.180  22.698  16.135  0.00  0.00    +0.046 A 
ATOM     11  C   UNL     1      30.430  21.613  16.593  0.00  0.00    +0.004 A 
ATOM     12  C   UNL     1      31.066  20.418  16.921  0.00  0.00    +0.001 A 
ATOM     13  C   UNL     1      32.450  20.307  16.783  0.00  0.00    +0.009 A 
ATOM     14  C   UNL     1      33.212  21.398  16.336  0.00  0.00    +0.015 A 
ENDROOT
BRANCH   1  21
ATOM     15  N   UNL     1      35.065  16.662  11.848  0.00  0.00    -0.299 N 
ATOM     16  C   UNL     1      35.288  16.254  13.235  0.00  0.00    +0.127 C 
ATOM     17  C   UNL     1      36.271  17.181  13.941  0.00  0.00    +0.129 C 
ATOM     18  N   UNL     1      35.747  18.538  13.901  0.00  0.00    -0.275 N 
ATOM     19  C   UNL     1      35.478  19.183  15.087  0.00  0.00    +0.303 C 
ATOM     20  O   UNL     1      35.660  18.655  16.183  0.00  0.00    -0.253 OA
ATOM     21  N   UNL     1      34.963  20.441  14.980  0.00  0.00    -0.292 N 
ATOM     22  C   UNL     1      35.487  19.045  12.550  0.00  0.00    +0.205 C 
ATOM     23  C   UNL     1      35.071  18.007  11.485  0.00  0.00    +0.233 C 
ATOM     24  O   UNL     1      34.791  18.380  10.343  0.00  0.00    -0.274 OA
ATOM     25  H   UNL     1      35.156  20.962  14.139  0.00  0.00    +0.151 HD
BRANCH  15  27
ATOM     26  C   UNL     1      33.220  15.050  11.467  0.00  0.00    +0.024 C 
ATOM     27  C   UNL     1      34.494  15.685  10.928  0.00  0.00    +0.104 C 
ENDBRANCH  15  27
ENDBRANCH   1  21
TORSDOF 2
ENDMDL
MODEL 3
REMARK VINA RESULT:      -6.4      2.442      7.785
REMARK  Name = ZINC000329563636
REMARK  3 active torsions:
REMARK  status: ('A' for Active; 'I' for Inactive)
REMARK    1  A    between atoms: C_1  and  C_2
REMARK    2  A    between atoms: C_2  and  N_3
REMARK    3  A    between atoms: N_9  and  C_10
REMARK                            x       y       z     vdW  Elec       q    Type
REMARK                         _______ _______ _______ _____ _____    ______ ____
ROOT
ATOM      1  C   UNL     1      33.795  19.285  14.444  0.00  0.00    +0.112 C 
ATOM      2  C   UNL     1      32.600  20.245  14.425  0.00  0.00    +0.075 C 
ATOM      3  C   UNL     1      32.229  20.843  15.790  0.00  0.00    +0.113 C 
ATOM      4  C   UNL     1      33.048  22.097  16.194  0.00  0.00    +0.048 C 
ATOM      5  C   UNL     1      32.077  23.271  16.162  0.00  0.00    +0.004 C 
ATOM      6  C   UNL     1      30.738  22.647  16.506  0.00  0.00    +0.004 C 
ATOM      7  C   UNL     1      30.763  21.345  15.723  0.00  0.00    +0.048 C 
ATOM      8  O   UNL     1      32.290  19.860  16.842  0.00  0.00    -0.485 OA
ATOM      9  C   UNL     1      33.518  19.261  16.943  0.00  0.00    +0.126 A 
ATOM     10  C   UNL     1      33.965  18.927  18.221  0.00  0.00    +0.046 A 
ATOM     11  C   UNL     1      35.226  18.352  18.392  0.00  0.00    +0.004 A 
ATOM     12  C   UNL     1      36.027  18.089  17.283  0.00  0.00    +0.001 A 
ATOM     13  C   UNL     1      35.562  18.395  16.003  0.00  0.00    +0.009 A 
ATOM     14  C   UNL     1      34.301  18.986  15.824  0.00  0.00    +0.015 A 
ENDROOT
BRANCH   1  21
ATOM     15  N   UNL     1      33.734  13.662  11.567  0.00  0.00    -0.299 N 
ATOM     16  C   UNL     1      34.731  14.615  11.080  0.00  0.00    +0.127 C 
ATOM     17  C   UNL     1      34.117  15.987  10.825  0.00  0.00    +0.129 C 
ATOM     18  N   UNL     1      33.528  16.473  12.064  0.00  0.00    -0.275 N 
ATOM     19  C   UNL     1      34.004  17.642  12.615  0.00  0.00    +0.303 C 
ATOM     20  O   UNL     1      34.914  18.291  12.100  0.00  0.00    -0.253 OA
ATOM     21  N   UNL     1      33.429  18.028  13.789  0.00  0.00    -0.292 N 
ATOM     22  C   UNL     1      32.511  15.586  12.638  0.00  0.00    +0.205 C 
ATOM     23  C   UNL     1      32.688  14.073  12.391  0.00  0.00    +0.233 C 
ATOM     24  O   UNL     1      31.893  13.273  12.891  0.00  0.00    -0.274 OA
ATOM     25  H   UNL     1      32.495  17.705  13.988  0.00  0.00    +0.151 HD
BRANCH  15  27
ATOM     26  C   UNL     1      34.943  11.912  10.292  0.00  0.00    +0.024 C 
ATOM     27  C   UNL     1      34.041  12.238  11.473  0.00  0.00    +0.104 C 
ENDBRANCH  15  27
ENDBRANCH   1  21
TORSDOF 2
ENDMDL
MODEL 4
REMARK VINA RESULT:      -6.3      4.649      8.513
REMARK  Name = ZINC000329563636
REMARK  3 active torsions:
REMARK  status: ('A' for Active; 'I' for Inactive)
REMARK    1  A    between atoms: C_1  and  C_2
REMARK    2  A    between atoms: C_2  and  N_3
REMARK    3  A    between atoms: N_9  and  C_10
REMARK                            x       y       z     vdW  Elec       q    Type
REMARK                         _______ _______ _______ _____ _____    ______ ____
ROOT
ATOM      1  C   UNL     1      35.087  22.692  14.130  0.00  0.00    +0.112 C 
ATOM      2  C   UNL     1      35.211  23.961  14.981  0.00  0.00    +0.075 C 
ATOM      3  C   UNL     1      34.360  23.970  16.258  0.00  0.00    +0.113 C 
ATOM      4  C   UNL     1      35.008  23.261  17.477  0.00  0.00    +0.048 C 
ATOM      5  C   UNL     1      35.335  24.356  18.485  0.00  0.00    +0.004 C 
ATOM      6  C   UNL     1      34.275  25.411  18.235  0.00  0.00    +0.004 C 
ATOM      7  C   UNL     1      34.180  25.440  16.718  0.00  0.00    +0.048 C 
ATOM      8  O   UNL     1      33.041  23.437  16.029  0.00  0.00    -0.485 OA
ATOM      9  C   UNL     1      33.059  22.164  15.521  0.00  0.00    +0.126 A 
ATOM     10  C   UNL     1      32.050  21.295  15.932  0.00  0.00    +0.046 A 
ATOM     11  C   UNL     1      32.039  19.974  15.482  0.00  0.00    +0.004 A 
ATOM     12  C   UNL     1      33.024  19.532  14.600  0.00  0.00    +0.001 A 
ATOM     13  C   UNL     1      34.013  20.414  14.165  0.00  0.00    +0.009 A 
ATOM     14  C   UNL     1      34.038  21.741  14.625  0.00  0.00    +0.015 A 
ENDROOT
BRANCH   1  21
ATOM     15  N   UNL     1      34.931  23.286   7.843  0.00  0.00    -0.299 N 
ATOM     16  C   UNL     1      36.262  23.279   8.449  0.00  0.00    +0.127 C 
ATOM     17  C   UNL     1      36.341  24.225   9.642  0.00  0.00    +0.129 C 
ATOM     18  N   UNL     1      35.346  23.824  10.624  0.00  0.00    -0.275 N 
ATOM     19  C   UNL     1      35.764  23.445  11.880  0.00  0.00    +0.303 C 
ATOM     20  O   UNL     1      36.951  23.429  12.203  0.00  0.00    -0.253 OA
ATOM     21  N   UNL     1      34.785  23.055  12.745  0.00  0.00    -0.292 N 
ATOM     22  C   UNL     1      33.971  23.798  10.116  0.00  0.00    +0.205 C 
ATOM     23  C   UNL     1      33.788  23.453   8.622  0.00  0.00    +0.233 C 
ATOM     24  O   UNL     1      32.652  23.367   8.148  0.00  0.00    -0.274 OA
ATOM     25  H   UNL     1      33.852  23.405  12.594  0.00  0.00    +0.151 HD
BRANCH  15  27
ATOM     26  C   UNL     1      34.904  21.255   6.421  0.00  0.00    +0.024 C 
ATOM     27  C   UNL     1      34.791  22.772   6.485  0.00  0.00    +0.104 C 
ENDBRANCH  15  27
ENDBRANCH   1  21
TORSDOF 2
ENDMDL
MODEL 5
REMARK VINA RESULT:      -6.1      4.444      6.300
REMARK  Name = ZINC000329563636
REMARK  3 active torsions:
REMARK  status: ('A' for Active; 'I' for Inactive)
REMARK    1  A    between atoms: C_1  and  C_2
REMARK    2  A    between atoms: C_2  and  N_3
REMARK    3  A    between atoms: N_9  and  C_10
REMARK                            x       y       z     vdW  Elec       q    Type
REMARK                         _______ _______ _______ _____ _____    ______ ____
ROOT
ATOM      1  C   UNL     1      34.688  19.987  13.181  0.00  0.00    +0.112 C 
ATOM      2  C   UNL     1      33.785  20.734  14.168  0.00  0.00    +0.075 C 
ATOM      3  C   UNL     1      32.871  19.837  15.016  0.00  0.00    +0.113 C 
ATOM      4  C   UNL     1      33.536  19.249  16.288  0.00  0.00    +0.048 C 
ATOM      5  C   UNL     1      32.858  19.923  17.475  0.00  0.00    +0.004 C 
ATOM      6  C   UNL     1      31.457  20.219  16.977  0.00  0.00    +0.004 C 
ATOM      7  C   UNL     1      31.700  20.699  15.555  0.00  0.00    +0.048 C 
ATOM      8  O   UNL     1      32.287  18.775  14.235  0.00  0.00    -0.485 OA
ATOM      9  C   UNL     1      33.224  17.990  13.616  0.00  0.00    +0.126 A 
ATOM     10  C   UNL     1      32.943  16.630  13.498  0.00  0.00    +0.046 A 
ATOM     11  C   UNL     1      33.877  15.772  12.913  0.00  0.00    +0.004 A 
ATOM     12  C   UNL     1      35.078  16.280  12.425  0.00  0.00    +0.001 A 
ATOM     13  C   UNL     1      35.341  17.648  12.515  0.00  0.00    +0.009 A 
ATOM     14  C   UNL     1      34.413  18.514  13.114  0.00  0.00    +0.015 A 
ENDROOT
BRANCH   1  21
ATOM     15  N   UNL     1      35.562  22.573   7.484  0.00  0.00    -0.299 N 
ATOM     16  C   UNL     1      36.346  23.154   8.573  0.00  0.00    +0.127 C 
ATOM     17  C   UNL     1      35.481  23.447   9.794  0.00  0.00    +0.129 C 
ATOM     18  N   UNL     1      34.858  22.209  10.235  0.00  0.00    -0.275 N 
ATOM     19  C   UNL     1      35.130  21.740  11.501  0.00  0.00    +0.303 C 
ATOM     20  O   UNL     1      35.884  22.328  12.274  0.00  0.00    -0.253 OA
ATOM     21  N   UNL     1      34.537  20.561  11.843  0.00  0.00    -0.292 N 
ATOM     22  C   UNL     1      34.045  21.544   9.212  0.00  0.00    +0.205 C 
ATOM     23  C   UNL     1      34.489  21.723   7.744  0.00  0.00    +0.233 C 
ATOM     24  O   UNL     1      33.874  21.148   6.843  0.00  0.00    -0.274 OA
ATOM     25  H   UNL     1      33.687  20.302  11.367  0.00  0.00    +0.151 HD
BRANCH  15  27
ATOM     26  C   UNL     1      35.931  23.960   5.462  0.00  0.00    +0.024 C 
ATOM     27  C   UNL     1      36.122  22.610   6.138  0.00  0.00    +0.104 C 
ENDBRANCH  15  27
ENDBRANCH   1  21
TORSDOF 2
ENDMDL
MODEL 6
REMARK VINA RESULT:      -6.0      3.614      6.739
REMARK  Name = ZINC000329563636
REMARK  3 active torsions:
REMARK  status: ('A' for Active; 'I' for Inactive)
REMARK    1  A    between atoms: C_1  and  C_2
REMARK    2  A    between atoms: C_2  and  N_3
REMARK    3  A    between atoms: N_9  and  C_10
REMARK                            x       y       z     vdW  Elec       q    Type
REMARK                         _______ _______ _______ _____ _____    ______ ____
ROOT
ATOM      1  C   UNL     1      34.363  21.184  16.066  0.00  0.00    +0.112 C 
ATOM      2  C   UNL     1      34.621  19.694  15.815  0.00  0.00    +0.075 C 
ATOM      3  C   UNL     1      33.358  18.837  15.654  0.00  0.00    +0.113 C 
ATOM      4  C   UNL     1      32.755  18.828  14.225  0.00  0.00    +0.048 C 
ATOM      5  C   UNL     1      32.972  17.421  13.678  0.00  0.00    +0.004 C 
ATOM      6  C   UNL     1      32.944  16.541  14.913  0.00  0.00    +0.004 C 
ATOM      7  C   UNL     1      33.732  17.356  15.925  0.00  0.00    +0.048 C 
ATOM      8  O   UNL     1      32.340  19.195  16.610  0.00  0.00    -0.485 OA
ATOM      9  C   UNL     1      31.987  20.518  16.544  0.00  0.00    +0.126 A 
ATOM     10  C   UNL     1      30.650  20.836  16.780  0.00  0.00    +0.046 A 
ATOM     11  C   UNL     1      30.221  22.161  16.686  0.00  0.00    +0.004 A 
ATOM     12  C   UNL     1      31.134  23.168  16.380  0.00  0.00    +0.001 A 
ATOM     13  C   UNL     1      32.477  22.849  16.177  0.00  0.00    +0.009 A 
ATOM     14  C   UNL     1      32.914  21.517  16.257  0.00  0.00    +0.015 A 
ENDROOT
BRANCH   1  21
ATOM     15  N   UNL     1      36.873  24.404  20.887  0.00  0.00    -0.299 N 
ATOM     16  C   UNL     1      36.798  25.120  19.614  0.00  0.00    +0.127 C 
ATOM     17  C   UNL     1      37.328  24.274  18.462  0.00  0.00    +0.129 C 
ATOM     18  N   UNL     1      36.552  23.045  18.387  0.00  0.00    -0.275 N 
ATOM     19  C   UNL     1      35.839  22.775  17.240  0.00  0.00    +0.303 C 
ATOM     20  O   UNL     1      35.831  23.537  16.274  0.00  0.00    -0.253 OA
ATOM     21  N   UNL     1      35.111  21.623  17.245  0.00  0.00    -0.292 N 
ATOM     22  C   UNL     1      36.561  22.249  19.619  0.00  0.00    +0.205 C 
ATOM     23  C   UNL     1      36.684  23.024  20.948  0.00  0.00    +0.233 C 
ATOM     24  O   UNL     1      36.648  22.414  22.019  0.00  0.00    -0.274 OA
ATOM     25  H   UNL     1      35.405  20.879  17.858  0.00  0.00    +0.151 HD
BRANCH  15  27
ATOM     26  C   UNL     1      35.978  26.454  21.956  0.00  0.00    +0.024 C 
ATOM     27  C   UNL     1      36.798  25.182  22.119  0.00  0.00    +0.104 C 
ENDBRANCH  15  27
ENDBRANCH   1  21
TORSDOF 2
ENDMDL
MODEL 7
REMARK VINA RESULT:      -5.9      4.777      8.494
REMARK  Name = ZINC000329563636
REMARK  3 active torsions:
REMARK  status: ('A' for Active; 'I' for Inactive)
REMARK    1  A    between atoms: C_1  and  C_2
REMARK    2  A    between atoms: C_2  and  N_3
REMARK    3  A    between atoms: N_9  and  C_10
REMARK                            x       y       z     vdW  Elec       q    Type
REMARK                         _______ _______ _______ _____ _____    ______ ____
ROOT
ATOM      1  C   UNL     1      34.084  22.800  10.276  0.00  0.00    +0.112 C 
ATOM      2  C   UNL     1      34.801  24.010  10.884  0.00  0.00    +0.075 C 
ATOM      3  C   UNL     1      35.701  24.784   9.911  0.00  0.00    +0.113 C 
ATOM      4  C   UNL     1      34.965  25.837   9.042  0.00  0.00    +0.048 C 
ATOM      5  C   UNL     1      35.445  27.201   9.525  0.00  0.00    +0.004 C 
ATOM      6  C   UNL     1      36.856  26.940  10.015  0.00  0.00    +0.004 C 
ATOM      7  C   UNL     1      36.721  25.611  10.739  0.00  0.00    +0.048 C 
ATOM      8  O   UNL     1      36.464  23.901   9.066  0.00  0.00    -0.485 OA
ATOM      9  C   UNL     1      35.678  23.039   8.347  0.00  0.00    +0.126 A 
ATOM     10  C   UNL     1      36.099  22.711   7.059  0.00  0.00    +0.046 A 
ATOM     11  C   UNL     1      35.320  21.870   6.262  0.00  0.00    +0.004 A 
ATOM     12  C   UNL     1      34.134  21.339   6.764  0.00  0.00    +0.001 A 
ATOM     13  C   UNL     1      33.733  21.644   8.066  0.00  0.00    +0.009 A 
ATOM     14  C   UNL     1      34.505  22.499   8.868  0.00  0.00    +0.015 A 
ENDROOT
BRANCH   1  21
ATOM     15  N   UNL     1      33.574  17.681  13.942  0.00  0.00    -0.299 N 
ATOM     16  C   UNL     1      32.702  18.802  14.290  0.00  0.00    +0.127 C 
ATOM     17  C   UNL     1      33.472  20.117  14.338  0.00  0.00    +0.129 C 
ATOM     18  N   UNL     1      34.085  20.349  13.039  0.00  0.00    -0.275 N 
ATOM     19  C   UNL     1      33.731  21.473  12.326  0.00  0.00    +0.303 C 
ATOM     20  O   UNL     1      32.912  22.289  12.745  0.00  0.00    -0.253 OA
ATOM     21  N   UNL     1      34.320  21.617  11.105  0.00  0.00    -0.292 N 
ATOM     22  C   UNL     1      34.982  19.278  12.595  0.00  0.00    +0.205 C 
ATOM     23  C   UNL     1      34.642  17.846  13.062  0.00  0.00    +0.233 C 
ATOM     24  O   UNL     1      35.331  16.897  12.680  0.00  0.00    -0.274 OA
ATOM     25  H   UNL     1      35.207  21.164  10.950  0.00  0.00    +0.151 HD
BRANCH  15  27
ATOM     26  C   UNL     1      32.068  15.836  13.253  0.00  0.00    +0.024 C 
ATOM     27  C   UNL     1      33.112  16.331  14.244  0.00  0.00    +0.104 C 
ENDBRANCH  15  27
ENDBRANCH   1  21
TORSDOF 2
ENDMDL
MODEL 8
REMARK VINA RESULT:      -5.9      2.048      8.218
REMARK  Name = ZINC000329563636
REMARK  3 active torsions:
REMARK  status: ('A' for Active; 'I' for Inactive)
REMARK    1  A    between atoms: C_1  and  C_2
REMARK    2  A    between atoms: C_2  and  N_3
REMARK    3  A    between atoms: N_9  and  C_10
REMARK                            x       y       z     vdW  Elec       q    Type
REMARK                         _______ _______ _______ _____ _____    ______ ____
ROOT
ATOM      1  C   UNL     1      34.307  19.860  15.150  0.00  0.00    +0.112 C 
ATOM      2  C   UNL     1      35.249  20.896  14.526  0.00  0.00    +0.075 C 
ATOM      3  C   UNL     1      34.786  22.354  14.660  0.00  0.00    +0.113 C 
ATOM      4  C   UNL     1      35.158  23.034  16.004  0.00  0.00    +0.048 C 
ATOM      5  C   UNL     1      36.201  24.095  15.672  0.00  0.00    +0.004 C 
ATOM      6  C   UNL     1      35.853  24.520  14.259  0.00  0.00    +0.004 C 
ATOM      7  C   UNL     1      35.515  23.201  13.584  0.00  0.00    +0.048 C 
ATOM      8  O   UNL     1      33.372  22.493  14.418  0.00  0.00    -0.485 OA
ATOM      9  C   UNL     1      32.608  21.711  15.245  0.00  0.00    +0.126 A 
ATOM     10  C   UNL     1      31.385  22.229  15.667  0.00  0.00    +0.046 A 
ATOM     11  C   UNL     1      30.582  21.497  16.543  0.00  0.00    +0.004 A 
ATOM     12  C   UNL     1      30.992  20.238  16.975  0.00  0.00    +0.001 A 
ATOM     13  C   UNL     1      32.202  19.709  16.524  0.00  0.00    +0.009 A 
ATOM     14  C   UNL     1      33.022  20.445  15.654  0.00  0.00    +0.015 A 
ENDROOT
BRANCH   1  21
ATOM     15  N   UNL     1      33.752  14.468  11.905  0.00  0.00    -0.299 N 
ATOM     16  C   UNL     1      35.068  14.727  12.488  0.00  0.00    +0.127 C 
ATOM     17  C   UNL     1      35.544  16.145  12.192  0.00  0.00    +0.129 C 
ATOM     18  N   UNL     1      34.570  17.087  12.724  0.00  0.00    -0.275 N 
ATOM     19  C   UNL     1      34.969  17.981  13.692  0.00  0.00    +0.303 C 
ATOM     20  O   UNL     1      36.118  18.013  14.128  0.00  0.00    -0.253 OA
ATOM     21  N   UNL     1      34.002  18.817  14.168  0.00  0.00    -0.292 N 
ATOM     22  C   UNL     1      33.212  16.911  12.201  0.00  0.00    +0.205 C 
ATOM     23  C   UNL     1      32.793  15.475  11.819  0.00  0.00    +0.233 C 
ATOM     24  O   UNL     1      31.646  15.257  11.420  0.00  0.00    -0.274 OA
ATOM     25  H   UNL     1      33.212  19.014  13.576  0.00  0.00    +0.151 HD
BRANCH  15  27
ATOM     26  C   UNL     1      34.366  12.246  10.992  0.00  0.00    +0.024 C 
ATOM     27  C   UNL     1      33.335  13.080  11.738  0.00  0.00    +0.104 C 
ENDBRANCH  15  27
ENDBRANCH   1  21
TORSDOF 2
ENDMDL
MODEL 9
REMARK VINA RESULT:      -5.9      4.890      7.831
REMARK  Name = ZINC000329563636
REMARK  3 active torsions:
REMARK  status: ('A' for Active; 'I' for Inactive)
REMARK    1  A    between atoms: C_1  and  C_2
REMARK    2  A    between atoms: C_2  and  N_3
REMARK    3  A    between atoms: N_9  and  C_10
REMARK                            x       y       z     vdW  Elec       q    Type
REMARK                         _______ _______ _______ _____ _____    ______ ____
ROOT
ATOM      1  C   UNL     1      33.838  23.775  15.466  0.00  0.00    +0.112 C 
ATOM      2  C   UNL     1      34.787  23.185  14.416  0.00  0.00    +0.075 C 
ATOM      3  C   UNL     1      34.321  21.860  13.795  0.00  0.00    +0.113 C 
ATOM      4  C   UNL     1      33.332  22.010  12.610  0.00  0.00    +0.048 C 
ATOM      5  C   UNL     1      34.086  21.560  11.364  0.00  0.00    +0.004 C 
ATOM      6  C   UNL     1      35.065  20.525  11.883  0.00  0.00    +0.004 C 
ATOM      7  C   UNL     1      35.554  21.146  13.181  0.00  0.00    +0.048 C 
ATOM      8  O   UNL     1      33.767  20.969  14.782  0.00  0.00    -0.485 OA
ATOM      9  C   UNL     1      32.722  21.522  15.475  0.00  0.00    +0.126 A 
ATOM     10  C   UNL     1      31.680  20.674  15.846  0.00  0.00    +0.046 A 
ATOM     11  C   UNL     1      30.568  21.187  16.518  0.00  0.00    +0.004 A 
ATOM     12  C   UNL     1      30.513  22.541  16.838  0.00  0.00    +0.001 A 
ATOM     13  C   UNL     1      31.573  23.380  16.494  0.00  0.00    +0.009 A 
ATOM     14  C   UNL     1      32.689  22.874  15.807  0.00  0.00    +0.015 A 
ENDROOT
BRANCH   1  21
ATOM     15  N   UNL     1      35.926  26.109  20.952  0.00  0.00    -0.299 N 
ATOM     16  C   UNL     1      35.442  27.093  19.985  0.00  0.00    +0.127 C 
ATOM     17  C   UNL     1      36.027  26.853  18.598  0.00  0.00    +0.129 C 
ATOM     18  N   UNL     1      35.668  25.511  18.164  0.00  0.00    -0.275 N 
ATOM     19  C   UNL     1      34.908  25.360  17.025  0.00  0.00    +0.303 C 
ATOM     20  O   UNL     1      34.518  26.318  16.360  0.00  0.00    -0.253 OA
ATOM     21  N   UNL     1      34.583  24.079  16.689  0.00  0.00    -0.292 N 
ATOM     22  C   UNL     1      36.109  24.445  19.068  0.00  0.00    +0.205 C 
ATOM     23  C   UNL     1      36.186  24.794  20.570  0.00  0.00    +0.233 C 
ATOM     24  O   UNL     1      36.503  23.924  21.386  0.00  0.00    -0.274 OA
ATOM     25  H   UNL     1      35.182  23.337  17.013  0.00  0.00    +0.151 HD
BRANCH  15  27
ATOM     26  C   UNL     1      37.059  27.061  22.941  0.00  0.00    +0.024 C 
ATOM     27  C   UNL     1      35.802  26.420  22.371  0.00  0.00    +0.104 C 
ENDBRANCH  15  27
ENDBRANCH   1  21
TORSDOF 2
ENDMDL
