MODEL 1
REMARK VINA RESULT:      -7.0      0.000      0.000
REMARK  Name = ZINC000543478179
REMARK  8 active torsions:
REMARK  status: ('A' for Active; 'I' for Inactive)
REMARK    1  A    between atoms: C_1  and  C_2
REMARK    2  A    between atoms: C_2  and  N_3
REMARK    3  A    between atoms: N_9  and  C_10
REMARK    4  A    between atoms: C_10  and  C_11
REMARK    5  A    between atoms: C_10  and  C_12
REMARK    6  A    between atoms: C_15  and  O_16
REMARK    7  A    between atoms: O_16  and  C_17
REMARK    8  A    between atoms: C_17  and  C_18
REMARK                            x       y       z     vdW  Elec       q    Type
REMARK                         _______ _______ _______ _____ _____    ______ ____
ROOT
ATOM      1  C   UNL     1      29.884  19.992  14.948  0.00  0.00    +0.102 C 
ATOM      2  C   UNL     1      29.535  20.655  13.613  0.00  0.00    +0.033 C 
ENDROOT
BRANCH   1   9
ATOM      3  N   UNL     1      32.522  15.330  14.001  0.00  0.00    -0.299 N 
ATOM      4  C   UNL     1      33.580  16.013  14.743  0.00  0.00    +0.127 C 
ATOM      5  C   UNL     1      33.714  17.480  14.322  0.00  0.00    +0.129 C 
ATOM      6  N   UNL     1      32.438  18.180  14.499  0.00  0.00    -0.275 N 
ATOM      7  C   UNL     1      32.429  19.411  15.090  0.00  0.00    +0.303 C 
ATOM      8  O   UNL     1      33.470  19.937  15.498  0.00  0.00    -0.253 OA
ATOM      9  N   UNL     1      31.299  20.124  15.285  0.00  0.00    -0.293 N 
ATOM     10  C   UNL     1      31.279  17.464  13.987  0.00  0.00    +0.205 C 
ATOM     11  C   UNL     1      31.430  16.019  13.513  0.00  0.00    +0.233 C 
ATOM     12  O   UNL     1      30.540  15.492  12.841  0.00  0.00    -0.274 OA
ATOM     13  H   UNL     1      31.543  20.986  15.757  0.00  0.00    +0.151 HD
BRANCH   3  15
ATOM     14  C   UNL     1      33.568  13.554  12.683  0.00  0.00    +0.024 C 
ATOM     15  C   UNL     1      32.598  13.895  13.799  0.00  0.00    +0.104 C 
ENDBRANCH   3  15
ENDBRANCH   1   9
BRANCH   1  16
ATOM     16  C   UNL     1      29.028  20.515  16.087  0.00  0.00    -0.024 A 
ATOM     17  C   UNL     1      27.630  20.524  16.010  0.00  0.00    +0.009 A 
ATOM     18  C   UNL     1      26.859  21.028  17.059  0.00  0.00    +0.049 A 
ATOM     19  C   UNL     1      27.474  21.572  18.195  0.00  0.00    +0.156 A 
ATOM     20  C   UNL     1      28.863  21.527  18.287  0.00  0.00    +0.165 A 
ATOM     21  F   UNL     1      29.488  22.001  19.377  0.00  0.00    -0.202 F 
ATOM     22  C   UNL     1      29.638  21.019  17.247  0.00  0.00    +0.047 A 
BRANCH  19  23
ATOM     23  O   UNL     1      26.801  22.158  19.230  0.00  0.00    -0.489 OA
BRANCH  23  24
ATOM     24  C   UNL     1      25.379  22.159  19.102  0.00  0.00    +0.232 C 
BRANCH  24  25
ATOM     25  C   UNL     1      24.892  23.569  18.997  0.00  0.00    +0.027 C 
ATOM     26  C   UNL     1      23.408  23.840  19.027  0.00  0.00    +0.007 C 
ATOM     27  C   UNL     1      24.182  24.039  17.752  0.00  0.00    +0.007 C 
ENDBRANCH  24  25
ENDBRANCH  23  24
ENDBRANCH  19  23
ENDBRANCH   1  16
TORSDOF 6
ENDMDL
MODEL 2
REMARK VINA RESULT:      -6.9      1.566      1.767
REMARK  Name = ZINC000543478179
REMARK  8 active torsions:
REMARK  status: ('A' for Active; 'I' for Inactive)
REMARK    1  A    between atoms: C_1  and  C_2
REMARK    2  A    between atoms: C_2  and  N_3
REMARK    3  A    between atoms: N_9  and  C_10
REMARK    4  A    between atoms: C_10  and  C_11
REMARK    5  A    between atoms: C_10  and  C_12
REMARK    6  A    between atoms: C_15  and  O_16
REMARK    7  A    between atoms: O_16  and  C_17
REMARK    8  A    between atoms: C_17  and  C_18
REMARK                            x       y       z     vdW  Elec       q    Type
REMARK                         _______ _______ _______ _____ _____    ______ ____
ROOT
ATOM      1  C   UNL     1      30.399  20.870  16.048  0.00  0.00    +0.102 C 
ATOM      2  C   UNL     1      30.988  22.198  15.567  0.00  0.00    +0.033 C 
ENDROOT
BRANCH   1   9
ATOM      3  N   UNL     1      32.901  16.861  13.355  0.00  0.00    -0.299 N 
ATOM      4  C   UNL     1      33.297  16.473  14.707  0.00  0.00    +0.127 C 
ATOM      5  C   UNL     1      33.710  17.683  15.549  0.00  0.00    +0.129 C 
ATOM      6  N   UNL     1      32.622  18.664  15.601  0.00  0.00    -0.275 N 
ATOM      7  C   UNL     1      32.291  19.229  16.800  0.00  0.00    +0.303 C 
ATOM      8  O   UNL     1      32.873  18.916  17.843  0.00  0.00    -0.253 OA
ATOM      9  N   UNL     1      31.306  20.144  16.933  0.00  0.00    -0.293 N 
ATOM     10  C   UNL     1      32.004  18.952  14.316  0.00  0.00    +0.205 C 
ATOM     11  C   UNL     1      32.368  18.108  13.094  0.00  0.00    +0.233 C 
ATOM     12  O   UNL     1      32.067  18.495  11.962  0.00  0.00    -0.274 OA
ATOM     13  H   UNL     1      31.234  20.395  17.912  0.00  0.00    +0.151 HD
BRANCH   3  15
ATOM     14  C   UNL     1      31.918  14.889  12.291  0.00  0.00    +0.024 C 
ATOM     15  C   UNL     1      33.038  15.912  12.265  0.00  0.00    +0.104 C 
ENDBRANCH   3  15
ENDBRANCH   1   9
BRANCH   1  16
ATOM     16  C   UNL     1      29.052  21.054  16.723  0.00  0.00    -0.024 A 
ATOM     17  C   UNL     1      27.851  20.906  16.018  0.00  0.00    +0.009 A 
ATOM     18  C   UNL     1      26.622  21.099  16.650  0.00  0.00    +0.049 A 
ATOM     19  C   UNL     1      26.568  21.485  17.997  0.00  0.00    +0.156 A 
ATOM     20  C   UNL     1      27.761  21.593  18.707  0.00  0.00    +0.165 A 
ATOM     21  F   UNL     1      27.749  21.921  20.009  0.00  0.00    -0.202 F 
ATOM     22  C   UNL     1      28.991  21.395  18.084  0.00  0.00    +0.047 A 
BRANCH  19  23
ATOM     23  O   UNL     1      25.414  21.773  18.671  0.00  0.00    -0.489 OA
BRANCH  23  24
ATOM     24  C   UNL     1      25.077  23.159  18.725  0.00  0.00    +0.232 C 
BRANCH  24  25
ATOM     25  C   UNL     1      23.627  23.304  19.058  0.00  0.00    +0.027 C 
ATOM     26  C   UNL     1      22.829  24.408  18.410  0.00  0.00    +0.007 C 
ATOM     27  C   UNL     1      23.148  24.476  19.878  0.00  0.00    +0.007 C 
ENDBRANCH  24  25
ENDBRANCH  23  24
ENDBRANCH  19  23
ENDBRANCH   1  16
TORSDOF 6
ENDMDL
MODEL 3
REMARK VINA RESULT:      -6.8      3.226      9.595
REMARK  Name = ZINC000543478179
REMARK  8 active torsions:
REMARK  status: ('A' for Active; 'I' for Inactive)
REMARK    1  A    between atoms: C_1  and  C_2
REMARK    2  A    between atoms: C_2  and  N_3
REMARK    3  A    between atoms: N_9  and  C_10
REMARK    4  A    between atoms: C_10  and  C_11
REMARK    5  A    between atoms: C_10  and  C_12
REMARK    6  A    between atoms: C_15  and  O_16
REMARK    7  A    between atoms: O_16  and  C_17
REMARK    8  A    between atoms: C_17  and  C_18
REMARK                            x       y       z     vdW  Elec       q    Type
REMARK                         _______ _______ _______ _____ _____    ______ ____
ROOT
ATOM      1  C   UNL     1      26.981  21.192  17.221  0.00  0.00    +0.102 C 
ATOM      2  C   UNL     1      26.096  19.944  17.181  0.00  0.00    +0.033 C 
ENDROOT
BRANCH   1   9
ATOM      3  N   UNL     1      23.805  25.370  18.649  0.00  0.00    -0.299 N 
ATOM      4  C   UNL     1      24.737  25.432  19.774  0.00  0.00    +0.127 C 
ATOM      5  C   UNL     1      25.065  24.039  20.318  0.00  0.00    +0.129 C 
ATOM      6  N   UNL     1      25.610  23.190  19.254  0.00  0.00    -0.275 N 
ATOM      7  C   UNL     1      26.719  22.434  19.507  0.00  0.00    +0.303 C 
ATOM      8  O   UNL     1      27.284  22.465  20.605  0.00  0.00    -0.253 OA
ATOM      9  N   UNL     1      27.279  21.622  18.585  0.00  0.00    -0.293 N 
ATOM     10  C   UNL     1      24.868  23.237  18.003  0.00  0.00    +0.205 C 
ATOM     11  C   UNL     1      23.754  24.267  17.822  0.00  0.00    +0.233 C 
ATOM     12  O   UNL     1      22.950  24.151  16.893  0.00  0.00    -0.274 OA
ATOM     13  H   UNL     1      28.096  21.187  18.997  0.00  0.00    +0.151 HD
BRANCH   3  15
ATOM     14  C   UNL     1      23.480  27.770  19.001  0.00  0.00    +0.024 C 
ATOM     15  C   UNL     1      22.937  26.500  18.373  0.00  0.00    +0.104 C 
ENDBRANCH   3  15
ENDBRANCH   1   9
BRANCH   1  16
ATOM     16  C   UNL     1      28.270  21.004  16.442  0.00  0.00    -0.024 A 
ATOM     17  C   UNL     1      28.291  21.015  15.042  0.00  0.00    +0.009 A 
ATOM     18  C   UNL     1      29.483  20.820  14.343  0.00  0.00    +0.049 A 
ATOM     19  C   UNL     1      30.677  20.568  15.031  0.00  0.00    +0.156 A 
ATOM     20  C   UNL     1      30.664  20.595  16.423  0.00  0.00    +0.165 A 
ATOM     21  F   UNL     1      31.795  20.399  17.118  0.00  0.00    -0.202 F 
ATOM     22  C   UNL     1      29.479  20.797  17.128  0.00  0.00    +0.047 A 
BRANCH  19  23
ATOM     23  O   UNL     1      31.871  20.287  14.427  0.00  0.00    -0.489 OA
BRANCH  23  24
ATOM     24  C   UNL     1      31.817  19.265  13.431  0.00  0.00    +0.232 C 
BRANCH  24  25
ATOM     25  C   UNL     1      31.888  17.925  14.090  0.00  0.00    +0.027 C 
ATOM     26  C   UNL     1      31.640  16.685  13.268  0.00  0.00    +0.007 C 
ATOM     27  C   UNL     1      30.635  17.113  14.303  0.00  0.00    +0.007 C 
ENDBRANCH  24  25
ENDBRANCH  23  24
ENDBRANCH  19  23
ENDBRANCH   1  16
TORSDOF 6
ENDMDL
MODEL 4
REMARK VINA RESULT:      -6.8      2.195      3.409
REMARK  Name = ZINC000543478179
REMARK  8 active torsions:
REMARK  status: ('A' for Active; 'I' for Inactive)
REMARK    1  A    between atoms: C_1  and  C_2
REMARK    2  A    between atoms: C_2  and  N_3
REMARK    3  A    between atoms: N_9  and  C_10
REMARK    4  A    between atoms: C_10  and  C_11
REMARK    5  A    between atoms: C_10  and  C_12
REMARK    6  A    between atoms: C_15  and  O_16
REMARK    7  A    between atoms: O_16  and  C_17
REMARK    8  A    between atoms: C_17  and  C_18
REMARK                            x       y       z     vdW  Elec       q    Type
REMARK                         _______ _______ _______ _____ _____    ______ ____
ROOT
ATOM      1  C   UNL     1      30.118  20.650  16.205  0.00  0.00    +0.102 C 
ATOM      2  C   UNL     1      31.306  21.087  17.066  0.00  0.00    +0.033 C 
ENDROOT
BRANCH   1   9
ATOM      3  N   UNL     1      32.997  20.010  11.634  0.00  0.00    -0.299 N 
ATOM      4  C   UNL     1      32.443  18.660  11.714  0.00  0.00    +0.127 C 
ATOM      5  C   UNL     1      32.479  18.114  13.145  0.00  0.00    +0.129 C 
ATOM      6  N   UNL     1      31.758  19.012  14.052  0.00  0.00    -0.275 N 
ATOM      7  C   UNL     1      30.884  18.483  14.959  0.00  0.00    +0.303 C 
ATOM      8  O   UNL     1      30.673  17.267  15.017  0.00  0.00    -0.253 OA
ATOM      9  N   UNL     1      30.186  19.240  15.834  0.00  0.00    -0.293 N 
ATOM     10  C   UNL     1      32.080  20.422  13.890  0.00  0.00    +0.205 C 
ATOM     11  C   UNL     1      32.944  20.871  12.712  0.00  0.00    +0.233 C 
ATOM     12  O   UNL     1      33.443  21.999  12.705  0.00  0.00    -0.274 OA
ATOM     13  H   UNL     1      29.594  18.628  16.382  0.00  0.00    +0.151 HD
BRANCH   3  15
ATOM     14  C   UNL     1      34.917  19.787  10.133  0.00  0.00    +0.024 C 
ATOM     15  C   UNL     1      33.587  20.472  10.392  0.00  0.00    +0.104 C 
ENDBRANCH   3  15
ENDBRANCH   1   9
BRANCH   1  16
ATOM     16  C   UNL     1      28.788  20.948  16.873  0.00  0.00    -0.024 A 
ATOM     17  C   UNL     1      27.576  20.823  16.184  0.00  0.00    +0.009 A 
ATOM     18  C   UNL     1      26.364  21.122  16.809  0.00  0.00    +0.049 A 
ATOM     19  C   UNL     1      26.342  21.593  18.128  0.00  0.00    +0.156 A 
ATOM     20  C   UNL     1      27.544  21.680  18.825  0.00  0.00    +0.165 A 
ATOM     21  F   UNL     1      27.561  22.088  20.104  0.00  0.00    -0.202 F 
ATOM     22  C   UNL     1      28.758  21.377  18.211  0.00  0.00    +0.047 A 
BRANCH  19  23
ATOM     23  O   UNL     1      25.211  21.984  18.789  0.00  0.00    -0.489 OA
BRANCH  23  24
ATOM     24  C   UNL     1      24.869  23.362  18.635  0.00  0.00    +0.232 C 
BRANCH  24  25
ATOM     25  C   UNL     1      23.467  23.581  19.105  0.00  0.00    +0.027 C 
ATOM     26  C   UNL     1      22.503  24.334  18.223  0.00  0.00    +0.007 C 
ATOM     27  C   UNL     1      23.002  24.961  19.496  0.00  0.00    +0.007 C 
ENDBRANCH  24  25
ENDBRANCH  23  24
ENDBRANCH  19  23
ENDBRANCH   1  16
TORSDOF 6
ENDMDL
MODEL 5
REMARK VINA RESULT:      -6.7      2.499      3.855
REMARK  Name = ZINC000543478179
REMARK  8 active torsions:
REMARK  status: ('A' for Active; 'I' for Inactive)
REMARK    1  A    between atoms: C_1  and  C_2
REMARK    2  A    between atoms: C_2  and  N_3
REMARK    3  A    between atoms: N_9  and  C_10
REMARK    4  A    between atoms: C_10  and  C_11
REMARK    5  A    between atoms: C_10  and  C_12
REMARK    6  A    between atoms: C_15  and  O_16
REMARK    7  A    between atoms: O_16  and  C_17
REMARK    8  A    between atoms: C_17  and  C_18
REMARK                            x       y       z     vdW  Elec       q    Type
REMARK                         _______ _______ _______ _____ _____    ______ ____
ROOT
ATOM      1  C   UNL     1      30.591  20.390  16.061  0.00  0.00    +0.102 C 
ATOM      2  C   UNL     1      31.784  20.444  17.019  0.00  0.00    +0.033 C 
ENDROOT
BRANCH   1   9
ATOM      3  N   UNL     1      33.423  20.171  11.422  0.00  0.00    -0.299 N 
ATOM      4  C   UNL     1      32.659  18.936  11.250  0.00  0.00    +0.127 C 
ATOM      5  C   UNL     1      32.577  18.132  12.550  0.00  0.00    +0.129 C 
ATOM      6  N   UNL     1      31.991  18.947  13.619  0.00  0.00    -0.275 N 
ATOM      7  C   UNL     1      31.026  18.403  14.418  0.00  0.00    +0.303 C 
ATOM      8  O   UNL     1      30.622  17.248  14.247  0.00  0.00    -0.253 OA
ATOM      9  N   UNL     1      30.440  19.083  15.428  0.00  0.00    -0.293 N 
ATOM     10  C   UNL     1      32.538  20.291  13.725  0.00  0.00    +0.205 C 
ATOM     11  C   UNL     1      33.487  20.809  12.644  0.00  0.00    +0.233 C 
ATOM     12  O   UNL     1      34.159  21.824  12.846  0.00  0.00    -0.274 OA
ATOM     13  H   UNL     1      29.747  18.483  15.857  0.00  0.00    +0.151 HD
BRANCH   3  15
ATOM     14  C   UNL     1      33.145  21.573   9.436  0.00  0.00    +0.024 C 
ATOM     15  C   UNL     1      34.104  20.758  10.284  0.00  0.00    +0.104 C 
ENDBRANCH   3  15
ENDBRANCH   1   9
BRANCH   1  16
ATOM     16  C   UNL     1      29.295  20.792  16.741  0.00  0.00    -0.024 A 
ATOM     17  C   UNL     1      29.276  21.303  18.044  0.00  0.00    +0.009 A 
ATOM     18  C   UNL     1      28.072  21.647  18.660  0.00  0.00    +0.049 A 
ATOM     19  C   UNL     1      26.853  21.449  17.998  0.00  0.00    +0.156 A 
ATOM     20  C   UNL     1      26.874  20.977  16.688  0.00  0.00    +0.165 A 
ATOM     21  F   UNL     1      25.730  20.812  16.006  0.00  0.00    -0.202 F 
ATOM     22  C   UNL     1      28.073  20.638  16.064  0.00  0.00    +0.047 A 
BRANCH  19  23
ATOM     23  O   UNL     1      25.626  21.682  18.554  0.00  0.00    -0.489 OA
BRANCH  23  24
ATOM     24  C   UNL     1      25.473  22.965  19.160  0.00  0.00    +0.232 C 
BRANCH  24  25
ATOM     25  C   UNL     1      24.362  23.704  18.483  0.00  0.00    +0.027 C 
ATOM     26  C   UNL     1      24.007  25.092  18.954  0.00  0.00    +0.007 C 
ATOM     27  C   UNL     1      23.061  23.951  19.206  0.00  0.00    +0.007 C 
ENDBRANCH  24  25
ENDBRANCH  23  24
ENDBRANCH  19  23
ENDBRANCH   1  16
TORSDOF 6
ENDMDL
MODEL 6
REMARK VINA RESULT:      -6.7      2.790      4.500
REMARK  Name = ZINC000543478179
REMARK  8 active torsions:
REMARK  status: ('A' for Active; 'I' for Inactive)
REMARK    1  A    between atoms: C_1  and  C_2
REMARK    2  A    between atoms: C_2  and  N_3
REMARK    3  A    between atoms: N_9  and  C_10
REMARK    4  A    between atoms: C_10  and  C_11
REMARK    5  A    between atoms: C_10  and  C_12
REMARK    6  A    between atoms: C_15  and  O_16
REMARK    7  A    between atoms: O_16  and  C_17
REMARK    8  A    between atoms: C_17  and  C_18
REMARK                            x       y       z     vdW  Elec       q    Type
REMARK                         _______ _______ _______ _____ _____    ______ ____
ROOT
ATOM      1  C   UNL     1      28.238  20.782  16.173  0.00  0.00    +0.102 C 
ATOM      2  C   UNL     1      26.716  20.943  16.187  0.00  0.00    +0.033 C 
ENDROOT
BRANCH   1   9
ATOM      3  N   UNL     1      32.572  17.822  14.745  0.00  0.00    -0.299 N 
ATOM      4  C   UNL     1      32.783  18.942  13.830  0.00  0.00    +0.127 C 
ATOM      5  C   UNL     1      31.475  19.398  13.177  0.00  0.00    +0.129 C 
ATOM      6  N   UNL     1      30.492  19.759  14.203  0.00  0.00    -0.275 N 
ATOM      7  C   UNL     1      29.775  20.913  14.062  0.00  0.00    +0.303 C 
ATOM      8  O   UNL     1      29.952  21.669  13.101  0.00  0.00    -0.253 OA
ATOM      9  N   UNL     1      28.846  21.314  14.957  0.00  0.00    -0.293 N 
ATOM     10  C   UNL     1      30.371  18.800  15.290  0.00  0.00    +0.205 C 
ATOM     11  C   UNL     1      31.368  17.646  15.397  0.00  0.00    +0.233 C 
ATOM     12  O   UNL     1      31.130  16.689  16.138  0.00  0.00    -0.274 OA
ATOM     13  H   UNL     1      28.470  22.203  14.650  0.00  0.00    +0.151 HD
BRANCH   3  15
ATOM     14  C   UNL     1      33.695  15.798  13.950  0.00  0.00    +0.024 C 
ATOM     15  C   UNL     1      33.655  16.891  15.002  0.00  0.00    +0.104 C 
ENDBRANCH   3  15
ENDBRANCH   1   9
BRANCH   1  16
ATOM     16  C   UNL     1      28.889  21.404  17.395  0.00  0.00    -0.024 A 
ATOM     17  C   UNL     1      30.214  21.856  17.372  0.00  0.00    +0.009 A 
ATOM     18  C   UNL     1      30.802  22.407  18.512  0.00  0.00    +0.049 A 
ATOM     19  C   UNL     1      30.088  22.481  19.715  0.00  0.00    +0.156 A 
ATOM     20  C   UNL     1      28.758  22.067  19.727  0.00  0.00    +0.165 A 
ATOM     21  F   UNL     1      28.027  22.160  20.850  0.00  0.00    -0.202 F 
ATOM     22  C   UNL     1      28.162  21.523  18.591  0.00  0.00    +0.047 A 
BRANCH  19  23
ATOM     23  O   UNL     1      30.609  22.930  20.896  0.00  0.00    -0.489 OA
BRANCH  23  24
ATOM     24  C   UNL     1      31.493  22.018  21.550  0.00  0.00    +0.232 C 
BRANCH  24  25
ATOM     25  C   UNL     1      32.829  22.665  21.730  0.00  0.00    +0.027 C 
ATOM     26  C   UNL     1      33.274  23.721  20.750  0.00  0.00    +0.007 C 
ATOM     27  C   UNL     1      33.951  22.378  20.764  0.00  0.00    +0.007 C 
ENDBRANCH  24  25
ENDBRANCH  23  24
ENDBRANCH  19  23
ENDBRANCH   1  16
TORSDOF 6
ENDMDL
MODEL 7
REMARK VINA RESULT:      -6.6      5.689     11.266
REMARK  Name = ZINC000543478179
REMARK  8 active torsions:
REMARK  status: ('A' for Active; 'I' for Inactive)
REMARK    1  A    between atoms: C_1  and  C_2
REMARK    2  A    between atoms: C_2  and  N_3
REMARK    3  A    between atoms: N_9  and  C_10
REMARK    4  A    between atoms: C_10  and  C_11
REMARK    5  A    between atoms: C_10  and  C_12
REMARK    6  A    between atoms: C_15  and  O_16
REMARK    7  A    between atoms: O_16  and  C_17
REMARK    8  A    between atoms: C_17  and  C_18
REMARK                            x       y       z     vdW  Elec       q    Type
REMARK                         _______ _______ _______ _____ _____    ______ ____
ROOT
ATOM      1  C   UNL     1      23.972  24.662  19.324  0.00  0.00    +0.102 C 
ATOM      2  C   UNL     1      22.656  24.085  18.796  0.00  0.00    +0.033 C 
ENDROOT
BRANCH   1   9
ATOM      3  N   UNL     1      26.050  29.659  19.869  0.00  0.00    -0.299 N 
ATOM      4  C   UNL     1      25.915  29.341  21.289  0.00  0.00    +0.127 C 
ATOM      5  C   UNL     1      24.586  28.643  21.592  0.00  0.00    +0.129 C 
ATOM      6  N   UNL     1      24.453  27.426  20.785  0.00  0.00    -0.275 N 
ATOM      7  C   UNL     1      24.024  26.275  21.381  0.00  0.00    +0.303 C 
ATOM      8  O   UNL     1      23.765  26.232  22.588  0.00  0.00    -0.253 OA
ATOM      9  N   UNL     1      23.868  25.114  20.709  0.00  0.00    -0.293 N 
ATOM     10  C   UNL     1      24.790  27.592  19.380  0.00  0.00    +0.205 C 
ATOM     11  C   UNL     1      25.424  28.898  18.902  0.00  0.00    +0.233 C 
ATOM     12  O   UNL     1      25.471  29.159  17.697  0.00  0.00    -0.274 OA
ATOM     13  H   UNL     1      23.565  24.404  21.364  0.00  0.00    +0.151 HD
BRANCH   3  15
ATOM     14  C   UNL     1      27.993  31.023  20.462  0.00  0.00    +0.024 C 
ATOM     15  C   UNL     1      26.882  30.775  19.459  0.00  0.00    +0.104 C 
ENDBRANCH   3  15
ENDBRANCH   1   9
BRANCH   1  16
ATOM     16  C   UNL     1      25.123  23.683  19.181  0.00  0.00    -0.024 A 
ATOM     17  C   UNL     1      26.330  23.863  19.865  0.00  0.00    +0.009 A 
ATOM     18  C   UNL     1      27.385  22.963  19.705  0.00  0.00    +0.049 A 
ATOM     19  C   UNL     1      27.268  21.881  18.822  0.00  0.00    +0.156 A 
ATOM     20  C   UNL     1      26.054  21.680  18.172  0.00  0.00    +0.165 A 
ATOM     21  F   UNL     1      25.888  20.632  17.349  0.00  0.00    -0.202 F 
ATOM     22  C   UNL     1      24.993  22.570  18.332  0.00  0.00    +0.047 A 
BRANCH  19  23
ATOM     23  O   UNL     1      28.275  21.000  18.544  0.00  0.00    -0.489 OA
BRANCH  23  24
ATOM     24  C   UNL     1      29.506  21.600  18.139  0.00  0.00    +0.232 C 
BRANCH  24  25
ATOM     25  C   UNL     1      29.698  21.394  16.670  0.00  0.00    +0.027 C 
ATOM     26  C   UNL     1      28.892  20.333  15.963  0.00  0.00    +0.007 C 
ATOM     27  C   UNL     1      30.372  20.145  16.158  0.00  0.00    +0.007 C 
ENDBRANCH  24  25
ENDBRANCH  23  24
ENDBRANCH  19  23
ENDBRANCH   1  16
TORSDOF 6
ENDMDL
MODEL 8
REMARK VINA RESULT:      -6.6      3.082      3.554
REMARK  Name = ZINC000543478179
REMARK  8 active torsions:
REMARK  status: ('A' for Active; 'I' for Inactive)
REMARK    1  A    between atoms: C_1  and  C_2
REMARK    2  A    between atoms: C_2  and  N_3
REMARK    3  A    between atoms: N_9  and  C_10
REMARK    4  A    between atoms: C_10  and  C_11
REMARK    5  A    between atoms: C_10  and  C_12
REMARK    6  A    between atoms: C_15  and  O_16
REMARK    7  A    between atoms: O_16  and  C_17
REMARK    8  A    between atoms: C_17  and  C_18
REMARK                            x       y       z     vdW  Elec       q    Type
REMARK                         _______ _______ _______ _____ _____    ______ ____
ROOT
ATOM      1  C   UNL     1      29.842  20.780  15.518  0.00  0.00    +0.102 C 
ATOM      2  C   UNL     1      29.468  20.535  14.054  0.00  0.00    +0.033 C 
ENDROOT
BRANCH   1   9
ATOM      3  N   UNL     1      34.268  19.082  18.186  0.00  0.00    -0.299 N 
ATOM      4  C   UNL     1      34.543  20.517  18.233  0.00  0.00    +0.127 C 
ATOM      5  C   UNL     1      34.235  21.200  16.898  0.00  0.00    +0.129 C 
ATOM      6  N   UNL     1      32.840  20.963  16.513  0.00  0.00    -0.275 N 
ATOM      7  C   UNL     1      32.088  22.007  16.056  0.00  0.00    +0.303 C 
ATOM      8  O   UNL     1      32.551  23.150  15.979  0.00  0.00    -0.253 OA
ATOM      9  N   UNL     1      30.799  21.872  15.675  0.00  0.00    -0.293 N 
ATOM     10  C   UNL     1      32.401  19.582  16.649  0.00  0.00    +0.205 C 
ATOM     11  C   UNL     1      33.306  18.564  17.342  0.00  0.00    +0.233 C 
ATOM     12  O   UNL     1      33.076  17.357  17.234  0.00  0.00    -0.274 OA
ATOM     13  H   UNL     1      30.451  22.782  15.398  0.00  0.00    +0.151 HD
BRANCH   3  15
ATOM     14  C   UNL     1      36.447  18.067  18.640  0.00  0.00    +0.024 C 
ATOM     15  C   UNL     1      34.994  18.183  19.063  0.00  0.00    +0.104 C 
ENDBRANCH   3  15
ENDBRANCH   1   9
BRANCH   1  16
ATOM     16  C   UNL     1      28.622  21.028  16.386  0.00  0.00    -0.024 A 
ATOM     17  C   UNL     1      27.327  21.014  15.854  0.00  0.00    +0.009 A 
ATOM     18  C   UNL     1      26.218  21.265  16.664  0.00  0.00    +0.049 A 
ATOM     19  C   UNL     1      26.385  21.577  18.020  0.00  0.00    +0.156 A 
ATOM     20  C   UNL     1      27.670  21.553  18.557  0.00  0.00    +0.165 A 
ATOM     21  F   UNL     1      27.868  21.806  19.860  0.00  0.00    -0.202 F 
ATOM     22  C   UNL     1      28.781  21.296  17.756  0.00  0.00    +0.047 A 
BRANCH  19  23
ATOM     23  O   UNL     1      25.365  21.914  18.865  0.00  0.00    -0.489 OA
BRANCH  23  24
ATOM     24  C   UNL     1      25.014  23.298  18.864  0.00  0.00    +0.232 C 
BRANCH  24  25
ATOM     25  C   UNL     1      23.558  23.440  19.174  0.00  0.00    +0.027 C 
ATOM     26  C   UNL     1      22.734  24.437  18.398  0.00  0.00    +0.007 C 
ATOM     27  C   UNL     1      23.041  24.686  19.849  0.00  0.00    +0.007 C 
ENDBRANCH  24  25
ENDBRANCH  23  24
ENDBRANCH  19  23
ENDBRANCH   1  16
TORSDOF 6
ENDMDL
MODEL 9
REMARK VINA RESULT:      -6.6      3.478      5.909
REMARK  Name = ZINC000543478179
REMARK  8 active torsions:
REMARK  status: ('A' for Active; 'I' for Inactive)
REMARK    1  A    between atoms: C_1  and  C_2
REMARK    2  A    between atoms: C_2  and  N_3
REMARK    3  A    between atoms: N_9  and  C_10
REMARK    4  A    between atoms: C_10  and  C_11
REMARK    5  A    between atoms: C_10  and  C_12
REMARK    6  A    between atoms: C_15  and  O_16
REMARK    7  A    between atoms: O_16  and  C_17
REMARK    8  A    between atoms: C_17  and  C_18
REMARK                            x       y       z     vdW  Elec       q    Type
REMARK                         _______ _______ _______ _____ _____    ______ ____
ROOT
ATOM      1  C   UNL     1      30.707  20.360  16.137  0.00  0.00    +0.102 C 
ATOM      2  C   UNL     1      30.666  18.916  15.630  0.00  0.00    +0.033 C 
ENDROOT
BRANCH   1   9
ATOM      3  N   UNL     1      34.026  24.206  18.081  0.00  0.00    -0.299 N 
ATOM      4  C   UNL     1      33.724  24.832  16.794  0.00  0.00    +0.127 C 
ATOM      5  C   UNL     1      33.740  23.815  15.649  0.00  0.00    +0.129 C 
ATOM      6  N   UNL     1      32.793  22.729  15.919  0.00  0.00    -0.275 N 
ATOM      7  C   UNL     1      31.959  22.309  14.923  0.00  0.00    +0.303 C 
ATOM      8  O   UNL     1      31.969  22.838  13.807  0.00  0.00    -0.253 OA
ATOM      9  N   UNL     1      31.063  21.311  15.087  0.00  0.00    -0.293 N 
ATOM     10  C   UNL     1      32.864  22.184  17.267  0.00  0.00    +0.205 C 
ATOM     11  C   UNL     1      33.727  22.880  18.319  0.00  0.00    +0.233 C 
ATOM     12  O   UNL     1      34.009  22.299  19.371  0.00  0.00    -0.274 OA
ATOM     13  H   UNL     1      30.549  21.198  14.221  0.00  0.00    +0.151 HD
BRANCH   3  15
ATOM     14  C   UNL     1      35.059  26.356  18.628  0.00  0.00    +0.024 C 
ATOM     15  C   UNL     1      34.623  24.996  19.141  0.00  0.00    +0.104 C 
ENDBRANCH   3  15
ENDBRANCH   1   9
BRANCH   1  16
ATOM     16  C   UNL     1      29.401  20.773  16.791  0.00  0.00    -0.024 A 
ATOM     17  C   UNL     1      29.368  21.340  18.071  0.00  0.00    +0.009 A 
ATOM     18  C   UNL     1      28.156  21.695  18.665  0.00  0.00    +0.049 A 
ATOM     19  C   UNL     1      26.943  21.452  18.005  0.00  0.00    +0.156 A 
ATOM     20  C   UNL     1      26.979  20.924  16.717  0.00  0.00    +0.165 A 
ATOM     21  F   UNL     1      25.842  20.715  16.036  0.00  0.00    -0.202 F 
ATOM     22  C   UNL     1      28.186  20.575  16.114  0.00  0.00    +0.047 A 
BRANCH  19  23
ATOM     23  O   UNL     1      25.710  21.692  18.544  0.00  0.00    -0.489 OA
BRANCH  23  24
ATOM     24  C   UNL     1      25.586  22.938  19.231  0.00  0.00    +0.232 C 
BRANCH  24  25
ATOM     25  C   UNL     1      24.366  23.653  18.743  0.00  0.00    +0.027 C 
ATOM     26  C   UNL     1      24.240  25.137  18.979  0.00  0.00    +0.007 C 
ATOM     27  C   UNL     1      23.350  24.181  19.725  0.00  0.00    +0.007 C 
ENDBRANCH  24  25
ENDBRANCH  23  24
ENDBRANCH  19  23
ENDBRANCH   1  16
TORSDOF 6
ENDMDL
