MODEL 1
REMARK VINA RESULT:      -6.5      0.000      0.000
REMARK  Name = ZINC000543478179
REMARK  8 active torsions:
REMARK  status: ('A' for Active; 'I' for Inactive)
REMARK    1  A    between atoms: C_1  and  C_2
REMARK    2  A    between atoms: C_2  and  N_3
REMARK    3  A    between atoms: N_9  and  C_10
REMARK    4  A    between atoms: C_10  and  C_11
REMARK    5  A    between atoms: C_10  and  C_12
REMARK    6  A    between atoms: C_15  and  O_16
REMARK    7  A    between atoms: O_16  and  C_17
REMARK    8  A    between atoms: C_17  and  C_18
REMARK                            x       y       z     vdW  Elec       q    Type
REMARK                         _______ _______ _______ _____ _____    ______ ____
ROOT
ATOM      1  C   UNL     1      31.806  21.443  15.720  0.00  0.00    +0.102 C 
ATOM      2  C   UNL     1      30.631  21.103  16.647  0.00  0.00    +0.033 C 
ENDROOT
BRANCH   1   9
ATOM      3  N   UNL     1      35.631  26.106  17.838  0.00  0.00    -0.299 N 
ATOM      4  C   UNL     1      35.097  26.339  16.495  0.00  0.00    +0.127 C 
ATOM      5  C   UNL     1      35.181  25.085  15.620  0.00  0.00    +0.129 C 
ATOM      6  N   UNL     1      34.444  24.000  16.263  0.00  0.00    -0.275 N 
ATOM      7  C   UNL     1      33.474  23.305  15.555  0.00  0.00    +0.303 C 
ATOM      8  O   UNL     1      33.219  23.524  14.378  0.00  0.00    -0.253 OA
ATOM      9  N   UNL     1      32.789  22.368  16.290  0.00  0.00    -0.293 N 
ATOM     10  C   UNL     1      34.804  23.756  17.661  0.00  0.00    +0.205 C 
ATOM     11  C   UNL     1      35.631  24.830  18.393  0.00  0.00    +0.233 C 
ATOM     12  O   UNL     1      36.140  24.583  19.487  0.00  0.00    -0.274 OA
ATOM     13  H   UNL     1      33.318  21.969  17.046  0.00  0.00    +0.151 HD
BRANCH   3  15
ATOM     14  C   UNL     1      37.213  27.869  18.540  0.00  0.00    +0.024 C 
ATOM     15  C   UNL     1      35.834  27.250  18.725  0.00  0.00    +0.104 C 
ENDBRANCH   3  15
ENDBRANCH   1   9
BRANCH   1  16
ATOM     16  C   UNL     1      32.544  20.165  15.336  0.00  0.00    -0.024 A 
ATOM     17  C   UNL     1      32.906  19.947  13.994  0.00  0.00    +0.009 A 
ATOM     18  C   UNL     1      33.504  18.755  13.593  0.00  0.00    +0.049 A 
ATOM     19  C   UNL     1      33.712  17.731  14.517  0.00  0.00    +0.156 A 
ATOM     20  C   UNL     1      33.415  17.963  15.863  0.00  0.00    +0.165 A 
ATOM     21  F   UNL     1      33.648  17.015  16.782  0.00  0.00    -0.202 F 
ATOM     22  C   UNL     1      32.832  19.166  16.276  0.00  0.00    +0.047 A 
BRANCH  19  23
ATOM     23  O   UNL     1      34.175  16.488  14.176  0.00  0.00    -0.489 OA
BRANCH  23  24
ATOM     24  C   UNL     1      33.477  15.874  13.088  0.00  0.00    +0.232 C 
BRANCH  24  25
ATOM     25  C   UNL     1      32.049  15.674  13.479  0.00  0.00    +0.027 C 
ATOM     26  C   UNL     1      31.686  14.671  14.543  0.00  0.00    +0.007 C 
ATOM     27  C   UNL     1      31.318  14.407  13.108  0.00  0.00    +0.007 C 
ENDBRANCH  24  25
ENDBRANCH  23  24
ENDBRANCH  19  23
ENDBRANCH   1  16
TORSDOF 6
ENDMDL
MODEL 2
REMARK VINA RESULT:      -5.9     11.529     13.947
REMARK  Name = ZINC000543478179
REMARK  8 active torsions:
REMARK  status: ('A' for Active; 'I' for Inactive)
REMARK    1  A    between atoms: C_1  and  C_2
REMARK    2  A    between atoms: C_2  and  N_3
REMARK    3  A    between atoms: N_9  and  C_10
REMARK    4  A    between atoms: C_10  and  C_11
REMARK    5  A    between atoms: C_10  and  C_12
REMARK    6  A    between atoms: C_15  and  O_16
REMARK    7  A    between atoms: O_16  and  C_17
REMARK    8  A    between atoms: C_17  and  C_18
REMARK                            x       y       z     vdW  Elec       q    Type
REMARK                         _______ _______ _______ _____ _____    ______ ____
ROOT
ATOM      1  C   UNL     1      24.727  28.555  22.518  0.00  0.00    +0.102 C 
ATOM      2  C   UNL     1      26.037  29.298  22.223  0.00  0.00    +0.033 C 
ENDROOT
BRANCH   1   9
ATOM      3  N   UNL     1      20.696  29.037  17.580  0.00  0.00    -0.299 N 
ATOM      4  C   UNL     1      20.498  30.057  18.611  0.00  0.00    +0.127 C 
ATOM      5  C   UNL     1      20.531  29.459  20.021  0.00  0.00    +0.129 C 
ATOM      6  N   UNL     1      21.811  28.789  20.230  0.00  0.00    -0.275 N 
ATOM      7  C   UNL     1      22.582  29.096  21.342  0.00  0.00    +0.303 C 
ATOM      8  O   UNL     1      22.225  29.887  22.206  0.00  0.00    -0.253 OA
ATOM      9  N   UNL     1      23.803  28.468  21.384  0.00  0.00    -0.293 N 
ATOM     10  C   UNL     1      22.181  27.831  19.186  0.00  0.00    +0.205 C 
ATOM     11  C   UNL     1      21.399  27.868  17.860  0.00  0.00    +0.233 C 
ATOM     12  O   UNL     1      21.521  26.956  17.041  0.00  0.00    -0.274 OA
ATOM     13  H   UNL     1      23.824  27.575  20.922  0.00  0.00    +0.151 HD
BRANCH   3  15
ATOM     14  C   UNL     1      21.673  30.116  15.584  0.00  0.00    +0.024 C 
ATOM     15  C   UNL     1      20.471  29.395  16.181  0.00  0.00    +0.104 C 
ENDBRANCH   3  15
ENDBRANCH   1   9
BRANCH   1  16
ATOM     16  C   UNL     1      25.034  27.133  22.974  0.00  0.00    -0.024 A 
ATOM     17  C   UNL     1      26.073  26.413  22.355  0.00  0.00    +0.009 A 
ATOM     18  C   UNL     1      26.326  25.085  22.686  0.00  0.00    +0.049 A 
ATOM     19  C   UNL     1      25.515  24.427  23.610  0.00  0.00    +0.156 A 
ATOM     20  C   UNL     1      24.523  25.151  24.276  0.00  0.00    +0.165 A 
ATOM     21  F   UNL     1      23.759  24.558  25.205  0.00  0.00    -0.202 F 
ATOM     22  C   UNL     1      24.276  26.492  23.963  0.00  0.00    +0.047 A 
BRANCH  19  23
ATOM     23  O   UNL     1      25.620  23.090  23.892  0.00  0.00    -0.489 OA
BRANCH  23  24
ATOM     24  C   UNL     1      26.964  22.616  24.018  0.00  0.00    +0.232 C 
BRANCH  24  25
ATOM     25  C   UNL     1      26.938  21.217  24.541  0.00  0.00    +0.027 C 
ATOM     26  C   UNL     1      28.192  20.383  24.542  0.00  0.00    +0.007 C 
ATOM     27  C   UNL     1      27.066  20.040  23.605  0.00  0.00    +0.007 C 
ENDBRANCH  24  25
ENDBRANCH  23  24
ENDBRANCH  19  23
ENDBRANCH   1  16
TORSDOF 6
ENDMDL
MODEL 3
REMARK VINA RESULT:      -5.8      4.879      6.815
REMARK  Name = ZINC000543478179
REMARK  8 active torsions:
REMARK  status: ('A' for Active; 'I' for Inactive)
REMARK    1  A    between atoms: C_1  and  C_2
REMARK    2  A    between atoms: C_2  and  N_3
REMARK    3  A    between atoms: N_9  and  C_10
REMARK    4  A    between atoms: C_10  and  C_11
REMARK    5  A    between atoms: C_10  and  C_12
REMARK    6  A    between atoms: C_15  and  O_16
REMARK    7  A    between atoms: O_16  and  C_17
REMARK    8  A    between atoms: C_17  and  C_18
REMARK                            x       y       z     vdW  Elec       q    Type
REMARK                         _______ _______ _______ _____ _____    ______ ____
ROOT
ATOM      1  C   UNL     1      34.278  20.945  13.412  0.00  0.00    +0.102 C 
ATOM      2  C   UNL     1      35.533  21.222  14.252  0.00  0.00    +0.033 C 
ENDROOT
BRANCH   1   9
ATOM      3  N   UNL     1      35.379  22.544   7.322  0.00  0.00    -0.299 N 
ATOM      4  C   UNL     1      34.972  23.667   8.167  0.00  0.00    +0.127 C 
ATOM      5  C   UNL     1      33.789  23.304   9.070  0.00  0.00    +0.129 C 
ATOM      6  N   UNL     1      34.154  22.165   9.907  0.00  0.00    -0.275 N 
ATOM      7  C   UNL     1      33.992  22.234  11.283  0.00  0.00    +0.303 C 
ATOM      8  O   UNL     1      33.509  23.204  11.852  0.00  0.00    -0.253 OA
ATOM      9  N   UNL     1      34.452  21.137  11.970  0.00  0.00    -0.293 N 
ATOM     10  C   UNL     1      34.700  21.018   9.179  0.00  0.00    +0.205 C 
ATOM     11  C   UNL     1      35.142  21.231   7.719  0.00  0.00    +0.233 C 
ATOM     12  O   UNL     1      35.401  20.265   7.000  0.00  0.00    -0.274 OA
ATOM     13  H   UNL     1      34.416  20.278  11.448  0.00  0.00    +0.151 HD
BRANCH   3  15
ATOM     14  C   UNL     1      35.868  23.880   5.302  0.00  0.00    +0.024 C 
ATOM     15  C   UNL     1      36.340  22.782   6.246  0.00  0.00    +0.104 C 
ENDBRANCH   3  15
ENDBRANCH   1   9
BRANCH   1  16
ATOM     16  C   UNL     1      33.818  19.510  13.635  0.00  0.00    -0.024 A 
ATOM     17  C   UNL     1      32.902  19.224  14.665  0.00  0.00    +0.009 A 
ATOM     18  C   UNL     1      32.524  17.916  14.952  0.00  0.00    +0.049 A 
ATOM     19  C   UNL     1      33.089  16.853  14.247  0.00  0.00    +0.156 A 
ATOM     20  C   UNL     1      33.949  17.130  13.181  0.00  0.00    +0.165 A 
ATOM     21  F   UNL     1      34.471  16.132  12.454  0.00  0.00    -0.202 F 
ATOM     22  C   UNL     1      34.318  18.445  12.874  0.00  0.00    +0.047 A 
BRANCH  19  23
ATOM     23  O   UNL     1      32.866  15.537  14.555  0.00  0.00    -0.489 OA
BRANCH  23  24
ATOM     24  C   UNL     1      31.534  15.085  14.293  0.00  0.00    +0.232 C 
BRANCH  24  25
ATOM     25  C   UNL     1      31.514  14.370  12.982  0.00  0.00    +0.027 C 
ATOM     26  C   UNL     1      31.041  15.077  11.738  0.00  0.00    +0.007 C 
ATOM     27  C   UNL     1      30.208  13.976  12.337  0.00  0.00    +0.007 C 
ENDBRANCH  24  25
ENDBRANCH  23  24
ENDBRANCH  19  23
ENDBRANCH   1  16
TORSDOF 6
ENDMDL
MODEL 4
REMARK VINA RESULT:      -5.7      4.586      9.191
REMARK  Name = ZINC000543478179
REMARK  8 active torsions:
REMARK  status: ('A' for Active; 'I' for Inactive)
REMARK    1  A    between atoms: C_1  and  C_2
REMARK    2  A    between atoms: C_2  and  N_3
REMARK    3  A    between atoms: N_9  and  C_10
REMARK    4  A    between atoms: C_10  and  C_11
REMARK    5  A    between atoms: C_10  and  C_12
REMARK    6  A    between atoms: C_15  and  O_16
REMARK    7  A    between atoms: O_16  and  C_17
REMARK    8  A    between atoms: C_17  and  C_18
REMARK                            x       y       z     vdW  Elec       q    Type
REMARK                         _______ _______ _______ _____ _____    ______ ____
ROOT
ATOM      1  C   UNL     1      33.250  20.674  13.935  0.00  0.00    +0.102 C 
ATOM      2  C   UNL     1      31.893  21.377  14.077  0.00  0.00    +0.033 C 
ENDROOT
BRANCH   1   9
ATOM      3  N   UNL     1      32.125  14.429  13.162  0.00  0.00    -0.299 N 
ATOM      4  C   UNL     1      31.611  14.974  14.419  0.00  0.00    +0.127 C 
ATOM      5  C   UNL     1      32.632  15.888  15.105  0.00  0.00    +0.129 C 
ATOM      6  N   UNL     1      32.985  16.979  14.202  0.00  0.00    -0.275 N 
ATOM      7  C   UNL     1      32.897  18.295  14.636  0.00  0.00    +0.303 C 
ATOM      8  O   UNL     1      32.573  18.604  15.774  0.00  0.00    -0.253 OA
ATOM      9  N   UNL     1      33.171  19.235  13.672  0.00  0.00    -0.293 N 
ATOM     10  C   UNL     1      33.395  16.559  12.861  0.00  0.00    +0.205 C 
ATOM     11  C   UNL     1      33.100  15.109  12.435  0.00  0.00    +0.233 C 
ATOM     12  O   UNL     1      33.609  14.644  11.415  0.00  0.00    -0.274 OA
ATOM     13  H   UNL     1      33.811  18.924  12.962  0.00  0.00    +0.151 HD
BRANCH   3  15
ATOM     14  C   UNL     1      30.135  13.910  11.793  0.00  0.00    +0.024 C 
ATOM     15  C   UNL     1      31.374  13.368  12.493  0.00  0.00    +0.104 C 
ENDBRANCH   3  15
ENDBRANCH   1   9
BRANCH   1  16
ATOM     16  C   UNL     1      34.040  21.308  12.796  0.00  0.00    -0.024 A 
ATOM     17  C   UNL     1      34.384  22.672  12.861  0.00  0.00    +0.009 A 
ATOM     18  C   UNL     1      35.029  23.304  11.803  0.00  0.00    +0.049 A 
ATOM     19  C   UNL     1      35.307  22.600  10.631  0.00  0.00    +0.156 A 
ATOM     20  C   UNL     1      35.029  21.231  10.582  0.00  0.00    +0.165 A 
ATOM     21  F   UNL     1      35.328  20.518   9.487  0.00  0.00    -0.202 F 
ATOM     22  C   UNL     1      34.398  20.585  11.650  0.00  0.00    +0.047 A 
BRANCH  19  23
ATOM     23  O   UNL     1      35.822  23.182   9.503  0.00  0.00    -0.489 OA
BRANCH  23  24
ATOM     24  C   UNL     1      34.976  24.171   8.908  0.00  0.00    +0.232 C 
BRANCH  24  25
ATOM     25  C   UNL     1      33.560  23.703   8.975  0.00  0.00    +0.027 C 
ATOM     26  C   UNL     1      32.578  24.095   7.902  0.00  0.00    +0.007 C 
ATOM     27  C   UNL     1      32.441  24.667   9.287  0.00  0.00    +0.007 C 
ENDBRANCH  24  25
ENDBRANCH  23  24
ENDBRANCH  19  23
ENDBRANCH   1  16
TORSDOF 6
ENDMDL
MODEL 5
REMARK VINA RESULT:      -5.7      5.555     10.750
REMARK  Name = ZINC000543478179
REMARK  8 active torsions:
REMARK  status: ('A' for Active; 'I' for Inactive)
REMARK    1  A    between atoms: C_1  and  C_2
REMARK    2  A    between atoms: C_2  and  N_3
REMARK    3  A    between atoms: N_9  and  C_10
REMARK    4  A    between atoms: C_10  and  C_11
REMARK    5  A    between atoms: C_10  and  C_12
REMARK    6  A    between atoms: C_15  and  O_16
REMARK    7  A    between atoms: O_16  and  C_17
REMARK    8  A    between atoms: C_17  and  C_18
REMARK                            x       y       z     vdW  Elec       q    Type
REMARK                         _______ _______ _______ _____ _____    ______ ____
ROOT
ATOM      1  C   UNL     1      32.709  14.611  12.651  0.00  0.00    +0.102 C 
ATOM      2  C   UNL     1      31.300  14.673  12.044  0.00  0.00    +0.033 C 
ENDROOT
BRANCH   1   9
ATOM      3  N   UNL     1      36.767  12.722   8.087  0.00  0.00    -0.299 N 
ATOM      4  C   UNL     1      35.824  11.686   8.510  0.00  0.00    +0.127 C 
ATOM      5  C   UNL     1      35.690  11.622  10.035  0.00  0.00    +0.129 C 
ATOM      6  N   UNL     1      35.251  12.922  10.534  0.00  0.00    -0.275 N 
ATOM      7  C   UNL     1      34.142  13.009  11.364  0.00  0.00    +0.303 C 
ATOM      8  O   UNL     1      33.517  12.030  11.749  0.00  0.00    -0.253 OA
ATOM      9  N   UNL     1      33.774  14.290  11.697  0.00  0.00    -0.293 N 
ATOM     10  C   UNL     1      36.047  14.060  10.069  0.00  0.00    +0.205 C 
ATOM     11  C   UNL     1      37.007  13.836   8.887  0.00  0.00    +0.233 C 
ATOM     12  O   UNL     1      37.849  14.689   8.599  0.00  0.00    -0.274 OA
ATOM     13  H   UNL     1      34.535  14.947  11.714  0.00  0.00    +0.151 HD
BRANCH   3  15
ATOM     14  C   UNL     1      38.441  11.946   6.444  0.00  0.00    +0.024 C 
ATOM     15  C   UNL     1      37.183  12.769   6.686  0.00  0.00    +0.104 C 
ENDBRANCH   3  15
ENDBRANCH   1   9
BRANCH   1  16
ATOM     16  C   UNL     1      33.052  15.952  13.290  0.00  0.00    -0.024 A 
ATOM     17  C   UNL     1      32.505  16.286  14.543  0.00  0.00    +0.009 A 
ATOM     18  C   UNL     1      32.727  17.534  15.118  0.00  0.00    +0.049 A 
ATOM     19  C   UNL     1      33.464  18.499  14.432  0.00  0.00    +0.156 A 
ATOM     20  C   UNL     1      34.066  18.155  13.218  0.00  0.00    +0.165 A 
ATOM     21  F   UNL     1      34.820  19.046  12.559  0.00  0.00    -0.202 F 
ATOM     22  C   UNL     1      33.863  16.895  12.644  0.00  0.00    +0.047 A 
BRANCH  19  23
ATOM     23  O   UNL     1      33.618  19.787  14.872  0.00  0.00    -0.489 OA
BRANCH  23  24
ATOM     24  C   UNL     1      32.438  20.591  14.774  0.00  0.00    +0.232 C 
BRANCH  24  25
ATOM     25  C   UNL     1      32.064  21.071  16.138  0.00  0.00    +0.027 C 
ATOM     26  C   UNL     1      31.051  20.315  16.958  0.00  0.00    +0.007 C 
ATOM     27  C   UNL     1      30.703  21.668  16.400  0.00  0.00    +0.007 C 
ENDBRANCH  24  25
ENDBRANCH  23  24
ENDBRANCH  19  23
ENDBRANCH   1  16
TORSDOF 6
ENDMDL
MODEL 6
REMARK VINA RESULT:      -5.6      3.477      4.164
REMARK  Name = ZINC000543478179
REMARK  8 active torsions:
REMARK  status: ('A' for Active; 'I' for Inactive)
REMARK    1  A    between atoms: C_1  and  C_2
REMARK    2  A    between atoms: C_2  and  N_3
REMARK    3  A    between atoms: N_9  and  C_10
REMARK    4  A    between atoms: C_10  and  C_11
REMARK    5  A    between atoms: C_10  and  C_12
REMARK    6  A    between atoms: C_15  and  O_16
REMARK    7  A    between atoms: O_16  and  C_17
REMARK    8  A    between atoms: C_17  and  C_18
REMARK                            x       y       z     vdW  Elec       q    Type
REMARK                         _______ _______ _______ _____ _____    ______ ____
ROOT
ATOM      1  C   UNL     1      32.908  20.701  16.100  0.00  0.00    +0.102 C 
ATOM      2  C   UNL     1      31.444  20.666  16.563  0.00  0.00    +0.033 C 
ENDROOT
BRANCH   1   9
ATOM      3  N   UNL     1      36.901  20.564  21.091  0.00  0.00    -0.299 N 
ATOM      4  C   UNL     1      36.643  21.908  20.572  0.00  0.00    +0.127 C 
ATOM      5  C   UNL     1      36.708  21.953  19.042  0.00  0.00    +0.129 C 
ATOM      6  N   UNL     1      35.732  21.017  18.492  0.00  0.00    -0.275 N 
ATOM      7  C   UNL     1      34.814  21.448  17.544  0.00  0.00    +0.303 C 
ATOM      8  O   UNL     1      34.798  22.587  17.098  0.00  0.00    -0.253 OA
ATOM      9  N   UNL     1      33.893  20.501  17.167  0.00  0.00    -0.293 N 
ATOM     10  C   UNL     1      35.808  19.659  19.035  0.00  0.00    +0.205 C 
ATOM     11  C   UNL     1      36.632  19.438  20.317  0.00  0.00    +0.233 C 
ATOM     12  O   UNL     1      36.906  18.297  20.691  0.00  0.00    -0.274 OA
ATOM     13  H   UNL     1      34.224  19.554  17.230  0.00  0.00    +0.151 HD
BRANCH   3  15
ATOM     14  C   UNL     1      36.032  21.116  23.337  0.00  0.00    +0.024 C 
ATOM     15  C   UNL     1      37.098  20.388  22.529  0.00  0.00    +0.104 C 
ENDBRANCH   3  15
ENDBRANCH   1   9
BRANCH   1  16
ATOM     16  C   UNL     1      33.140  19.620  15.050  0.00  0.00    -0.024 A 
ATOM     17  C   UNL     1      32.652  18.319  15.271  0.00  0.00    +0.009 A 
ATOM     18  C   UNL     1      32.918  17.287  14.375  0.00  0.00    +0.049 A 
ATOM     19  C   UNL     1      33.720  17.520  13.258  0.00  0.00    +0.156 A 
ATOM     20  C   UNL     1      34.154  18.822  12.996  0.00  0.00    +0.165 A 
ATOM     21  F   UNL     1      34.887  19.086  11.905  0.00  0.00    -0.202 F 
ATOM     22  C   UNL     1      33.874  19.868  13.883  0.00  0.00    +0.047 A 
BRANCH  19  23
ATOM     23  O   UNL     1      34.131  16.532  12.402  0.00  0.00    -0.489 OA
BRANCH  23  24
ATOM     24  C   UNL     1      33.757  15.210  12.802  0.00  0.00    +0.232 C 
BRANCH  24  25
ATOM     25  C   UNL     1      32.797  14.654  11.802  0.00  0.00    +0.027 C 
ATOM     26  C   UNL     1      31.354  15.087  11.813  0.00  0.00    +0.007 C 
ATOM     27  C   UNL     1      31.718  13.686  12.223  0.00  0.00    +0.007 C 
ENDBRANCH  24  25
ENDBRANCH  23  24
ENDBRANCH  19  23
ENDBRANCH   1  16
TORSDOF 6
ENDMDL
MODEL 7
REMARK VINA RESULT:      -5.5      5.540      7.980
REMARK  Name = ZINC000543478179
REMARK  8 active torsions:
REMARK  status: ('A' for Active; 'I' for Inactive)
REMARK    1  A    between atoms: C_1  and  C_2
REMARK    2  A    between atoms: C_2  and  N_3
REMARK    3  A    between atoms: N_9  and  C_10
REMARK    4  A    between atoms: C_10  and  C_11
REMARK    5  A    between atoms: C_10  and  C_12
REMARK    6  A    between atoms: C_15  and  O_16
REMARK    7  A    between atoms: O_16  and  C_17
REMARK    8  A    between atoms: C_17  and  C_18
REMARK                            x       y       z     vdW  Elec       q    Type
REMARK                         _______ _______ _______ _____ _____    ______ ____
ROOT
ATOM      1  C   UNL     1      36.661  24.752  13.318  0.00  0.00    +0.102 C 
ATOM      2  C   UNL     1      37.959  23.995  13.636  0.00  0.00    +0.033 C 
ENDROOT
BRANCH   1   9
ATOM      3  N   UNL     1      35.737  24.656   6.993  0.00  0.00    -0.299 N 
ATOM      4  C   UNL     1      36.800  25.565   7.425  0.00  0.00    +0.127 C 
ATOM      5  C   UNL     1      36.381  26.397   8.640  0.00  0.00    +0.129 C 
ATOM      6  N   UNL     1      36.023  25.502   9.737  0.00  0.00    -0.275 N 
ATOM      7  C   UNL     1      36.606  25.665  10.985  0.00  0.00    +0.303 C 
ATOM      8  O   UNL     1      37.395  26.565  11.243  0.00  0.00    -0.253 OA
ATOM      9  N   UNL     1      36.257  24.711  11.910  0.00  0.00    -0.293 N 
ATOM     10  C   UNL     1      35.055  24.460   9.388  0.00  0.00    +0.205 C 
ATOM     11  C   UNL     1      34.781  24.198   7.895  0.00  0.00    +0.233 C 
ATOM     12  O   UNL     1      33.830  23.494   7.552  0.00  0.00    -0.274 OA
ATOM     13  H   UNL     1      35.344  24.315  11.770  0.00  0.00    +0.151 HD
BRANCH   3  15
ATOM     14  C   UNL     1      37.109  24.429   4.951  0.00  0.00    +0.024 C 
ATOM     15  C   UNL     1      35.883  23.954   5.719  0.00  0.00    +0.104 C 
ENDBRANCH   3  15
ENDBRANCH   1   9
BRANCH   1  16
ATOM     16  C   UNL     1      35.516  24.177  14.143  0.00  0.00    -0.024 A 
ATOM     17  C   UNL     1      34.734  23.132  13.616  0.00  0.00    +0.009 A 
ATOM     18  C   UNL     1      33.629  22.641  14.305  0.00  0.00    +0.049 A 
ATOM     19  C   UNL     1      33.248  23.214  15.518  0.00  0.00    +0.156 A 
ATOM     20  C   UNL     1      34.056  24.207  16.080  0.00  0.00    +0.165 A 
ATOM     21  F   UNL     1      33.742  24.745  17.268  0.00  0.00    -0.202 F 
ATOM     22  C   UNL     1      35.179  24.692  15.402  0.00  0.00    +0.047 A 
BRANCH  19  23
ATOM     23  O   UNL     1      32.104  22.874  16.190  0.00  0.00    -0.489 OA
BRANCH  23  24
ATOM     24  C   UNL     1      31.335  21.843  15.564  0.00  0.00    +0.232 C 
BRANCH  24  25
ATOM     25  C   UNL     1      31.366  20.623  16.425  0.00  0.00    +0.027 C 
ATOM     26  C   UNL     1      32.638  20.219  17.123  0.00  0.00    +0.007 C 
ATOM     27  C   UNL     1      32.112  19.387  15.985  0.00  0.00    +0.007 C 
ENDBRANCH  24  25
ENDBRANCH  23  24
ENDBRANCH  19  23
ENDBRANCH   1  16
TORSDOF 6
ENDMDL
MODEL 8
REMARK VINA RESULT:      -5.5      6.251      7.960
REMARK  Name = ZINC000543478179
REMARK  8 active torsions:
REMARK  status: ('A' for Active; 'I' for Inactive)
REMARK    1  A    between atoms: C_1  and  C_2
REMARK    2  A    between atoms: C_2  and  N_3
REMARK    3  A    between atoms: N_9  and  C_10
REMARK    4  A    between atoms: C_10  and  C_11
REMARK    5  A    between atoms: C_10  and  C_12
REMARK    6  A    between atoms: C_15  and  O_16
REMARK    7  A    between atoms: O_16  and  C_17
REMARK    8  A    between atoms: C_17  and  C_18
REMARK                            x       y       z     vdW  Elec       q    Type
REMARK                         _______ _______ _______ _____ _____    ______ ____
ROOT
ATOM      1  C   UNL     1      33.621  23.906   9.867  0.00  0.00    +0.102 C 
ATOM      2  C   UNL     1      32.289  24.629   9.622  0.00  0.00    +0.033 C 
ENDROOT
BRANCH   1   9
ATOM      3  N   UNL     1      33.606  20.491  15.271  0.00  0.00    -0.299 N 
ATOM      4  C   UNL     1      34.447  21.687  15.326  0.00  0.00    +0.127 C 
ATOM      5  C   UNL     1      35.299  21.847  14.063  0.00  0.00    +0.129 C 
ATOM      6  N   UNL     1      34.423  21.913  12.897  0.00  0.00    -0.275 N 
ATOM      7  C   UNL     1      34.545  22.962  11.996  0.00  0.00    +0.303 C 
ATOM      8  O   UNL     1      35.395  23.837  12.099  0.00  0.00    -0.253 OA
ATOM      9  N   UNL     1      33.610  22.964  10.989  0.00  0.00    -0.293 N 
ATOM     10  C   UNL     1      33.443  20.830  12.801  0.00  0.00    +0.205 C 
ATOM     11  C   UNL     1      33.204  19.958  14.049  0.00  0.00    +0.233 C 
ATOM     12  O   UNL     1      32.560  18.912  13.962  0.00  0.00    -0.274 OA
ATOM     13  H   UNL     1      33.271  22.051  10.738  0.00  0.00    +0.151 HD
BRANCH   3  15
ATOM     14  C   UNL     1      31.516  20.693  16.572  0.00  0.00    +0.024 C 
ATOM     15  C   UNL     1      32.901  20.067  16.479  0.00  0.00    +0.104 C 
ENDBRANCH   3  15
ENDBRANCH   1   9
BRANCH   1  16
ATOM     16  C   UNL     1      34.022  23.131   8.617  0.00  0.00    -0.024 A 
ATOM     17  C   UNL     1      33.796  21.743   8.557  0.00  0.00    +0.009 A 
ATOM     18  C   UNL     1      34.226  20.989   7.469  0.00  0.00    +0.049 A 
ATOM     19  C   UNL     1      34.935  21.597   6.433  0.00  0.00    +0.156 A 
ATOM     20  C   UNL     1      35.106  22.983   6.452  0.00  0.00    +0.165 A 
ATOM     21  F   UNL     1      35.742  23.602   5.447  0.00  0.00    -0.202 F 
ATOM     22  C   UNL     1      34.660  23.750   7.534  0.00  0.00    +0.047 A 
BRANCH  19  23
ATOM     23  O   UNL     1      35.499  20.904   5.394  0.00  0.00    -0.489 OA
BRANCH  23  24
ATOM     24  C   UNL     1      36.795  20.366   5.676  0.00  0.00    +0.232 C 
BRANCH  24  25
ATOM     25  C   UNL     1      36.693  18.879   5.773  0.00  0.00    +0.027 C 
ATOM     26  C   UNL     1      36.700  18.204   7.120  0.00  0.00    +0.007 C 
ATOM     27  C   UNL     1      37.880  18.051   6.199  0.00  0.00    +0.007 C 
ENDBRANCH  24  25
ENDBRANCH  23  24
ENDBRANCH  19  23
ENDBRANCH   1  16
TORSDOF 6
ENDMDL
MODEL 9
REMARK VINA RESULT:      -5.5      4.056      7.153
REMARK  Name = ZINC000543478179
REMARK  8 active torsions:
REMARK  status: ('A' for Active; 'I' for Inactive)
REMARK    1  A    between atoms: C_1  and  C_2
REMARK    2  A    between atoms: C_2  and  N_3
REMARK    3  A    between atoms: N_9  and  C_10
REMARK    4  A    between atoms: C_10  and  C_11
REMARK    5  A    between atoms: C_10  and  C_12
REMARK    6  A    between atoms: C_15  and  O_16
REMARK    7  A    between atoms: O_16  and  C_17
REMARK    8  A    between atoms: C_17  and  C_18
REMARK                            x       y       z     vdW  Elec       q    Type
REMARK                         _______ _______ _______ _____ _____    ______ ____
ROOT
ATOM      1  C   UNL     1      32.049  20.954  15.426  0.00  0.00    +0.102 C 
ATOM      2  C   UNL     1      30.936  21.914  15.870  0.00  0.00    +0.033 C 
ENDROOT
BRANCH   1   9
ATOM      3  N   UNL     1      34.658  22.174   9.719  0.00  0.00    -0.299 N 
ATOM      4  C   UNL     1      34.291  20.771   9.917  0.00  0.00    +0.127 C 
ATOM      5  C   UNL     1      34.718  20.258  11.296  0.00  0.00    +0.129 C 
ATOM      6  N   UNL     1      34.096  21.081  12.329  0.00  0.00    -0.275 N 
ATOM      7  C   UNL     1      33.373  20.483  13.352  0.00  0.00    +0.303 C 
ATOM      8  O   UNL     1      33.258  19.270  13.468  0.00  0.00    -0.253 OA
ATOM      9  N   UNL     1      32.763  21.362  14.213  0.00  0.00    -0.293 N 
ATOM     10  C   UNL     1      34.286  22.523  12.164  0.00  0.00    +0.205 C 
ATOM     11  C   UNL     1      34.798  23.034  10.804  0.00  0.00    +0.233 C 
ATOM     12  O   UNL     1      35.178  24.200  10.681  0.00  0.00    -0.274 OA
ATOM     13  H   UNL     1      33.237  22.243  14.309  0.00  0.00    +0.151 HD
BRANCH   3  15
ATOM     14  C   UNL     1      33.085  23.133   8.072  0.00  0.00    +0.024 C 
ATOM     15  C   UNL     1      34.528  22.756   8.384  0.00  0.00    +0.104 C 
ENDBRANCH   3  15
ENDBRANCH   1   9
BRANCH   1  16
ATOM     16  C   UNL     1      33.078  20.810  16.540  0.00  0.00    -0.024 A 
ATOM     17  C   UNL     1      34.107  21.762  16.665  0.00  0.00    +0.009 A 
ATOM     18  C   UNL     1      35.112  21.617  17.617  0.00  0.00    +0.049 A 
ATOM     19  C   UNL     1      35.141  20.490  18.438  0.00  0.00    +0.156 A 
ATOM     20  C   UNL     1      34.089  19.573  18.366  0.00  0.00    +0.165 A 
ATOM     21  F   UNL     1      34.064  18.504  19.176  0.00  0.00    -0.202 F 
ATOM     22  C   UNL     1      33.064  19.723  17.425  0.00  0.00    +0.047 A 
BRANCH  19  23
ATOM     23  O   UNL     1      36.164  20.213  19.307  0.00  0.00    -0.489 OA
BRANCH  23  24
ATOM     24  C   UNL     1      36.279  21.132  20.398  0.00  0.00    +0.232 C 
BRANCH  24  25
ATOM     25  C   UNL     1      36.103  20.387  21.680  0.00  0.00    +0.027 C 
ATOM     26  C   UNL     1      35.831  21.133  22.960  0.00  0.00    +0.007 C 
ATOM     27  C   UNL     1      37.156  20.450  22.760  0.00  0.00    +0.007 C 
ENDBRANCH  24  25
ENDBRANCH  23  24
ENDBRANCH  19  23
ENDBRANCH   1  16
TORSDOF 6
ENDMDL
