MODEL 1
REMARK VINA RESULT:      -7.1      0.000      0.000
REMARK  Name = ZINC000560333501
REMARK  5 active torsions:
REMARK  status: ('A' for Active; 'I' for Inactive)
REMARK    1  A    between atoms: C_2  and  C_3
REMARK    2  A    between atoms: C_7  and  C_8
REMARK    3  A    between atoms: C_8  and  C_9
REMARK    4  A    between atoms: N_11  and  C_12
REMARK    5  A    between atoms: C_12  and  C_13
REMARK                            x       y       z     vdW  Elec       q    Type
REMARK                         _______ _______ _______ _____ _____    ______ ____
ROOT
ATOM      1  C   UNL     1      14.076   6.681   6.903  0.00  0.00    +0.217 C 
ATOM      2  O   UNL     1      14.841   7.156   6.059  0.00  0.00    -0.275 OA
ATOM      3  N   UNL     1      13.494   5.431   6.780  0.00  0.00    -0.315 N 
ATOM      4  H   UNL     1      13.140   5.022   7.635  0.00  0.00    +0.149 HD
ENDROOT
BRANCH   1   5
ATOM      5  C   UNL     1      13.717   7.458   8.147  0.00  0.00    +0.131 C 
BRANCH   5  10
ATOM      6  C   UNL     1      12.124   5.750  11.188  0.00  0.00    +0.052 A 
ATOM      7  C   UNL     1      13.176   4.931  11.615  0.00  0.00    +0.019 A 
ATOM      8  C   UNL     1      14.394   4.954  10.937  0.00  0.00    +0.002 A 
ATOM      9  C   UNL     1      14.568   5.795   9.836  0.00  0.00    +0.004 A 
ATOM     10  C   UNL     1      13.529   6.627   9.398  0.00  0.00    -0.037 A 
ATOM     11  C   UNL     1      12.301   6.591  10.080  0.00  0.00    +0.023 A 
BRANCH   6  13
ATOM     12  N   UNL     1       9.847   5.672  12.428  0.00  0.00    -0.191 NA
ATOM     13  C   UNL     1      10.866   5.712  11.874  0.00  0.00    +0.099 C 
ENDBRANCH   6  13
ENDBRANCH   5  10
ENDBRANCH   1   5
BRANCH   3  14
ATOM     14  C   UNL     1      14.044   4.514   5.797  0.00  0.00    +0.108 C 
BRANCH  14  15
ATOM     15  C   UNL     1      15.490   4.039   6.035  0.00  0.00    +0.011 C 
ATOM     16  C   UNL     1      15.934   2.936   5.078  0.00  0.00    +0.033 C 
ATOM     17  C   UNL     1      15.054   1.705   5.231  0.00  0.00    +0.161 C 
ATOM     18  O   UNL     1      14.874   1.294   6.584  0.00  0.00    -0.373 OA
ATOM     19  C   UNL     1      14.731   2.261   7.664  0.00  0.00    +0.070 C 
ATOM     20  C   UNL     1      13.284   2.647   8.131  0.00  0.00    +0.035 C 
ATOM     21  C   UNL     1      13.325   1.467   9.103  0.00  0.00    +0.006 C 
ATOM     22  C   UNL     1      14.862   1.569   9.064  0.00  0.00    +0.035 C 
ATOM     23  C   UNL     1      15.653   3.470   7.460  0.00  0.00    +0.040 C 
ENDBRANCH  14  15
ENDBRANCH   3  14
TORSDOF 5
ENDMDL
MODEL 2
REMARK VINA RESULT:      -6.9      2.406      5.629
REMARK  Name = ZINC000560333501
REMARK  5 active torsions:
REMARK  status: ('A' for Active; 'I' for Inactive)
REMARK    1  A    between atoms: C_2  and  C_3
REMARK    2  A    between atoms: C_7  and  C_8
REMARK    3  A    between atoms: C_8  and  C_9
REMARK    4  A    between atoms: N_11  and  C_12
REMARK    5  A    between atoms: C_12  and  C_13
REMARK                            x       y       z     vdW  Elec       q    Type
REMARK                         _______ _______ _______ _____ _____    ______ ____
ROOT
ATOM      1  C   UNL     1      13.560   3.662   6.178  0.00  0.00    +0.217 C 
ATOM      2  O   UNL     1      12.816   2.682   6.085  0.00  0.00    -0.275 OA
ATOM      3  N   UNL     1      13.172   4.853   6.767  0.00  0.00    -0.315 N 
ATOM      4  H   UNL     1      13.922   5.468   7.059  0.00  0.00    +0.149 HD
ENDROOT
BRANCH   1   5
ATOM      5  C   UNL     1      14.970   3.619   5.639  0.00  0.00    +0.131 C 
BRANCH   5  10
ATOM      6  C   UNL     1      17.414   3.896   8.581  0.00  0.00    +0.052 A 
ATOM      7  C   UNL     1      17.911   2.589   8.639  0.00  0.00    +0.019 A 
ATOM      8  C   UNL     1      17.474   1.638   7.717  0.00  0.00    +0.002 A 
ATOM      9  C   UNL     1      16.547   1.988   6.734  0.00  0.00    +0.004 A 
ATOM     10  C   UNL     1      16.043   3.294   6.656  0.00  0.00    -0.037 A 
ATOM     11  C   UNL     1      16.479   4.243   7.595  0.00  0.00    +0.023 A 
BRANCH   6  13
ATOM     12  N   UNL     1      18.208   5.650  10.320  0.00  0.00    -0.191 NA
ATOM     13  C   UNL     1      17.848   4.867   9.541  0.00  0.00    +0.099 C 
ENDBRANCH   6  13
ENDBRANCH   5  10
ENDBRANCH   1   5
BRANCH   3  14
ATOM     14  C   UNL     1      11.973   4.854   7.586  0.00  0.00    +0.108 C 
BRANCH  14  15
ATOM     15  C   UNL     1      11.222   6.194   7.704  0.00  0.00    +0.011 C 
ATOM     16  C   UNL     1      12.093   7.410   7.401  0.00  0.00    +0.033 C 
ATOM     17  C   UNL     1      13.259   7.491   8.374  0.00  0.00    +0.161 C 
ATOM     18  O   UNL     1      12.876   7.347   9.740  0.00  0.00    -0.373 OA
ATOM     19  C   UNL     1      11.829   6.419  10.147  0.00  0.00    +0.070 C 
ATOM     20  C   UNL     1      12.252   4.997  10.654  0.00  0.00    +0.035 C 
ATOM     21  C   UNL     1      12.376   5.578  12.062  0.00  0.00    +0.006 C 
ATOM     22  C   UNL     1      11.388   6.678  11.628  0.00  0.00    +0.035 C 
ATOM     23  C   UNL     1      10.677   6.394   9.134  0.00  0.00    +0.040 C 
ENDBRANCH  14  15
ENDBRANCH   3  14
TORSDOF 5
ENDMDL
MODEL 3
REMARK VINA RESULT:      -6.7      1.787      4.003
REMARK  Name = ZINC000560333501
REMARK  5 active torsions:
REMARK  status: ('A' for Active; 'I' for Inactive)
REMARK    1  A    between atoms: C_2  and  C_3
REMARK    2  A    between atoms: C_7  and  C_8
REMARK    3  A    between atoms: C_8  and  C_9
REMARK    4  A    between atoms: N_11  and  C_12
REMARK    5  A    between atoms: C_12  and  C_13
REMARK                            x       y       z     vdW  Elec       q    Type
REMARK                         _______ _______ _______ _____ _____    ______ ____
ROOT
ATOM      1  C   UNL     1      14.830   2.224   7.618  0.00  0.00    +0.217 C 
ATOM      2  O   UNL     1      15.044   1.255   6.885  0.00  0.00    -0.275 OA
ATOM      3  N   UNL     1      15.274   3.503   7.332  0.00  0.00    -0.315 N 
ATOM      4  H   UNL     1      14.803   4.255   7.821  0.00  0.00    +0.149 HD
ENDROOT
BRANCH   1   5
ATOM      5  C   UNL     1      14.056   2.065   8.906  0.00  0.00    +0.131 C 
BRANCH   5  10
ATOM      6  C   UNL     1      11.423   4.835   9.211  0.00  0.00    +0.052 A 
ATOM      7  C   UNL     1      11.855   5.487  10.371  0.00  0.00    +0.019 A 
ATOM      8  C   UNL     1      13.002   5.046  11.030  0.00  0.00    +0.002 A 
ATOM      9  C   UNL     1      13.722   3.959  10.533  0.00  0.00    +0.004 A 
ATOM     10  C   UNL     1      13.309   3.297   9.368  0.00  0.00    -0.037 A 
ATOM     11  C   UNL     1      12.146   3.740   8.716  0.00  0.00    +0.023 A 
BRANCH   6  13
ATOM     12  N   UNL     1       9.272   5.642   8.006  0.00  0.00    -0.191 NA
ATOM     13  C   UNL     1      10.232   5.276   8.546  0.00  0.00    +0.099 C 
ENDBRANCH   6  13
ENDBRANCH   5  10
ENDBRANCH   1   5
BRANCH   3  14
ATOM     14  C   UNL     1      15.723   3.785   5.980  0.00  0.00    +0.108 C 
BRANCH  14  15
ATOM     15  C   UNL     1      14.626   3.936   4.909  0.00  0.00    +0.011 C 
ATOM     16  C   UNL     1      15.092   4.678   3.659  0.00  0.00    +0.033 C 
ATOM     17  C   UNL     1      15.540   6.089   4.007  0.00  0.00    +0.161 C 
ATOM     18  O   UNL     1      14.611   6.801   4.821  0.00  0.00    -0.373 OA
ATOM     19  C   UNL     1      13.859   6.141   5.881  0.00  0.00    +0.070 C 
ATOM     20  C   UNL     1      14.413   6.220   7.346  0.00  0.00    +0.035 C 
ATOM     21  C   UNL     1      13.643   7.529   7.524  0.00  0.00    +0.006 C 
ATOM     22  C   UNL     1      12.699   7.054   6.404  0.00  0.00    +0.035 C 
ATOM     23  C   UNL     1      13.424   4.730   5.463  0.00  0.00    +0.040 C 
ENDBRANCH  14  15
ENDBRANCH   3  14
TORSDOF 5
ENDMDL
MODEL 4
REMARK VINA RESULT:      -6.7      2.019      2.844
REMARK  Name = ZINC000560333501
REMARK  5 active torsions:
REMARK  status: ('A' for Active; 'I' for Inactive)
REMARK    1  A    between atoms: C_2  and  C_3
REMARK    2  A    between atoms: C_7  and  C_8
REMARK    3  A    between atoms: C_8  and  C_9
REMARK    4  A    between atoms: N_11  and  C_12
REMARK    5  A    between atoms: C_12  and  C_13
REMARK                            x       y       z     vdW  Elec       q    Type
REMARK                         _______ _______ _______ _____ _____    ______ ____
ROOT
ATOM      1  C   UNL     1      13.122   6.509   6.178  0.00  0.00    +0.217 C 
ATOM      2  O   UNL     1      13.317   7.291   5.244  0.00  0.00    -0.275 OA
ATOM      3  N   UNL     1      13.101   5.134   6.023  0.00  0.00    -0.315 N 
ATOM      4  H   UNL     1      13.235   4.591   6.867  0.00  0.00    +0.149 HD
ENDROOT
BRANCH   1   5
ATOM      5  C   UNL     1      12.886   7.021   7.579  0.00  0.00    +0.131 C 
BRANCH   5  10
ATOM      6  C   UNL     1      15.554   5.590   9.932  0.00  0.00    +0.052 A 
ATOM      7  C   UNL     1      14.757   4.892  10.846  0.00  0.00    +0.019 A 
ATOM      8  C   UNL     1      13.372   4.867  10.684  0.00  0.00    +0.002 A 
ATOM      9  C   UNL     1      12.780   5.533   9.610  0.00  0.00    +0.004 A 
ATOM     10  C   UNL     1      13.562   6.232   8.680  0.00  0.00    -0.037 A 
ATOM     11  C   UNL     1      14.956   6.261   8.856  0.00  0.00    +0.023 A 
BRANCH   6  13
ATOM     12  N   UNL     1      18.127   5.673  10.256  0.00  0.00    -0.191 NA
ATOM     13  C   UNL     1      16.976   5.631  10.111  0.00  0.00    +0.099 C 
ENDBRANCH   6  13
ENDBRANCH   5  10
ENDBRANCH   1   5
BRANCH   3  14
ATOM     14  C   UNL     1      13.641   4.575   4.797  0.00  0.00    +0.108 C 
BRANCH  14  15
ATOM     15  C   UNL     1      15.167   4.672   4.610  0.00  0.00    +0.011 C 
ATOM     16  C   UNL     1      15.723   3.675   3.598  0.00  0.00    +0.033 C 
ATOM     17  C   UNL     1      15.442   2.247   4.042  0.00  0.00    +0.161 C 
ATOM     18  O   UNL     1      15.791   1.989   5.399  0.00  0.00    -0.373 OA
ATOM     19  C   UNL     1      15.586   2.984   6.444  0.00  0.00    +0.070 C 
ATOM     20  C   UNL     1      14.279   2.899   7.306  0.00  0.00    +0.035 C 
ATOM     21  C   UNL     1      15.013   1.954   8.257  0.00  0.00    +0.006 C 
ATOM     22  C   UNL     1      16.331   2.581   7.762  0.00  0.00    +0.035 C 
ATOM     23  C   UNL     1      15.900   4.399   5.940  0.00  0.00    +0.040 C 
ENDBRANCH  14  15
ENDBRANCH   3  14
TORSDOF 5
ENDMDL
MODEL 5
REMARK VINA RESULT:      -6.7      2.242      3.897
REMARK  Name = ZINC000560333501
REMARK  5 active torsions:
REMARK  status: ('A' for Active; 'I' for Inactive)
REMARK    1  A    between atoms: C_2  and  C_3
REMARK    2  A    between atoms: C_7  and  C_8
REMARK    3  A    between atoms: C_8  and  C_9
REMARK    4  A    between atoms: N_11  and  C_12
REMARK    5  A    between atoms: C_12  and  C_13
REMARK                            x       y       z     vdW  Elec       q    Type
REMARK                         _______ _______ _______ _____ _____    ______ ____
ROOT
ATOM      1  C   UNL     1      14.937   4.210   9.823  0.00  0.00    +0.217 C 
ATOM      2  O   UNL     1      15.109   3.077   9.365  0.00  0.00    -0.275 OA
ATOM      3  N   UNL     1      15.264   5.364   9.132  0.00  0.00    -0.315 N 
ATOM      4  H   UNL     1      14.818   6.214   9.454  0.00  0.00    +0.149 HD
ENDROOT
BRANCH   1   5
ATOM      5  C   UNL     1      14.347   4.408  11.199  0.00  0.00    +0.131 C 
BRANCH   5  10
ATOM      6  C   UNL     1      10.858   5.586  10.131  0.00  0.00    +0.052 A 
ATOM      7  C   UNL     1      10.314   5.961  11.364  0.00  0.00    +0.019 A 
ATOM      8  C   UNL     1      11.081   5.855  12.524  0.00  0.00    +0.002 A 
ATOM      9  C   UNL     1      12.392   5.379  12.456  0.00  0.00    +0.004 A 
ATOM     10  C   UNL     1      12.957   5.006  11.229  0.00  0.00    -0.037 A 
ATOM     11  C   UNL     1      12.174   5.106  10.066  0.00  0.00    +0.023 A 
BRANCH   6  13
ATOM     12  N   UNL     1       9.416   5.744   7.979  0.00  0.00    -0.191 NA
ATOM     13  C   UNL     1      10.062   5.678   8.942  0.00  0.00    +0.099 C 
ENDBRANCH   6  13
ENDBRANCH   5  10
ENDBRANCH   1   5
BRANCH   3  14
ATOM     14  C   UNL     1      15.517   5.261   7.706  0.00  0.00    +0.108 C 
BRANCH  14  15
ATOM     15  C   UNL     1      14.874   6.340   6.815  0.00  0.00    +0.011 C 
ATOM     16  C   UNL     1      13.349   6.317   6.833  0.00  0.00    +0.033 C 
ATOM     17  C   UNL     1      12.825   4.981   6.326  0.00  0.00    +0.161 C 
ATOM     18  O   UNL     1      13.421   4.561   5.101  0.00  0.00    -0.373 OA
ATOM     19  C   UNL     1      14.832   4.789   4.818  0.00  0.00    +0.070 C 
ATOM     20  C   UNL     1      15.846   3.629   5.110  0.00  0.00    +0.035 C 
ATOM     21  C   UNL     1      15.582   3.096   3.702  0.00  0.00    +0.006 C 
ATOM     22  C   UNL     1      15.157   4.524   3.309  0.00  0.00    +0.035 C 
ATOM     23  C   UNL     1      15.294   6.155   5.341  0.00  0.00    +0.040 C 
ENDBRANCH  14  15
ENDBRANCH   3  14
TORSDOF 5
ENDMDL
MODEL 6
REMARK VINA RESULT:      -6.7      1.129      2.657
REMARK  Name = ZINC000560333501
REMARK  5 active torsions:
REMARK  status: ('A' for Active; 'I' for Inactive)
REMARK    1  A    between atoms: C_2  and  C_3
REMARK    2  A    between atoms: C_7  and  C_8
REMARK    3  A    between atoms: C_8  and  C_9
REMARK    4  A    between atoms: N_11  and  C_12
REMARK    5  A    between atoms: C_12  and  C_13
REMARK                            x       y       z     vdW  Elec       q    Type
REMARK                         _______ _______ _______ _____ _____    ______ ____
ROOT
ATOM      1  C   UNL     1      14.043   6.444   7.037  0.00  0.00    +0.217 C 
ATOM      2  O   UNL     1      15.160   6.680   6.569  0.00  0.00    -0.275 OA
ATOM      3  N   UNL     1      13.228   5.425   6.574  0.00  0.00    -0.315 N 
ATOM      4  H   UNL     1      12.490   5.128   7.201  0.00  0.00    +0.149 HD
ENDROOT
BRANCH   1   5
ATOM      5  C   UNL     1      13.483   7.276   8.166  0.00  0.00    +0.131 C 
BRANCH   5  10
ATOM      6  C   UNL     1      11.834   5.799  11.296  0.00  0.00    +0.052 A 
ATOM      7  C   UNL     1      12.874   5.009  11.799  0.00  0.00    +0.019 A 
ATOM      8  C   UNL     1      14.103   4.978  11.141  0.00  0.00    +0.002 A 
ATOM      9  C   UNL     1      14.300   5.736   9.985  0.00  0.00    +0.004 A 
ATOM     10  C   UNL     1      13.271   6.539   9.471  0.00  0.00    -0.037 A 
ATOM     11  C   UNL     1      12.032   6.556  10.134  0.00  0.00    +0.023 A 
BRANCH   6  13
ATOM     12  N   UNL     1       9.540   5.831  12.508  0.00  0.00    -0.191 NA
ATOM     13  C   UNL     1      10.565   5.814  11.963  0.00  0.00    +0.099 C 
ENDBRANCH   6  13
ENDBRANCH   5  10
ENDBRANCH   1   5
BRANCH   3  14
ATOM     14  C   UNL     1      13.824   4.398   5.737  0.00  0.00    +0.108 C 
BRANCH  14  15
ATOM     15  C   UNL     1      13.993   3.006   6.373  0.00  0.00    +0.011 C 
ATOM     16  C   UNL     1      15.029   2.969   7.493  0.00  0.00    +0.033 C 
ATOM     17  C   UNL     1      16.401   3.363   6.968  0.00  0.00    +0.161 C 
ATOM     18  O   UNL     1      16.776   2.680   5.775  0.00  0.00    -0.373 OA
ATOM     19  C   UNL     1      15.807   2.378   4.729  0.00  0.00    +0.070 C 
ATOM     20  C   UNL     1      15.694   3.363   3.514  0.00  0.00    +0.035 C 
ATOM     21  C   UNL     1      16.796   2.566   2.815  0.00  0.00    +0.006 C 
ATOM     22  C   UNL     1      16.394   1.363   3.690  0.00  0.00    +0.035 C 
ATOM     23  C   UNL     1      14.451   1.974   5.322  0.00  0.00    +0.040 C 
ENDBRANCH  14  15
ENDBRANCH   3  14
TORSDOF 5
ENDMDL
MODEL 7
REMARK VINA RESULT:      -6.6      2.465      4.000
REMARK  Name = ZINC000560333501
REMARK  5 active torsions:
REMARK  status: ('A' for Active; 'I' for Inactive)
REMARK    1  A    between atoms: C_2  and  C_3
REMARK    2  A    between atoms: C_7  and  C_8
REMARK    3  A    between atoms: C_8  and  C_9
REMARK    4  A    between atoms: N_11  and  C_12
REMARK    5  A    between atoms: C_12  and  C_13
REMARK                            x       y       z     vdW  Elec       q    Type
REMARK                         _______ _______ _______ _____ _____    ______ ____
ROOT
ATOM      1  C   UNL     1      14.345   4.853   9.127  0.00  0.00    +0.217 C 
ATOM      2  O   UNL     1      14.932   5.892   8.813  0.00  0.00    -0.275 OA
ATOM      3  N   UNL     1      13.325   4.302   8.370  0.00  0.00    -0.315 N 
ATOM      4  H   UNL     1      13.125   3.324   8.543  0.00  0.00    +0.149 HD
ENDROOT
BRANCH   1   5
ATOM      5  C   UNL     1      14.711   4.106  10.388  0.00  0.00    +0.131 C 
BRANCH   5  10
ATOM      6  C   UNL     1      13.474   4.375  14.007  0.00  0.00    +0.052 A 
ATOM      7  C   UNL     1      12.359   5.205  13.847  0.00  0.00    +0.019 A 
ATOM      8  C   UNL     1      12.001   5.651  12.575  0.00  0.00    +0.002 A 
ATOM      9  C   UNL     1      12.750   5.267  11.461  0.00  0.00    +0.004 A 
ATOM     10  C   UNL     1      13.866   4.430  11.601  0.00  0.00    -0.037 A 
ATOM     11  C   UNL     1      14.226   3.994  12.887  0.00  0.00    +0.023 A 
BRANCH   6  13
ATOM     12  N   UNL     1      14.153   3.580  16.382  0.00  0.00    -0.191 NA
ATOM     13  C   UNL     1      13.853   3.933  15.317  0.00  0.00    +0.099 C 
ENDBRANCH   6  13
ENDBRANCH   5  10
ENDBRANCH   1   5
BRANCH   3  14
ATOM     14  C   UNL     1      13.153   4.772   7.007  0.00  0.00    +0.108 C 
BRANCH  14  15
ATOM     15  C   UNL     1      12.953   3.690   5.928  0.00  0.00    +0.011 C 
ATOM     16  C   UNL     1      13.833   2.460   6.128  0.00  0.00    +0.033 C 
ATOM     17  C   UNL     1      15.306   2.839   6.080  0.00  0.00    +0.161 C 
ATOM     18  O   UNL     1      15.651   3.654   4.963  0.00  0.00    -0.373 OA
ATOM     19  C   UNL     1      14.757   4.692   4.467  0.00  0.00    +0.070 C 
ATOM     20  C   UNL     1      14.985   6.165   4.955  0.00  0.00    +0.035 C 
ATOM     21  C   UNL     1      15.960   6.358   3.793  0.00  0.00    +0.006 C 
ATOM     22  C   UNL     1      15.221   5.217   3.066  0.00  0.00    +0.035 C 
ATOM     23  C   UNL     1      13.291   4.244   4.528  0.00  0.00    +0.040 C 
ENDBRANCH  14  15
ENDBRANCH   3  14
TORSDOF 5
ENDMDL
MODEL 8
REMARK VINA RESULT:      -6.6      2.253      5.320
REMARK  Name = ZINC000560333501
REMARK  5 active torsions:
REMARK  status: ('A' for Active; 'I' for Inactive)
REMARK    1  A    between atoms: C_2  and  C_3
REMARK    2  A    between atoms: C_7  and  C_8
REMARK    3  A    between atoms: C_8  and  C_9
REMARK    4  A    between atoms: N_11  and  C_12
REMARK    5  A    between atoms: C_12  and  C_13
REMARK                            x       y       z     vdW  Elec       q    Type
REMARK                         _______ _______ _______ _____ _____    ______ ____
ROOT
ATOM      1  C   UNL     1      14.556   5.940   9.902  0.00  0.00    +0.217 C 
ATOM      2  O   UNL     1      15.582   6.613   9.774  0.00  0.00    -0.275 OA
ATOM      3  N   UNL     1      13.322   6.340   9.419  0.00  0.00    -0.315 N 
ATOM      4  H   UNL     1      12.632   5.607   9.309  0.00  0.00    +0.149 HD
ENDROOT
BRANCH   1   5
ATOM      5  C   UNL     1      14.588   4.609  10.616  0.00  0.00    +0.131 C 
BRANCH   5  10
ATOM      6  C   UNL     1      15.453   2.207   7.756  0.00  0.00    +0.052 A 
ATOM      7  C   UNL     1      14.786   1.048   8.169  0.00  0.00    +0.019 A 
ATOM      8  C   UNL     1      14.044   1.057   9.350  0.00  0.00    +0.002 A 
ATOM      9  C   UNL     1      13.962   2.220  10.118  0.00  0.00    +0.004 A 
ATOM     10  C   UNL     1      14.618   3.392   9.716  0.00  0.00    -0.037 A 
ATOM     11  C   UNL     1      15.372   3.372   8.531  0.00  0.00    +0.023 A 
BRANCH   6  13
ATOM     12  N   UNL     1      16.855   2.174   5.573  0.00  0.00    -0.191 NA
ATOM     13  C   UNL     1      16.231   2.190   6.552  0.00  0.00    +0.099 C 
ENDBRANCH   6  13
ENDBRANCH   5  10
ENDBRANCH   1   5
BRANCH   3  14
ATOM     14  C   UNL     1      13.283   7.424   8.454  0.00  0.00    +0.108 C 
BRANCH  14  15
ATOM     15  C   UNL     1      12.137   7.386   7.425  0.00  0.00    +0.011 C 
ATOM     16  C   UNL     1      11.241   6.157   7.555  0.00  0.00    +0.033 C 
ATOM     17  C   UNL     1      12.043   4.882   7.342  0.00  0.00    +0.161 C 
ATOM     18  O   UNL     1      12.865   4.910   6.177  0.00  0.00    -0.373 OA
ATOM     19  C   UNL     1      13.558   6.122   5.759  0.00  0.00    +0.070 C 
ATOM     20  C   UNL     1      15.055   6.309   6.189  0.00  0.00    +0.035 C 
ATOM     21  C   UNL     1      15.471   5.556   4.926  0.00  0.00    +0.006 C 
ATOM     22  C   UNL     1      14.125   5.976   4.306  0.00  0.00    +0.035 C 
ATOM     23  C   UNL     1      12.693   7.369   5.985  0.00  0.00    +0.040 C 
ENDBRANCH  14  15
ENDBRANCH   3  14
TORSDOF 5
ENDMDL
MODEL 9
REMARK VINA RESULT:      -6.5      2.152      5.496
REMARK  Name = ZINC000560333501
REMARK  5 active torsions:
REMARK  status: ('A' for Active; 'I' for Inactive)
REMARK    1  A    between atoms: C_2  and  C_3
REMARK    2  A    between atoms: C_7  and  C_8
REMARK    3  A    between atoms: C_8  and  C_9
REMARK    4  A    between atoms: N_11  and  C_12
REMARK    5  A    between atoms: C_12  and  C_13
REMARK                            x       y       z     vdW  Elec       q    Type
REMARK                         _______ _______ _______ _____ _____    ______ ____
ROOT
ATOM      1  C   UNL     1      14.203   6.992   7.687  0.00  0.00    +0.217 C 
ATOM      2  O   UNL     1      13.443   7.892   8.052  0.00  0.00    -0.275 OA
ATOM      3  N   UNL     1      14.921   6.202   8.569  0.00  0.00    -0.315 N 
ATOM      4  H   UNL     1      15.266   5.325   8.198  0.00  0.00    +0.149 HD
ENDROOT
BRANCH   1   5
ATOM      5  C   UNL     1      14.404   6.695   6.220  0.00  0.00    +0.131 C 
BRANCH   5  10
ATOM      6  C   UNL     1      15.326   3.121   5.179  0.00  0.00    +0.052 A 
ATOM      7  C   UNL     1      14.087   2.481   5.298  0.00  0.00    +0.019 A 
ATOM      8  C   UNL     1      12.963   3.208   5.688  0.00  0.00    +0.002 A 
ATOM      9  C   UNL     1      13.070   4.574   5.955  0.00  0.00    +0.004 A 
ATOM     10  C   UNL     1      14.301   5.235   5.834  0.00  0.00    -0.037 A 
ATOM     11  C   UNL     1      15.431   4.492   5.451  0.00  0.00    +0.023 A 
BRANCH   6  13
ATOM     12  N   UNL     1      17.421   1.761   4.479  0.00  0.00    -0.191 NA
ATOM     13  C   UNL     1      16.484   2.368   4.797  0.00  0.00    +0.099 C 
ENDBRANCH   6  13
ENDBRANCH   5  10
ENDBRANCH   1   5
BRANCH   3  14
ATOM     14  C   UNL     1      14.530   6.209   9.968  0.00  0.00    +0.108 C 
BRANCH  14  15
ATOM     15  C   UNL     1      13.150   5.610  10.298  0.00  0.00    +0.011 C 
ATOM     16  C   UNL     1      12.986   5.230  11.767  0.00  0.00    +0.033 C 
ATOM     17  C   UNL     1      14.011   4.180  12.169  0.00  0.00    +0.161 C 
ATOM     18  O   UNL     1      14.088   3.080  11.265  0.00  0.00    -0.373 OA
ATOM     19  C   UNL     1      13.960   3.262   9.825  0.00  0.00    +0.070 C 
ATOM     20  C   UNL     1      15.270   3.386   8.972  0.00  0.00    +0.035 C 
ATOM     21  C   UNL     1      15.285   1.862   8.845  0.00  0.00    +0.006 C 
ATOM     22  C   UNL     1      13.765   1.889   9.096  0.00  0.00    +0.035 C 
ATOM     23  C   UNL     1      12.903   4.321   9.486  0.00  0.00    +0.040 C 
ENDBRANCH  14  15
ENDBRANCH   3  14
TORSDOF 5
ENDMDL
