MODEL 1
REMARK VINA RESULT:      -6.8      0.000      0.000
REMARK  Name = ZINC000583127796
REMARK  2 active torsions:
REMARK  status: ('A' for Active; 'I' for Inactive)
REMARK    1  A    between atoms: C_2  and  C_4
REMARK    2  A    between atoms: C_7  and  C_8
REMARK                            x       y       z     vdW  Elec       q    Type
REMARK                         _______ _______ _______ _____ _____    ______ ____
ROOT
ATOM      1  C   UNL     1      30.366  16.046  13.719  0.00  0.00    +0.247 C 
ATOM      2  O   UNL     1      29.951  15.230  12.894  0.00  0.00    -0.270 OA
ATOM      3  N   UNL     1      31.721  16.152  14.072  0.00  0.00    -0.297 N 
ATOM      4  C   UNL     1      32.302  17.084  15.040  0.00  0.00    +0.108 C 
ATOM      5  C   UNL     1      33.432  17.908  14.451  0.00  0.00    +0.020 C 
ATOM      6  C   UNL     1      34.453  17.036  13.744  0.00  0.00    +0.011 C 
ATOM      7  C   UNL     1      33.818  16.071  12.713  0.00  0.00    -0.004 C 
ATOM      8  C   UNL     1      34.954  15.166  12.190  0.00  0.00    +0.020 C 
ATOM      9  C   UNL     1      34.601  14.635  10.818  0.00  0.00    +0.070 C 
ATOM     10  S   UNL     1      33.832  16.034   9.988  0.00  0.00    -0.160 S 
ATOM     11  C   UNL     1      33.239  16.838  11.503  0.00  0.00    +0.077 C 
ATOM     12  C   UNL     1      32.695  15.261  13.414  0.00  0.00    +0.115 C 
ENDROOT
BRANCH   1  16
ATOM     13  C   UNL     1      27.800  18.920  15.586  0.00  0.00    +0.037 A 
ATOM     14  C   UNL     1      27.628  17.563  15.874  0.00  0.00    +0.014 A 
ATOM     15  C   UNL     1      28.376  16.608  15.183  0.00  0.00    +0.014 A 
ATOM     16  C   UNL     1      29.373  17.007  14.292  0.00  0.00    +0.037 A 
ATOM     17  C   UNL     1      29.476  18.358  13.934  0.00  0.00    +0.014 A 
ATOM     18  C   UNL     1      28.680  19.313  14.573  0.00  0.00    +0.014 A 
BRANCH  13  20
ATOM     19  N   UNL     1      26.141  19.529  17.256  0.00  0.00    -0.325 N 
ATOM     20  C   UNL     1      27.059  19.966  16.342  0.00  0.00    +0.242 C 
ATOM     21  O   UNL     1      27.297  21.153  16.194  0.00  0.00    -0.270 OA
ATOM     22  H   UNL     1      25.734  20.241  17.850  0.00  0.00    +0.145 HD
ATOM     23  H   UNL     1      26.129  18.578  17.599  0.00  0.00    +0.145 HD
ENDBRANCH  13  20
ENDBRANCH   1  16
TORSDOF 2
ENDMDL
MODEL 2
REMARK VINA RESULT:      -6.2      3.540      4.629
REMARK  Name = ZINC000583127796
REMARK  2 active torsions:
REMARK  status: ('A' for Active; 'I' for Inactive)
REMARK    1  A    between atoms: C_2  and  C_4
REMARK    2  A    between atoms: C_7  and  C_8
REMARK                            x       y       z     vdW  Elec       q    Type
REMARK                         _______ _______ _______ _____ _____    ______ ____
ROOT
ATOM      1  C   UNL     1      31.535  19.972  14.962  0.00  0.00    +0.247 C 
ATOM      2  O   UNL     1      32.713  19.993  14.600  0.00  0.00    -0.270 OA
ATOM      3  N   UNL     1      30.592  19.075  14.437  0.00  0.00    -0.297 N 
ATOM      4  C   UNL     1      29.177  18.980  14.802  0.00  0.00    +0.108 C 
ATOM      5  C   UNL     1      28.777  17.579  15.227  0.00  0.00    +0.020 C 
ATOM      6  C   UNL     1      29.226  16.537  14.219  0.00  0.00    +0.011 C 
ATOM      7  C   UNL     1      30.728  16.646  13.860  0.00  0.00    -0.004 C 
ATOM      8  C   UNL     1      30.993  15.624  12.734  0.00  0.00    +0.020 C 
ATOM      9  C   UNL     1      32.453  15.227  12.730  0.00  0.00    +0.070 C 
ATOM     10  S   UNL     1      32.875  15.083  14.473  0.00  0.00    -0.160 S 
ATOM     11  C   UNL     1      31.624  16.261  15.059  0.00  0.00    +0.077 C 
ATOM     12  C   UNL     1      31.031  18.102  13.418  0.00  0.00    +0.115 C 
ENDROOT
BRANCH   1  16
ATOM     13  C   UNL     1      30.221  22.330  18.286  0.00  0.00    +0.037 A 
ATOM     14  C   UNL     1      29.658  22.552  17.027  0.00  0.00    +0.014 A 
ATOM     15  C   UNL     1      30.159  21.876  15.913  0.00  0.00    +0.014 A 
ATOM     16  C   UNL     1      31.142  20.897  16.070  0.00  0.00    +0.037 A 
ATOM     17  C   UNL     1      31.772  20.747  17.313  0.00  0.00    +0.014 A 
ATOM     18  C   UNL     1      31.318  21.473  18.419  0.00  0.00    +0.014 A 
BRANCH  13  20
ATOM     19  N   UNL     1      28.470  23.627  19.364  0.00  0.00    -0.325 N 
ATOM     20  C   UNL     1      29.673  22.992  19.501  0.00  0.00    +0.242 C 
ATOM     21  O   UNL     1      30.242  22.927  20.578  0.00  0.00    -0.270 OA
ATOM     22  H   UNL     1      28.049  23.966  20.221  0.00  0.00    +0.145 HD
ATOM     23  H   UNL     1      27.854  23.456  18.581  0.00  0.00    +0.145 HD
ENDBRANCH  13  20
ENDBRANCH   1  16
TORSDOF 2
ENDMDL
MODEL 3
REMARK VINA RESULT:      -6.2     20.149     22.337
REMARK  Name = ZINC000583127796
REMARK  2 active torsions:
REMARK  status: ('A' for Active; 'I' for Inactive)
REMARK    1  A    between atoms: C_2  and  C_4
REMARK    2  A    between atoms: C_7  and  C_8
REMARK                            x       y       z     vdW  Elec       q    Type
REMARK                         _______ _______ _______ _____ _____    ______ ____
ROOT
ATOM      1  C   UNL     1      11.388  18.813   5.342  0.00  0.00    +0.247 C 
ATOM      2  O   UNL     1      12.388  19.534   5.346  0.00  0.00    -0.270 OA
ATOM      3  N   UNL     1      10.343  18.964   4.418  0.00  0.00    -0.297 N 
ATOM      4  C   UNL     1       9.122  18.160   4.339  0.00  0.00    +0.108 C 
ATOM      5  C   UNL     1       8.903  17.562   2.962  0.00  0.00    +0.020 C 
ATOM      6  C   UNL     1       9.024  18.609   1.870  0.00  0.00    +0.011 C 
ATOM      7  C   UNL     1      10.330  19.435   1.962  0.00  0.00    -0.004 C 
ATOM      8  C   UNL     1      10.239  20.536   0.884  0.00  0.00    +0.020 C 
ATOM      9  C   UNL     1      11.628  20.989   0.489  0.00  0.00    +0.070 C 
ATOM     10  S   UNL     1      12.588  19.468   0.436  0.00  0.00    -0.160 S 
ATOM     11  C   UNL     1      11.569  18.571   1.641  0.00  0.00    +0.077 C 
ATOM     12  C   UNL     1      10.450  20.021   3.394  0.00  0.00    +0.115 C 
ENDROOT
BRANCH   1  16
ATOM     13  C   UNL     1      11.571  15.756   8.334  0.00  0.00    +0.037 A 
ATOM     14  C   UNL     1      12.053  15.484   7.051  0.00  0.00    +0.014 A 
ATOM     15  C   UNL     1      11.892  16.428   6.034  0.00  0.00    +0.014 A 
ATOM     16  C   UNL     1      11.354  17.684   6.322  0.00  0.00    +0.037 A 
ATOM     17  C   UNL     1      10.785  17.917   7.581  0.00  0.00    +0.014 A 
ATOM     18  C   UNL     1      10.883  16.947   8.583  0.00  0.00    +0.014 A 
BRANCH  13  20
ATOM     19  N   UNL     1      13.052  14.676   9.931  0.00  0.00    -0.325 N 
ATOM     20  C   UNL     1      11.778  14.795   9.451  0.00  0.00    +0.242 C 
ATOM     21  O   UNL     1      10.848  14.184   9.951  0.00  0.00    -0.270 OA
ATOM     22  H   UNL     1      13.160  14.115  10.768  0.00  0.00    +0.145 HD
ATOM     23  H   UNL     1      13.770  15.361   9.738  0.00  0.00    +0.145 HD
ENDBRANCH  13  20
ENDBRANCH   1  16
TORSDOF 2
ENDMDL
MODEL 4
REMARK VINA RESULT:      -6.2      2.418      3.829
REMARK  Name = ZINC000583127796
REMARK  2 active torsions:
REMARK  status: ('A' for Active; 'I' for Inactive)
REMARK    1  A    between atoms: C_2  and  C_4
REMARK    2  A    between atoms: C_7  and  C_8
REMARK                            x       y       z     vdW  Elec       q    Type
REMARK                         _______ _______ _______ _____ _____    ______ ____
ROOT
ATOM      1  C   UNL     1      30.137  20.059  14.856  0.00  0.00    +0.247 C 
ATOM      2  O   UNL     1      31.118  20.790  14.707  0.00  0.00    -0.270 OA
ATOM      3  N   UNL     1      29.962  18.863  14.144  0.00  0.00    -0.297 N 
ATOM      4  C   UNL     1      28.834  17.936  14.253  0.00  0.00    +0.108 C 
ATOM      5  C   UNL     1      29.271  16.515  14.552  0.00  0.00    +0.020 C 
ATOM      6  C   UNL     1      30.361  16.051  13.604  0.00  0.00    +0.011 C 
ATOM      7  C   UNL     1      31.552  17.037  13.517  0.00  0.00    -0.004 C 
ATOM      8  C   UNL     1      32.497  16.500  12.420  0.00  0.00    +0.020 C 
ATOM      9  C   UNL     1      33.903  17.005  12.658  0.00  0.00    +0.070 C 
ATOM     10  S   UNL     1      34.112  16.902  14.442  0.00  0.00    -0.160 S 
ATOM     11  C   UNL     1      32.349  17.077  14.840  0.00  0.00    +0.077 C 
ATOM     12  C   UNL     1      31.006  18.451  13.185  0.00  0.00    +0.115 C 
ENDROOT
BRANCH   1  16
ATOM     13  C   UNL     1      27.172  21.426  17.626  0.00  0.00    +0.037 A 
ATOM     14  C   UNL     1      28.514  21.748  17.848  0.00  0.00    +0.014 A 
ATOM     15  C   UNL     1      29.503  21.210  17.022  0.00  0.00    +0.014 A 
ATOM     16  C   UNL     1      29.148  20.447  15.909  0.00  0.00    +0.037 A 
ATOM     17  C   UNL     1      27.815  20.046  15.745  0.00  0.00    +0.014 A 
ATOM     18  C   UNL     1      26.829  20.527  16.612  0.00  0.00    +0.014 A 
BRANCH  13  20
ATOM     19  N   UNL     1      26.352  22.185  19.785  0.00  0.00    -0.325 N 
ATOM     20  C   UNL     1      26.090  22.026  18.453  0.00  0.00    +0.242 C 
ATOM     21  O   UNL     1      25.043  22.408  17.958  0.00  0.00    -0.270 OA
ATOM     22  H   UNL     1      25.661  22.704  20.313  0.00  0.00    +0.145 HD
ATOM     23  H   UNL     1      27.290  22.147  20.161  0.00  0.00    +0.145 HD
ENDBRANCH  13  20
ENDBRANCH   1  16
TORSDOF 2
ENDMDL
MODEL 5
REMARK VINA RESULT:      -6.1      8.208     13.360
REMARK  Name = ZINC000583127796
REMARK  2 active torsions:
REMARK  status: ('A' for Active; 'I' for Inactive)
REMARK    1  A    between atoms: C_2  and  C_4
REMARK    2  A    between atoms: C_7  and  C_8
REMARK                            x       y       z     vdW  Elec       q    Type
REMARK                         _______ _______ _______ _____ _____    ______ ____
ROOT
ATOM      1  C   UNL     1      22.979  23.970  19.135  0.00  0.00    +0.247 C 
ATOM      2  O   UNL     1      22.035  23.259  19.485  0.00  0.00    -0.270 OA
ATOM      3  N   UNL     1      22.951  25.371  19.220  0.00  0.00    -0.297 N 
ATOM      4  C   UNL     1      24.018  26.293  18.827  0.00  0.00    +0.108 C 
ATOM      5  C   UNL     1      24.412  27.240  19.944  0.00  0.00    +0.020 C 
ATOM      6  C   UNL     1      23.202  27.922  20.556  0.00  0.00    +0.011 C 
ATOM      7  C   UNL     1      22.094  26.927  20.979  0.00  0.00    -0.004 C 
ATOM      8  C   UNL     1      20.889  27.772  21.445  0.00  0.00    +0.020 C 
ATOM      9  C   UNL     1      20.033  26.970  22.401  0.00  0.00    +0.070 C 
ATOM     10  S   UNL     1      21.223  26.086  23.421  0.00  0.00    -0.160 S 
ATOM     11  C   UNL     1      22.542  26.057  22.175  0.00  0.00    +0.077 C 
ATOM     12  C   UNL     1      21.745  26.022  19.767  0.00  0.00    +0.115 C 
ENDROOT
BRANCH   1  16
ATOM     13  C   UNL     1      26.348  21.673  17.829  0.00  0.00    +0.037 A 
ATOM     14  C   UNL     1      26.302  22.126  19.150  0.00  0.00    +0.014 A 
ATOM     15  C   UNL     1      25.271  22.975  19.557  0.00  0.00    +0.014 A 
ATOM     16  C   UNL     1      24.226  23.280  18.682  0.00  0.00    +0.037 A 
ATOM     17  C   UNL     1      24.324  22.905  17.335  0.00  0.00    +0.014 A 
ATOM     18  C   UNL     1      25.393  22.111  16.907  0.00  0.00    +0.014 A 
BRANCH  13  20
ATOM     19  N   UNL     1      27.011  19.430  17.164  0.00  0.00    -0.325 N 
ATOM     20  C   UNL     1      27.401  20.723  17.378  0.00  0.00    +0.242 C 
ATOM     21  O   UNL     1      28.543  21.089  17.159  0.00  0.00    -0.270 OA
ATOM     22  H   UNL     1      27.703  18.823  16.742  0.00  0.00    +0.145 HD
ATOM     23  H   UNL     1      26.040  19.167  17.061  0.00  0.00    +0.145 HD
ENDBRANCH  13  20
ENDBRANCH   1  16
TORSDOF 2
ENDMDL
MODEL 6
REMARK VINA RESULT:      -6.0      4.441      5.378
REMARK  Name = ZINC000583127796
REMARK  2 active torsions:
REMARK  status: ('A' for Active; 'I' for Inactive)
REMARK    1  A    between atoms: C_2  and  C_4
REMARK    2  A    between atoms: C_7  and  C_8
REMARK                            x       y       z     vdW  Elec       q    Type
REMARK                         _______ _______ _______ _____ _____    ______ ____
ROOT
ATOM      1  C   UNL     1      31.793  20.936  13.777  0.00  0.00    +0.247 C 
ATOM      2  O   UNL     1      32.679  20.080  13.764  0.00  0.00    -0.270 OA
ATOM      3  N   UNL     1      31.958  22.212  13.216  0.00  0.00    -0.297 N 
ATOM      4  C   UNL     1      30.967  23.290  13.188  0.00  0.00    +0.108 C 
ATOM      5  C   UNL     1      30.713  23.813  11.786  0.00  0.00    +0.020 C 
ATOM      6  C   UNL     1      32.007  24.145  11.067  0.00  0.00    +0.011 C 
ATOM      7  C   UNL     1      33.033  22.986  11.096  0.00  0.00    -0.004 C 
ATOM      8  C   UNL     1      34.331  23.523  10.456  0.00  0.00    +0.020 C 
ATOM      9  C   UNL     1      35.147  22.376   9.901  0.00  0.00    +0.070 C 
ATOM     10  S   UNL     1      33.924  21.282   9.164  0.00  0.00    -0.160 S 
ATOM     11  C   UNL     1      32.556  21.789  10.244  0.00  0.00    +0.077 C 
ATOM     12  C   UNL     1      33.242  22.540  12.567  0.00  0.00    +0.115 C 
ENDROOT
BRANCH   1  16
ATOM     13  C   UNL     1      28.183  19.545  15.610  0.00  0.00    +0.037 A 
ATOM     14  C   UNL     1      28.420  19.255  14.264  0.00  0.00    +0.014 A 
ATOM     15  C   UNL     1      29.532  19.802  13.622  0.00  0.00    +0.014 A 
ATOM     16  C   UNL     1      30.468  20.542  14.347  0.00  0.00    +0.037 A 
ATOM     17  C   UNL     1      30.179  20.912  15.668  0.00  0.00    +0.014 A 
ATOM     18  C   UNL     1      29.028  20.422  16.295  0.00  0.00    +0.014 A 
BRANCH  13  20
ATOM     19  N   UNL     1      26.491  19.669  17.353  0.00  0.00    -0.325 N 
ATOM     20  C   UNL     1      27.038  18.933  16.338  0.00  0.00    +0.242 C 
ATOM     21  O   UNL     1      26.576  17.852  16.013  0.00  0.00    -0.270 OA
ATOM     22  H   UNL     1      25.640  19.300  17.758  0.00  0.00    +0.145 HD
ATOM     23  H   UNL     1      26.660  20.660  17.454  0.00  0.00    +0.145 HD
ENDBRANCH  13  20
ENDBRANCH   1  16
TORSDOF 2
ENDMDL
MODEL 7
REMARK VINA RESULT:      -6.0     11.837     14.810
REMARK  Name = ZINC000583127796
REMARK  2 active torsions:
REMARK  status: ('A' for Active; 'I' for Inactive)
REMARK    1  A    between atoms: C_2  and  C_4
REMARK    2  A    between atoms: C_7  and  C_8
REMARK                            x       y       z     vdW  Elec       q    Type
REMARK                         _______ _______ _______ _____ _____    ______ ____
ROOT
ATOM      1  C   UNL     1      25.268  26.668  20.881  0.00  0.00    +0.247 C 
ATOM      2  O   UNL     1      26.478  26.609  21.106  0.00  0.00    -0.270 OA
ATOM      3  N   UNL     1      24.394  27.481  21.620  0.00  0.00    -0.297 N 
ATOM      4  C   UNL     1      22.949  27.612  21.427  0.00  0.00    +0.108 C 
ATOM      5  C   UNL     1      22.514  29.054  21.238  0.00  0.00    +0.020 C 
ATOM      6  C   UNL     1      23.077  29.957  22.320  0.00  0.00    +0.011 C 
ATOM      7  C   UNL     1      24.609  29.813  22.494  0.00  0.00    -0.004 C 
ATOM      8  C   UNL     1      25.003  30.680  23.710  0.00  0.00    +0.020 C 
ATOM      9  C   UNL     1      26.457  31.084  23.607  0.00  0.00    +0.070 C 
ATOM     10  S   UNL     1      26.686  31.460  21.862  0.00  0.00    -0.160 S 
ATOM     11  C   UNL     1      25.371  30.360  21.267  0.00  0.00    +0.077 C 
ATOM     12  C   UNL     1      24.949  28.314  22.704  0.00  0.00    +0.115 C 
ENDROOT
BRANCH   1  16
ATOM     13  C   UNL     1      23.447  24.607  17.601  0.00  0.00    +0.037 A 
ATOM     14  C   UNL     1      23.801  23.888  18.745  0.00  0.00    +0.014 A 
ATOM     15  C   UNL     1      24.503  24.522  19.773  0.00  0.00    +0.014 A 
ATOM     16  C   UNL     1      24.750  25.895  19.711  0.00  0.00    +0.037 A 
ATOM     17  C   UNL     1      24.481  26.590  18.523  0.00  0.00    +0.014 A 
ATOM     18  C   UNL     1      23.840  25.941  17.464  0.00  0.00    +0.014 A 
BRANCH  13  20
ATOM     19  N   UNL     1      21.337  24.346  16.419  0.00  0.00    -0.325 N 
ATOM     20  C   UNL     1      22.650  23.976  16.513  0.00  0.00    +0.242 C 
ATOM     21  O   UNL     1      23.155  23.207  15.712  0.00  0.00    -0.270 OA
ATOM     22  H   UNL     1      20.839  24.007  15.605  0.00  0.00    +0.145 HD
ATOM     23  H   UNL     1      20.975  25.174  16.873  0.00  0.00    +0.145 HD
ENDBRANCH  13  20
ENDBRANCH   1  16
TORSDOF 2
ENDMDL
MODEL 8
REMARK VINA RESULT:      -6.0      7.268      8.423
REMARK  Name = ZINC000583127796
REMARK  2 active torsions:
REMARK  status: ('A' for Active; 'I' for Inactive)
REMARK    1  A    between atoms: C_2  and  C_4
REMARK    2  A    between atoms: C_7  and  C_8
REMARK                            x       y       z     vdW  Elec       q    Type
REMARK                         _______ _______ _______ _____ _____    ______ ____
ROOT
ATOM      1  C   UNL     1      33.225  24.254   9.113  0.00  0.00    +0.247 C 
ATOM      2  O   UNL     1      33.686  25.393   9.022  0.00  0.00    -0.270 OA
ATOM      3  N   UNL     1      33.371  23.289   8.104  0.00  0.00    -0.297 N 
ATOM      4  C   UNL     1      32.858  21.919   8.122  0.00  0.00    +0.108 C 
ATOM      5  C   UNL     1      33.940  20.886   7.868  0.00  0.00    +0.020 C 
ATOM      6  C   UNL     1      34.758  21.222   6.635  0.00  0.00    +0.011 C 
ATOM      7  C   UNL     1      35.305  22.670   6.644  0.00  0.00    -0.004 C 
ATOM      8  C   UNL     1      35.985  22.899   5.277  0.00  0.00    +0.020 C 
ATOM      9  C   UNL     1      37.026  23.991   5.395  0.00  0.00    +0.070 C 
ATOM     10  S   UNL     1      37.814  23.678   6.982  0.00  0.00    -0.160 S 
ATOM     11  C   UNL     1      36.380  22.861   7.737  0.00  0.00    +0.077 C 
ATOM     12  C   UNL     1      34.124  23.648   6.886  0.00  0.00    +0.115 C 
ENDROOT
BRANCH   1  16
ATOM     13  C   UNL     1      31.222  22.869  12.634  0.00  0.00    +0.037 A 
ATOM     14  C   UNL     1      30.632  23.876  11.865  0.00  0.00    +0.014 A 
ATOM     15  C   UNL     1      31.328  24.420  10.784  0.00  0.00    +0.014 A 
ATOM     16  C   UNL     1      32.558  23.885  10.400  0.00  0.00    +0.037 A 
ATOM     17  C   UNL     1      33.189  22.946  11.227  0.00  0.00    +0.014 A 
ATOM     18  C   UNL     1      32.524  22.448  12.352  0.00  0.00    +0.014 A 
BRANCH  13  20
ATOM     19  N   UNL     1      30.846  22.607  15.022  0.00  0.00    -0.325 N 
ATOM     20  C   UNL     1      30.486  22.230  13.758  0.00  0.00    +0.242 C 
ATOM     21  O   UNL     1      29.570  21.448  13.562  0.00  0.00    -0.270 OA
ATOM     22  H   UNL     1      30.259  22.261  15.772  0.00  0.00    +0.145 HD
ATOM     23  H   UNL     1      31.385  23.442  15.205  0.00  0.00    +0.145 HD
ENDBRANCH  13  20
ENDBRANCH   1  16
TORSDOF 2
ENDMDL
MODEL 9
REMARK VINA RESULT:      -5.9      5.332      6.263
REMARK  Name = ZINC000583127796
REMARK  2 active torsions:
REMARK  status: ('A' for Active; 'I' for Inactive)
REMARK    1  A    between atoms: C_2  and  C_4
REMARK    2  A    between atoms: C_7  and  C_8
REMARK                            x       y       z     vdW  Elec       q    Type
REMARK                         _______ _______ _______ _____ _____    ______ ____
ROOT
ATOM      1  C   UNL     1      32.503  22.057  13.155  0.00  0.00    +0.247 C 
ATOM      2  O   UNL     1      33.326  21.140  13.111  0.00  0.00    -0.270 OA
ATOM      3  N   UNL     1      32.601  23.208  12.357  0.00  0.00    -0.297 N 
ATOM      4  C   UNL     1      31.678  24.344  12.344  0.00  0.00    +0.108 C 
ATOM      5  C   UNL     1      31.151  24.652  10.955  0.00  0.00    +0.020 C 
ATOM      6  C   UNL     1      32.273  24.756   9.938  0.00  0.00    +0.011 C 
ATOM      7  C   UNL     1      33.227  23.537   9.959  0.00  0.00    -0.004 C 
ATOM      8  C   UNL     1      34.379  23.855   8.982  0.00  0.00    +0.020 C 
ATOM      9  C   UNL     1      35.002  22.570   8.482  0.00  0.00    +0.070 C 
ATOM     10  S   UNL     1      33.600  21.475   8.216  0.00  0.00    -0.160 S 
ATOM     11  C   UNL     1      32.522  22.260   9.447  0.00  0.00    +0.077 C 
ATOM     12  C   UNL     1      33.728  23.319  11.411  0.00  0.00    +0.115 C 
ENDROOT
BRANCH   1  16
ATOM     13  C   UNL     1      29.282  21.221  15.848  0.00  0.00    +0.037 A 
ATOM     14  C   UNL     1      29.113  20.971  14.483  0.00  0.00    +0.014 A 
ATOM     15  C   UNL     1      30.108  21.349  13.580  0.00  0.00    +0.014 A 
ATOM     16  C   UNL     1      31.317  21.871  14.045  0.00  0.00    +0.037 A 
ATOM     17  C   UNL     1      31.445  22.210  15.400  0.00  0.00    +0.014 A 
ATOM     18  C   UNL     1      30.420  21.895  16.298  0.00  0.00    +0.014 A 
BRANCH  13  20
ATOM     19  N   UNL     1      27.695  21.755  17.611  0.00  0.00    -0.325 N 
ATOM     20  C   UNL     1      28.266  20.779  16.842  0.00  0.00    +0.242 C 
ATOM     21  O   UNL     1      27.920  19.613  16.930  0.00  0.00    -0.270 OA
ATOM     22  H   UNL     1      26.921  21.462  18.195  0.00  0.00    +0.145 HD
ATOM     23  H   UNL     1      27.747  22.735  17.369  0.00  0.00    +0.145 HD
ENDBRANCH  13  20
ENDBRANCH   1  16
TORSDOF 2
ENDMDL
