MODEL 1
REMARK VINA RESULT:      -7.1      0.000      0.000
REMARK  Name = ZINC000826139982
REMARK  4 active torsions:
REMARK  status: ('A' for Active; 'I' for Inactive)
REMARK    1  A    between atoms: C_2  and  C_4
REMARK    2  A    between atoms: C_8  and  C_10
REMARK    3  A    between atoms: C_14  and  S_15
REMARK    4  A    between atoms: S_15  and  C_16
REMARK                            x       y       z     vdW  Elec       q    Type
REMARK                         _______ _______ _______ _____ _____    ______ ____
ROOT
ATOM      1  C   UNL     1      27.774  21.672  16.295  0.00  0.00    +0.093 C 
ATOM      2  C   UNL     1      28.774  20.715  16.953  0.00  0.00    +0.033 C 
ATOM      3  C   UNL     1      30.121  21.422  16.877  0.00  0.00    +0.109 C 
ATOM      4  N   UNL     1      30.006  22.281  15.716  0.00  0.00    -0.297 N 
ATOM      5  C   UNL     1      31.124  22.684  14.997  0.00  0.00    +0.247 C 
ATOM      6  O   UNL     1      32.248  22.262  15.266  0.00  0.00    -0.270 OA
ATOM      7  C   UNL     1      28.624  22.709  15.572  0.00  0.00    +0.120 C 
ENDROOT
BRANCH   5   8
ATOM      8  C   UNL     1      30.990  23.597  13.813  0.00  0.00    +0.038 A 
ATOM      9  C   UNL     1      29.899  24.448  13.615  0.00  0.00    +0.013 A 
ATOM     10  C   UNL     1      29.765  25.182  12.437  0.00  0.00    +0.002 A 
ATOM     11  C   UNL     1      30.779  25.156  11.486  0.00  0.00    +0.015 A 
ATOM     12  C   UNL     1      31.945  24.422  11.723  0.00  0.00    +0.017 A 
ATOM     13  C   UNL     1      32.030  23.617  12.868  0.00  0.00    +0.028 A 
BRANCH  12  14
ATOM     14  S   UNL     1      33.300  24.468  10.568  0.00  0.00    -0.016 S 
BRANCH  14  15
ATOM     15  C   UNL     1      32.905  23.060   9.509  0.00  0.00    +0.448 C 
ATOM     16  F   UNL     1      32.838  21.878  10.165  0.00  0.00    -0.160 F 
ATOM     17  F   UNL     1      31.712  23.240   8.892  0.00  0.00    -0.160 F 
ATOM     18  F   UNL     1      33.839  22.919   8.536  0.00  0.00    -0.160 F 
ENDBRANCH  14  15
ENDBRANCH  12  14
ENDBRANCH   5   8
BRANCH   1  20
ATOM     19  N   UNL     1      26.844  23.672  17.312  0.00  0.00    -0.329 N 
ATOM     20  C   UNL     1      26.791  22.311  17.259  0.00  0.00    +0.215 C 
ATOM     21  O   UNL     1      26.037  21.695  17.996  0.00  0.00    -0.276 OA
ATOM     22  H   UNL     1      26.254  24.136  17.992  0.00  0.00    +0.145 HD
ATOM     23  H   UNL     1      27.497  24.227  16.778  0.00  0.00    +0.145 HD
ENDBRANCH   1  20
TORSDOF 4
ENDMDL
MODEL 2
REMARK VINA RESULT:      -6.7      2.608      3.538
REMARK  Name = ZINC000826139982
REMARK  4 active torsions:
REMARK  status: ('A' for Active; 'I' for Inactive)
REMARK    1  A    between atoms: C_2  and  C_4
REMARK    2  A    between atoms: C_8  and  C_10
REMARK    3  A    between atoms: C_14  and  S_15
REMARK    4  A    between atoms: S_15  and  C_16
REMARK                            x       y       z     vdW  Elec       q    Type
REMARK                         _______ _______ _______ _____ _____    ______ ____
ROOT
ATOM      1  C   UNL     1      31.478  25.140  18.328  0.00  0.00    +0.093 C 
ATOM      2  C   UNL     1      30.890  23.848  18.905  0.00  0.00    +0.033 C 
ATOM      3  C   UNL     1      31.067  22.801  17.814  0.00  0.00    +0.109 C 
ATOM      4  N   UNL     1      31.070  23.566  16.584  0.00  0.00    -0.297 N 
ATOM      5  C   UNL     1      30.688  22.999  15.375  0.00  0.00    +0.247 C 
ATOM      6  O   UNL     1      30.252  21.849  15.313  0.00  0.00    -0.270 OA
ATOM      7  C   UNL     1      31.646  24.877  16.837  0.00  0.00    +0.120 C 
ENDROOT
BRANCH   5   8
ATOM      8  C   UNL     1      30.723  23.797  14.105  0.00  0.00    +0.038 A 
ATOM      9  C   UNL     1      29.683  24.635  13.691  0.00  0.00    +0.013 A 
ATOM     10  C   UNL     1      29.715  25.256  12.444  0.00  0.00    +0.002 A 
ATOM     11  C   UNL     1      30.840  25.132  11.636  0.00  0.00    +0.015 A 
ATOM     12  C   UNL     1      31.951  24.413  12.086  0.00  0.00    +0.017 A 
ATOM     13  C   UNL     1      31.874  23.719  13.302  0.00  0.00    +0.028 A 
BRANCH  12  14
ATOM     14  S   UNL     1      33.441  24.339  11.115  0.00  0.00    -0.016 S 
BRANCH  14  15
ATOM     15  C   UNL     1      33.028  23.033   9.939  0.00  0.00    +0.448 C 
ATOM     16  F   UNL     1      31.864  23.234   9.278  0.00  0.00    -0.160 F 
ATOM     17  F   UNL     1      33.998  22.902   9.002  0.00  0.00    -0.160 F 
ATOM     18  F   UNL     1      32.921  21.838  10.571  0.00  0.00    -0.160 F 
ENDBRANCH  14  15
ENDBRANCH  12  14
ENDBRANCH   5   8
BRANCH   1  20
ATOM     19  N   UNL     1      32.708  26.777  19.636  0.00  0.00    -0.329 N 
ATOM     20  C   UNL     1      32.775  25.584  18.978  0.00  0.00    +0.215 C 
ATOM     21  O   UNL     1      33.838  24.987  18.894  0.00  0.00    -0.276 OA
ATOM     22  H   UNL     1      33.568  27.143  20.025  0.00  0.00    +0.145 HD
ATOM     23  H   UNL     1      31.875  27.346  19.675  0.00  0.00    +0.145 HD
ENDBRANCH   1  20
TORSDOF 4
ENDMDL
MODEL 3
REMARK VINA RESULT:      -6.7      2.971      3.829
REMARK  Name = ZINC000826139982
REMARK  4 active torsions:
REMARK  status: ('A' for Active; 'I' for Inactive)
REMARK    1  A    between atoms: C_2  and  C_4
REMARK    2  A    between atoms: C_8  and  C_10
REMARK    3  A    between atoms: C_14  and  S_15
REMARK    4  A    between atoms: S_15  and  C_16
REMARK                            x       y       z     vdW  Elec       q    Type
REMARK                         _______ _______ _______ _____ _____    ______ ____
ROOT
ATOM      1  C   UNL     1      31.466  25.220  18.207  0.00  0.00    +0.093 C 
ATOM      2  C   UNL     1      30.542  24.196  18.877  0.00  0.00    +0.033 C 
ATOM      3  C   UNL     1      30.422  23.049  17.882  0.00  0.00    +0.109 C 
ATOM      4  N   UNL     1      30.637  23.673  16.593  0.00  0.00    -0.297 N 
ATOM      5  C   UNL     1      30.112  23.130  15.427  0.00  0.00    +0.247 C 
ATOM      6  O   UNL     1      29.375  22.145  15.452  0.00  0.00    -0.270 OA
ATOM      7  C   UNL     1      31.554  24.790  16.748  0.00  0.00    +0.120 C 
ENDROOT
BRANCH   5   8
ATOM      8  C   UNL     1      30.368  23.773  14.095  0.00  0.00    +0.038 A 
ATOM      9  C   UNL     1      29.608  24.833  13.592  0.00  0.00    +0.013 A 
ATOM     10  C   UNL     1      29.810  25.311  12.298  0.00  0.00    +0.002 A 
ATOM     11  C   UNL     1      30.848  24.803  11.526  0.00  0.00    +0.015 A 
ATOM     12  C   UNL     1      31.710  23.838  12.057  0.00  0.00    +0.017 A 
ATOM     13  C   UNL     1      31.445  23.301  13.325  0.00  0.00    +0.028 A 
BRANCH  12  14
ATOM     14  S   UNL     1      33.113  23.259  11.125  0.00  0.00    -0.016 S 
BRANCH  14  15
ATOM     15  C   UNL     1      34.162  24.728  11.121  0.00  0.00    +0.448 C 
ATOM     16  F   UNL     1      35.483  24.463  10.986  0.00  0.00    -0.160 F 
ATOM     17  F   UNL     1      33.820  25.563  10.111  0.00  0.00    -0.160 F 
ATOM     18  F   UNL     1      34.016  25.421  12.278  0.00  0.00    -0.160 F 
ENDBRANCH  14  15
ENDBRANCH  12  14
ENDBRANCH   5   8
BRANCH   1  20
ATOM     19  N   UNL     1      32.837  25.284  20.212  0.00  0.00    -0.329 N 
ATOM     20  C   UNL     1      32.835  25.343  18.850  0.00  0.00    +0.215 C 
ATOM     21  O   UNL     1      33.876  25.543  18.241  0.00  0.00    -0.276 OA
ATOM     22  H   UNL     1      33.720  25.432  20.684  0.00  0.00    +0.145 HD
ATOM     23  H   UNL     1      31.998  25.192  20.767  0.00  0.00    +0.145 HD
ENDBRANCH   1  20
TORSDOF 4
ENDMDL
MODEL 4
REMARK VINA RESULT:      -6.5      4.914      7.692
REMARK  Name = ZINC000826139982
REMARK  4 active torsions:
REMARK  status: ('A' for Active; 'I' for Inactive)
REMARK    1  A    between atoms: C_2  and  C_4
REMARK    2  A    between atoms: C_8  and  C_10
REMARK    3  A    between atoms: C_14  and  S_15
REMARK    4  A    between atoms: S_15  and  C_16
REMARK                            x       y       z     vdW  Elec       q    Type
REMARK                         _______ _______ _______ _____ _____    ______ ____
ROOT
ATOM      1  C   UNL     1      34.198  22.844   8.338  0.00  0.00    +0.093 C 
ATOM      2  C   UNL     1      35.480  23.622   8.656  0.00  0.00    +0.033 C 
ATOM      3  C   UNL     1      35.476  23.808  10.167  0.00  0.00    +0.109 C 
ATOM      4  N   UNL     1      34.072  23.790  10.523  0.00  0.00    -0.297 N 
ATOM      5  C   UNL     1      33.603  24.428  11.665  0.00  0.00    +0.247 C 
ATOM      6  O   UNL     1      34.348  25.105  12.374  0.00  0.00    -0.270 OA
ATOM      7  C   UNL     1      33.356  22.919   9.605  0.00  0.00    +0.120 C 
ENDROOT
BRANCH   5   8
ATOM      8  C   UNL     1      32.150  24.376  12.035  0.00  0.00    +0.038 A 
ATOM      9  C   UNL     1      31.194  25.262  11.531  0.00  0.00    +0.013 A 
ATOM     10  C   UNL     1      29.882  25.247  12.003  0.00  0.00    +0.002 A 
ATOM     11  C   UNL     1      29.483  24.272  12.910  0.00  0.00    +0.015 A 
ATOM     12  C   UNL     1      30.385  23.288  13.324  0.00  0.00    +0.017 A 
ATOM     13  C   UNL     1      31.724  23.365  12.913  0.00  0.00    +0.028 A 
BRANCH  12  14
ATOM     14  S   UNL     1      29.861  21.966  14.396  0.00  0.00    -0.016 S 
BRANCH  14  15
ATOM     15  C   UNL     1      29.853  22.797  15.999  0.00  0.00    +0.448 C 
ATOM     16  F   UNL     1      30.598  23.927  16.038  0.00  0.00    -0.160 F 
ATOM     17  F   UNL     1      28.593  23.140  16.358  0.00  0.00    -0.160 F 
ATOM     18  F   UNL     1      30.333  21.975  16.964  0.00  0.00    -0.160 F 
ENDBRANCH  14  15
ENDBRANCH  12  14
ENDBRANCH   5   8
BRANCH   1  20
ATOM     19  N   UNL     1      35.154  21.282   6.742  0.00  0.00    -0.329 N 
ATOM     20  C   UNL     1      34.429  21.413   7.889  0.00  0.00    +0.215 C 
ATOM     21  O   UNL     1      33.969  20.426   8.442  0.00  0.00    -0.276 OA
ATOM     22  H   UNL     1      35.272  20.348   6.369  0.00  0.00    +0.145 HD
ATOM     23  H   UNL     1      35.497  22.066   6.206  0.00  0.00    +0.145 HD
ENDBRANCH   1  20
TORSDOF 4
ENDMDL
MODEL 5
REMARK VINA RESULT:      -6.5      5.044      7.571
REMARK  Name = ZINC000826139982
REMARK  4 active torsions:
REMARK  status: ('A' for Active; 'I' for Inactive)
REMARK    1  A    between atoms: C_2  and  C_4
REMARK    2  A    between atoms: C_8  and  C_10
REMARK    3  A    between atoms: C_14  and  S_15
REMARK    4  A    between atoms: S_15  and  C_16
REMARK                            x       y       z     vdW  Elec       q    Type
REMARK                         _______ _______ _______ _____ _____    ______ ____
ROOT
ATOM      1  C   UNL     1      33.357  24.585  11.320  0.00  0.00    +0.093 C 
ATOM      2  C   UNL     1      32.173  24.369  10.372  0.00  0.00    +0.033 C 
ATOM      3  C   UNL     1      30.934  24.418  11.255  0.00  0.00    +0.109 C 
ATOM      4  N   UNL     1      31.406  23.990  12.555  0.00  0.00    -0.297 N 
ATOM      5  C   UNL     1      30.553  23.402  13.481  0.00  0.00    +0.247 C 
ATOM      6  O   UNL     1      29.382  23.146  13.203  0.00  0.00    -0.270 OA
ATOM      7  C   UNL     1      32.790  24.404  12.722  0.00  0.00    +0.120 C 
ENDROOT
BRANCH   5   8
ATOM      8  C   UNL     1      31.053  22.989  14.834  0.00  0.00    +0.038 A 
ATOM      9  C   UNL     1      31.900  21.897  15.043  0.00  0.00    +0.013 A 
ATOM     10  C   UNL     1      32.233  21.483  16.332  0.00  0.00    +0.002 A 
ATOM     11  C   UNL     1      31.808  22.223  17.430  0.00  0.00    +0.015 A 
ATOM     12  C   UNL     1      31.076  23.399  17.241  0.00  0.00    +0.017 A 
ATOM     13  C   UNL     1      30.670  23.757  15.947  0.00  0.00    +0.028 A 
BRANCH  12  14
ATOM     14  S   UNL     1      30.620  24.420  18.627  0.00  0.00    -0.016 S 
BRANCH  14  15
ATOM     15  C   UNL     1      32.073  25.482  18.772  0.00  0.00    +0.448 C 
ATOM     16  F   UNL     1      32.833  25.534  17.653  0.00  0.00    -0.160 F 
ATOM     17  F   UNL     1      31.714  26.754  19.067  0.00  0.00    -0.160 F 
ATOM     18  F   UNL     1      32.879  25.053  19.775  0.00  0.00    -0.160 F 
ENDBRANCH  14  15
ENDBRANCH  12  14
ENDBRANCH   5   8
BRANCH   1  20
ATOM     19  N   UNL     1      35.401  25.845  10.946  0.00  0.00    -0.329 N 
ATOM     20  C   UNL     1      34.056  25.922  11.155  0.00  0.00    +0.215 C 
ATOM     21  O   UNL     1      33.511  27.011  11.257  0.00  0.00    -0.276 OA
ATOM     22  H   UNL     1      35.917  26.715  10.900  0.00  0.00    +0.145 HD
ATOM     23  H   UNL     1      35.913  24.974  10.925  0.00  0.00    +0.145 HD
ENDBRANCH   1  20
TORSDOF 4
ENDMDL
MODEL 6
REMARK VINA RESULT:      -6.4      4.592      7.412
REMARK  Name = ZINC000826139982
REMARK  4 active torsions:
REMARK  status: ('A' for Active; 'I' for Inactive)
REMARK    1  A    between atoms: C_2  and  C_4
REMARK    2  A    between atoms: C_8  and  C_10
REMARK    3  A    between atoms: C_14  and  S_15
REMARK    4  A    between atoms: S_15  and  C_16
REMARK                            x       y       z     vdW  Elec       q    Type
REMARK                         _______ _______ _______ _____ _____    ______ ____
ROOT
ATOM      1  C   UNL     1      32.916  22.901  10.998  0.00  0.00    +0.093 C 
ATOM      2  C   UNL     1      32.017  23.892  10.250  0.00  0.00    +0.033 C 
ATOM      3  C   UNL     1      31.447  24.810  11.322  0.00  0.00    +0.109 C 
ATOM      4  N   UNL     1      31.445  23.998  12.521  0.00  0.00    -0.297 N 
ATOM      5  C   UNL     1      30.558  24.241  13.562  0.00  0.00    +0.247 C 
ATOM      6  O   UNL     1      29.683  25.102  13.473  0.00  0.00    -0.270 OA
ATOM      7  C   UNL     1      32.560  23.065  12.470  0.00  0.00    +0.120 C 
ENDROOT
BRANCH   5   8
ATOM      8  C   UNL     1      30.588  23.407  14.809  0.00  0.00    +0.038 A 
ATOM      9  C   UNL     1      31.769  23.012  15.445  0.00  0.00    +0.013 A 
ATOM     10  C   UNL     1      31.742  22.135  16.529  0.00  0.00    +0.002 A 
ATOM     11  C   UNL     1      30.524  21.726  17.059  0.00  0.00    +0.015 A 
ATOM     12  C   UNL     1      29.327  22.218  16.529  0.00  0.00    +0.017 A 
ATOM     13  C   UNL     1      29.363  23.027  15.384  0.00  0.00    +0.028 A 
BRANCH  12  14
ATOM     14  S   UNL     1      27.763  21.794  17.268  0.00  0.00    -0.016 S 
BRANCH  14  15
ATOM     15  C   UNL     1      27.534  20.110  16.660  0.00  0.00    +0.448 C 
ATOM     16  F   UNL     1      28.127  19.162  17.424  0.00  0.00    -0.160 F 
ATOM     17  F   UNL     1      26.217  19.797  16.591  0.00  0.00    -0.160 F 
ATOM     18  F   UNL     1      28.040  19.981  15.409  0.00  0.00    -0.160 F 
ENDBRANCH  14  15
ENDBRANCH  12  14
ENDBRANCH   5   8
BRANCH   1  20
ATOM     19  N   UNL     1      35.015  23.981  11.574  0.00  0.00    -0.329 N 
ATOM     20  C   UNL     1      34.401  23.088  10.746  0.00  0.00    +0.215 C 
ATOM     21  O   UNL     1      35.028  22.554   9.844  0.00  0.00    -0.276 OA
ATOM     22  H   UNL     1      35.990  24.187  11.396  0.00  0.00    +0.145 HD
ATOM     23  H   UNL     1      34.529  24.504  12.288  0.00  0.00    +0.145 HD
ENDBRANCH   1  20
TORSDOF 4
ENDMDL
MODEL 7
REMARK VINA RESULT:      -6.4      1.728      2.209
REMARK  Name = ZINC000826139982
REMARK  4 active torsions:
REMARK  status: ('A' for Active; 'I' for Inactive)
REMARK    1  A    between atoms: C_2  and  C_4
REMARK    2  A    between atoms: C_8  and  C_10
REMARK    3  A    between atoms: C_14  and  S_15
REMARK    4  A    between atoms: S_15  and  C_16
REMARK                            x       y       z     vdW  Elec       q    Type
REMARK                         _______ _______ _______ _____ _____    ______ ____
ROOT
ATOM      1  C   UNL     1      29.711  21.837  16.145  0.00  0.00    +0.093 C 
ATOM      2  C   UNL     1      30.876  21.788  17.141  0.00  0.00    +0.033 C 
ATOM      3  C   UNL     1      31.816  22.910  16.719  0.00  0.00    +0.109 C 
ATOM      4  N   UNL     1      31.576  23.060  15.299  0.00  0.00    -0.297 N 
ATOM      5  C   UNL     1      32.547  23.571  14.447  0.00  0.00    +0.247 C 
ATOM      6  O   UNL     1      33.678  23.840  14.851  0.00  0.00    -0.270 OA
ATOM      7  C   UNL     1      30.188  22.734  15.010  0.00  0.00    +0.120 C 
ENDROOT
BRANCH   5   8
ATOM      8  C   UNL     1      32.273  23.746  12.983  0.00  0.00    +0.038 A 
ATOM      9  C   UNL     1      31.236  24.539  12.481  0.00  0.00    +0.013 A 
ATOM     10  C   UNL     1      30.949  24.567  11.117  0.00  0.00    +0.002 A 
ATOM     11  C   UNL     1      31.765  23.884  10.223  0.00  0.00    +0.015 A 
ATOM     12  C   UNL     1      32.892  23.197  10.685  0.00  0.00    +0.017 A 
ATOM     13  C   UNL     1      33.120  23.101  12.066  0.00  0.00    +0.028 A 
BRANCH  12  14
ATOM     14  S   UNL     1      34.011  22.413   9.544  0.00  0.00    -0.016 S 
BRANCH  14  15
ATOM     15  C   UNL     1      33.090  20.919   9.121  0.00  0.00    +0.448 C 
ATOM     16  F   UNL     1      31.888  21.156   8.545  0.00  0.00    -0.160 F 
ATOM     17  F   UNL     1      33.796  20.144   8.262  0.00  0.00    -0.160 F 
ATOM     18  F   UNL     1      32.856  20.174  10.229  0.00  0.00    -0.160 F 
ENDBRANCH  14  15
ENDBRANCH  12  14
ENDBRANCH   5   8
BRANCH   1  20
ATOM     19  N   UNL     1      27.282  21.833  16.125  0.00  0.00    -0.329 N 
ATOM     20  C   UNL     1      28.400  22.316  16.739  0.00  0.00    +0.215 C 
ATOM     21  O   UNL     1      28.300  23.121  17.653  0.00  0.00    -0.276 OA
ATOM     22  H   UNL     1      26.387  22.181  16.445  0.00  0.00    +0.145 HD
ATOM     23  H   UNL     1      27.307  21.223  15.321  0.00  0.00    +0.145 HD
ENDBRANCH   1  20
TORSDOF 4
ENDMDL
MODEL 8
REMARK VINA RESULT:      -6.4      4.878      7.657
REMARK  Name = ZINC000826139982
REMARK  4 active torsions:
REMARK  status: ('A' for Active; 'I' for Inactive)
REMARK    1  A    between atoms: C_2  and  C_4
REMARK    2  A    between atoms: C_8  and  C_10
REMARK    3  A    between atoms: C_14  and  S_15
REMARK    4  A    between atoms: S_15  and  C_16
REMARK                            x       y       z     vdW  Elec       q    Type
REMARK                         _______ _______ _______ _____ _____    ______ ____
ROOT
ATOM      1  C   UNL     1      35.598  26.290  11.596  0.00  0.00    +0.093 C 
ATOM      2  C   UNL     1      36.116  25.250  10.596  0.00  0.00    +0.033 C 
ATOM      3  C   UNL     1      34.874  24.681   9.924  0.00  0.00    +0.109 C 
ATOM      4  N   UNL     1      33.829  24.844  10.913  0.00  0.00    -0.297 N 
ATOM      5  C   UNL     1      32.711  24.019  10.932  0.00  0.00    +0.247 C 
ATOM      6  O   UNL     1      32.603  23.065  10.162  0.00  0.00    -0.270 OA
ATOM      7  C   UNL     1      34.100  26.032  11.707  0.00  0.00    +0.120 C 
ENDROOT
BRANCH   5   8
ATOM      8  C   UNL     1      31.623  24.218  11.946  0.00  0.00    +0.038 A 
ATOM      9  C   UNL     1      30.445  24.925  11.686  0.00  0.00    +0.013 A 
ATOM     10  C   UNL     1      29.525  25.186  12.700  0.00  0.00    +0.002 A 
ATOM     11  C   UNL     1      29.721  24.651  13.968  0.00  0.00    +0.015 A 
ATOM     12  C   UNL     1      30.820  23.824  14.218  0.00  0.00    +0.017 A 
ATOM     13  C   UNL     1      31.786  23.641  13.218  0.00  0.00    +0.028 A 
BRANCH  12  14
ATOM     14  S   UNL     1      31.026  23.038  15.803  0.00  0.00    -0.016 S 
BRANCH  14  15
ATOM     15  C   UNL     1      29.543  22.011  15.880  0.00  0.00    +0.448 C 
ATOM     16  F   UNL     1      29.628  20.984  16.758  0.00  0.00    -0.160 F 
ATOM     17  F   UNL     1      28.463  22.748  16.234  0.00  0.00    -0.160 F 
ATOM     18  F   UNL     1      29.275  21.470  14.665  0.00  0.00    -0.160 F 
ENDBRANCH  14  15
ENDBRANCH  12  14
ENDBRANCH   5   8
BRANCH   1  20
ATOM     19  N   UNL     1      37.224  28.062  11.258  0.00  0.00    -0.329 N 
ATOM     20  C   UNL     1      35.903  27.728  11.220  0.00  0.00    +0.215 C 
ATOM     21  O   UNL     1      35.061  28.574  10.959  0.00  0.00    -0.276 OA
ATOM     22  H   UNL     1      37.465  29.030  11.081  0.00  0.00    +0.145 HD
ATOM     23  H   UNL     1      37.954  27.422  11.536  0.00  0.00    +0.145 HD
ENDBRANCH   1  20
TORSDOF 4
ENDMDL
MODEL 9
REMARK VINA RESULT:      -6.4      4.285      5.773
REMARK  Name = ZINC000826139982
REMARK  4 active torsions:
REMARK  status: ('A' for Active; 'I' for Inactive)
REMARK    1  A    between atoms: C_2  and  C_4
REMARK    2  A    between atoms: C_8  and  C_10
REMARK    3  A    between atoms: C_14  and  S_15
REMARK    4  A    between atoms: S_15  and  C_16
REMARK                            x       y       z     vdW  Elec       q    Type
REMARK                         _______ _______ _______ _____ _____    ______ ____
ROOT
ATOM      1  C   UNL     1      34.260  22.272  19.898  0.00  0.00    +0.093 C 
ATOM      2  C   UNL     1      34.259  23.617  20.632  0.00  0.00    +0.033 C 
ATOM      3  C   UNL     1      32.825  24.123  20.547  0.00  0.00    +0.109 C 
ATOM      4  N   UNL     1      32.307  23.519  19.337  0.00  0.00    -0.297 N 
ATOM      5  C   UNL     1      31.267  24.101  18.622  0.00  0.00    +0.247 C 
ATOM      6  O   UNL     1      30.801  25.195  18.941  0.00  0.00    -0.270 OA
ATOM      7  C   UNL     1      32.942  22.226  19.136  0.00  0.00    +0.120 C 
ENDROOT
BRANCH   5   8
ATOM      8  C   UNL     1      30.723  23.448  17.386  0.00  0.00    +0.038 A 
ATOM      9  C   UNL     1      29.714  22.480  17.405  0.00  0.00    +0.013 A 
ATOM     10  C   UNL     1      29.333  21.817  16.240  0.00  0.00    +0.002 A 
ATOM     11  C   UNL     1      29.883  22.190  15.018  0.00  0.00    +0.015 A 
ATOM     12  C   UNL     1      30.791  23.250  14.953  0.00  0.00    +0.017 A 
ATOM     13  C   UNL     1      31.235  23.850  16.140  0.00  0.00    +0.028 A 
BRANCH  12  14
ATOM     14  S   UNL     1      31.419  23.816  13.385  0.00  0.00    -0.016 S 
BRANCH  14  15
ATOM     15  C   UNL     1      29.997  24.727  12.747  0.00  0.00    +0.448 C 
ATOM     16  F   UNL     1      30.286  25.542  11.705  0.00  0.00    -0.160 F 
ATOM     17  F   UNL     1      29.028  23.878  12.329  0.00  0.00    -0.160 F 
ATOM     18  F   UNL     1      29.455  25.504  13.717  0.00  0.00    -0.160 F 
ENDBRANCH  14  15
ENDBRANCH  12  14
ENDBRANCH   5   8
BRANCH   1  20
ATOM     19  N   UNL     1      34.184  21.294  22.120  0.00  0.00    -0.329 N 
ATOM     20  C   UNL     1      34.440  21.066  20.800  0.00  0.00    +0.215 C 
ATOM     21  O   UNL     1      34.842  19.972  20.432  0.00  0.00    -0.276 OA
ATOM     22  H   UNL     1      34.358  20.535  22.767  0.00  0.00    +0.145 HD
ATOM     23  H   UNL     1      33.919  22.196  22.489  0.00  0.00    +0.145 HD
ENDBRANCH   1  20
TORSDOF 4
ENDMDL
