MODEL 1
REMARK VINA RESULT:      -6.2      0.000      0.000
REMARK  Name = ZINC000543478179
REMARK  8 active torsions:
REMARK  status: ('A' for Active; 'I' for Inactive)
REMARK    1  A    between atoms: C_1  and  C_2
REMARK    2  A    between atoms: C_2  and  N_3
REMARK    3  A    between atoms: N_9  and  C_10
REMARK    4  A    between atoms: C_10  and  C_11
REMARK    5  A    between atoms: C_10  and  C_12
REMARK    6  A    between atoms: C_15  and  O_16
REMARK    7  A    between atoms: O_16  and  C_17
REMARK    8  A    between atoms: C_17  and  C_18
REMARK                            x       y       z     vdW  Elec       q    Type
REMARK                         _______ _______ _______ _____ _____    ______ ____
ROOT
ATOM      1  C   UNL     1      33.326  22.998   8.083  0.00  0.00    +0.102 C 
ATOM      2  C   UNL     1      32.113  23.667   7.422  0.00  0.00    +0.033 C 
ENDROOT
BRANCH   1   9
ATOM      3  N   UNL     1      38.646  25.311   5.397  0.00  0.00    -0.299 N 
ATOM      4  C   UNL     1      37.905  24.382   4.543  0.00  0.00    +0.127 C 
ATOM      5  C   UNL     1      37.446  23.140   5.314  0.00  0.00    +0.129 C 
ATOM      6  N   UNL     1      36.609  23.552   6.437  0.00  0.00    -0.275 N 
ATOM      7  C   UNL     1      35.353  22.988   6.610  0.00  0.00    +0.303 C 
ATOM      8  O   UNL     1      34.907  22.111   5.882  0.00  0.00    -0.253 OA
ATOM      9  N   UNL     1      34.626  23.518   7.648  0.00  0.00    -0.293 N 
ATOM     10  C   UNL     1      37.197  24.582   7.296  0.00  0.00    +0.205 C 
ATOM     11  C   UNL     1      38.426  25.346   6.771  0.00  0.00    +0.233 C 
ATOM     12  O   UNL     1      39.084  26.061   7.529  0.00  0.00    -0.274 OA
ATOM     13  H   UNL     1      35.184  23.875   8.404  0.00  0.00    +0.151 HD
BRANCH   3  15
ATOM     14  C   UNL     1      38.666  26.880   3.488  0.00  0.00    +0.024 C 
ATOM     15  C   UNL     1      39.346  26.435   4.776  0.00  0.00    +0.104 C 
ENDBRANCH   3  15
ENDBRANCH   1   9
BRANCH   1  16
ATOM     16  C   UNL     1      33.245  23.167   9.595  0.00  0.00    -0.024 A 
ATOM     17  C   UNL     1      34.122  22.443  10.425  0.00  0.00    +0.009 A 
ATOM     18  C   UNL     1      34.021  22.507  11.811  0.00  0.00    +0.049 A 
ATOM     19  C   UNL     1      33.008  23.260  12.405  0.00  0.00    +0.156 A 
ATOM     20  C   UNL     1      32.174  24.033  11.592  0.00  0.00    +0.165 A 
ATOM     21  F   UNL     1      31.222  24.805  12.137  0.00  0.00    -0.202 F 
ATOM     22  C   UNL     1      32.283  23.989  10.198  0.00  0.00    +0.047 A 
BRANCH  19  23
ATOM     23  O   UNL     1      32.765  23.271  13.753  0.00  0.00    -0.489 OA
BRANCH  23  24
ATOM     24  C   UNL     1      32.857  21.989  14.382  0.00  0.00    +0.232 C 
BRANCH  24  25
ATOM     25  C   UNL     1      31.537  21.299  14.271  0.00  0.00    +0.027 C 
ATOM     26  C   UNL     1      30.785  20.895  15.513  0.00  0.00    +0.007 C 
ATOM     27  C   UNL     1      31.397  19.840  14.632  0.00  0.00    +0.007 C 
ENDBRANCH  24  25
ENDBRANCH  23  24
ENDBRANCH  19  23
ENDBRANCH   1  16
TORSDOF 6
ENDMDL
MODEL 2
REMARK VINA RESULT:      -5.9      7.556      9.429
REMARK  Name = ZINC000543478179
REMARK  8 active torsions:
REMARK  status: ('A' for Active; 'I' for Inactive)
REMARK    1  A    between atoms: C_1  and  C_2
REMARK    2  A    between atoms: C_2  and  N_3
REMARK    3  A    between atoms: N_9  and  C_10
REMARK    4  A    between atoms: C_10  and  C_11
REMARK    5  A    between atoms: C_10  and  C_12
REMARK    6  A    between atoms: C_15  and  O_16
REMARK    7  A    between atoms: O_16  and  C_17
REMARK    8  A    between atoms: C_17  and  C_18
REMARK                            x       y       z     vdW  Elec       q    Type
REMARK                         _______ _______ _______ _____ _____    ______ ____
ROOT
ATOM      1  C   UNL     1      31.922  21.453  15.106  0.00  0.00    +0.102 C 
ATOM      2  C   UNL     1      30.602  21.184  15.843  0.00  0.00    +0.033 C 
ENDROOT
BRANCH   1   9
ATOM      3  N   UNL     1      36.036  25.257  18.183  0.00  0.00    -0.299 N 
ATOM      4  C   UNL     1      35.765  25.666  16.804  0.00  0.00    +0.127 C 
ATOM      5  C   UNL     1      35.792  24.476  15.839  0.00  0.00    +0.129 C 
ATOM      6  N   UNL     1      34.804  23.490  16.263  0.00  0.00    -0.275 N 
ATOM      7  C   UNL     1      33.862  23.016  15.360  0.00  0.00    +0.303 C 
ATOM      8  O   UNL     1      33.836  23.354  14.184  0.00  0.00    -0.253 OA
ATOM      9  N   UNL     1      32.933  22.160  15.897  0.00  0.00    -0.293 N 
ATOM     10  C   UNL     1      34.894  23.095  17.670  0.00  0.00    +0.205 C 
ATOM     11  C   UNL     1      35.749  23.963  18.612  0.00  0.00    +0.233 C 
ATOM     12  O   UNL     1      36.033  23.562  19.741  0.00  0.00    -0.274 OA
ATOM     13  H   UNL     1      33.266  21.628  16.683  0.00  0.00    +0.151 HD
BRANCH   3  15
ATOM     14  C   UNL     1      37.508  27.116  18.875  0.00  0.00    +0.024 C 
ATOM     15  C   UNL     1      36.269  26.288  19.192  0.00  0.00    +0.104 C 
ENDBRANCH   3  15
ENDBRANCH   1   9
BRANCH   1  16
ATOM     16  C   UNL     1      32.533  20.133  14.650  0.00  0.00    -0.024 A 
ATOM     17  C   UNL     1      32.798  19.923  13.284  0.00  0.00    +0.009 A 
ATOM     18  C   UNL     1      33.276  18.701  12.821  0.00  0.00    +0.049 A 
ATOM     19  C   UNL     1      33.457  17.639  13.708  0.00  0.00    +0.156 A 
ATOM     20  C   UNL     1      33.258  17.857  15.074  0.00  0.00    +0.165 A 
ATOM     21  F   UNL     1      33.470  16.869  15.956  0.00  0.00    -0.202 F 
ATOM     22  C   UNL     1      32.797  19.090  15.548  0.00  0.00    +0.047 A 
BRANCH  19  23
ATOM     23  O   UNL     1      33.800  16.373  13.312  0.00  0.00    -0.489 OA
BRANCH  23  24
ATOM     24  C   UNL     1      32.692  15.484  13.146  0.00  0.00    +0.232 C 
BRANCH  24  25
ATOM     25  C   UNL     1      32.388  15.353  11.689  0.00  0.00    +0.027 C 
ATOM     26  C   UNL     1      31.119  14.680  11.236  0.00  0.00    +0.007 C 
ATOM     27  C   UNL     1      32.445  14.008  11.007  0.00  0.00    +0.007 C 
ENDBRANCH  24  25
ENDBRANCH  23  24
ENDBRANCH  19  23
ENDBRANCH   1  16
TORSDOF 6
ENDMDL
MODEL 3
REMARK VINA RESULT:      -5.9      4.309      7.012
REMARK  Name = ZINC000543478179
REMARK  8 active torsions:
REMARK  status: ('A' for Active; 'I' for Inactive)
REMARK    1  A    between atoms: C_1  and  C_2
REMARK    2  A    between atoms: C_2  and  N_3
REMARK    3  A    between atoms: N_9  and  C_10
REMARK    4  A    between atoms: C_10  and  C_11
REMARK    5  A    between atoms: C_10  and  C_12
REMARK    6  A    between atoms: C_15  and  O_16
REMARK    7  A    between atoms: O_16  and  C_17
REMARK    8  A    between atoms: C_17  and  C_18
REMARK                            x       y       z     vdW  Elec       q    Type
REMARK                         _______ _______ _______ _____ _____    ______ ____
ROOT
ATOM      1  C   UNL     1      32.300  20.392  14.814  0.00  0.00    +0.102 C 
ATOM      2  C   UNL     1      30.821  20.687  15.104  0.00  0.00    +0.033 C 
ENDROOT
BRANCH   1   9
ATOM      3  N   UNL     1      33.899  22.127   8.873  0.00  0.00    -0.299 N 
ATOM      4  C   UNL     1      33.626  20.697   9.022  0.00  0.00    +0.127 C 
ATOM      5  C   UNL     1      34.290  20.115  10.273  0.00  0.00    +0.129 C 
ATOM      6  N   UNL     1      33.811  20.833  11.451  0.00  0.00    -0.275 N 
ATOM      7  C   UNL     1      33.289  20.130  12.527  0.00  0.00    +0.303 C 
ATOM      8  O   UNL     1      33.241  18.908  12.569  0.00  0.00    -0.253 OA
ATOM      9  N   UNL     1      32.791  20.917  13.538  0.00  0.00    -0.293 N 
ATOM     10  C   UNL     1      33.915  22.291  11.366  0.00  0.00    +0.205 C 
ATOM     11  C   UNL     1      34.180  22.918   9.984  0.00  0.00    +0.233 C 
ATOM     12  O   UNL     1      34.488  24.107   9.890  0.00  0.00    -0.274 OA
ATOM     13  H   UNL     1      33.240  21.813  13.623  0.00  0.00    +0.151 HD
BRANCH   3  15
ATOM     14  C   UNL     1      32.117  23.352   7.679  0.00  0.00    +0.024 C 
ATOM     15  C   UNL     1      33.532  22.791   7.623  0.00  0.00    +0.104 C 
ENDBRANCH   3  15
ENDBRANCH   1   9
BRANCH   1  16
ATOM     16  C   UNL     1      33.167  20.981  15.920  0.00  0.00    -0.024 A 
ATOM     17  C   UNL     1      33.537  22.339  15.866  0.00  0.00    +0.009 A 
ATOM     18  C   UNL     1      34.396  22.890  16.812  0.00  0.00    +0.049 A 
ATOM     19  C   UNL     1      34.947  22.086  17.810  0.00  0.00    +0.156 A 
ATOM     20  C   UNL     1      34.536  20.755  17.910  0.00  0.00    +0.165 A 
ATOM     21  F   UNL     1      35.012  19.970  18.888  0.00  0.00    -0.202 F 
ATOM     22  C   UNL     1      33.656  20.199  16.975  0.00  0.00    +0.047 A 
BRANCH  19  23
ATOM     23  O   UNL     1      35.896  22.524  18.696  0.00  0.00    -0.489 OA
BRANCH  23  24
ATOM     24  C   UNL     1      36.159  23.930  18.635  0.00  0.00    +0.232 C 
BRANCH  24  25
ATOM     25  C   UNL     1      35.497  24.598  19.795  0.00  0.00    +0.027 C 
ATOM     26  C   UNL     1      34.396  25.601  19.566  0.00  0.00    +0.007 C 
ATOM     27  C   UNL     1      35.733  26.061  20.081  0.00  0.00    +0.007 C 
ENDBRANCH  24  25
ENDBRANCH  23  24
ENDBRANCH  19  23
ENDBRANCH   1  16
TORSDOF 6
ENDMDL
MODEL 4
REMARK VINA RESULT:      -5.9      4.636      7.169
REMARK  Name = ZINC000543478179
REMARK  8 active torsions:
REMARK  status: ('A' for Active; 'I' for Inactive)
REMARK    1  A    between atoms: C_1  and  C_2
REMARK    2  A    between atoms: C_2  and  N_3
REMARK    3  A    between atoms: N_9  and  C_10
REMARK    4  A    between atoms: C_10  and  C_11
REMARK    5  A    between atoms: C_10  and  C_12
REMARK    6  A    between atoms: C_15  and  O_16
REMARK    7  A    between atoms: O_16  and  C_17
REMARK    8  A    between atoms: C_17  and  C_18
REMARK                            x       y       z     vdW  Elec       q    Type
REMARK                         _______ _______ _______ _____ _____    ______ ____
ROOT
ATOM      1  C   UNL     1      32.256  20.439  14.984  0.00  0.00    +0.102 C 
ATOM      2  C   UNL     1      30.948  21.092  15.452  0.00  0.00    +0.033 C 
ENDROOT
BRANCH   1   9
ATOM      3  N   UNL     1      34.026  22.137   9.081  0.00  0.00    -0.299 N 
ATOM      4  C   UNL     1      33.764  20.705   9.234  0.00  0.00    +0.127 C 
ATOM      5  C   UNL     1      34.394  20.142  10.512  0.00  0.00    +0.129 C 
ATOM      6  N   UNL     1      33.870  20.866  11.666  0.00  0.00    -0.275 N 
ATOM      7  C   UNL     1      33.321  20.167  12.733  0.00  0.00    +0.303 C 
ATOM      8  O   UNL     1      33.286  18.945  12.785  0.00  0.00    -0.253 OA
ATOM      9  N   UNL     1      32.782  20.958  13.718  0.00  0.00    -0.293 N 
ATOM     10  C   UNL     1      33.959  22.324  11.570  0.00  0.00    +0.205 C 
ATOM     11  C   UNL     1      34.262  22.941  10.192  0.00  0.00    +0.233 C 
ATOM     12  O   UNL     1      34.560  24.133  10.096  0.00  0.00    -0.274 OA
ATOM     13  H   UNL     1      33.218  21.859  13.809  0.00  0.00    +0.151 HD
BRANCH   3  15
ATOM     14  C   UNL     1      32.252  23.280   7.797  0.00  0.00    +0.024 C 
ATOM     15  C   UNL     1      33.692  22.784   7.813  0.00  0.00    +0.104 C 
ENDBRANCH   3  15
ENDBRANCH   1   9
BRANCH   1  16
ATOM     16  C   UNL     1      33.333  20.630  16.045  0.00  0.00    -0.024 A 
ATOM     17  C   UNL     1      33.990  19.506  16.581  0.00  0.00    +0.009 A 
ATOM     18  C   UNL     1      34.917  19.636  17.610  0.00  0.00    +0.049 A 
ATOM     19  C   UNL     1      35.178  20.890  18.164  0.00  0.00    +0.156 A 
ATOM     20  C   UNL     1      34.580  22.018  17.595  0.00  0.00    +0.165 A 
ATOM     21  F   UNL     1      34.848  23.241  18.075  0.00  0.00    -0.202 F 
ATOM     22  C   UNL     1      33.662  21.897  16.547  0.00  0.00    +0.047 A 
BRANCH  19  23
ATOM     23  O   UNL     1      35.978  21.081  19.259  0.00  0.00    -0.489 OA
BRANCH  23  24
ATOM     24  C   UNL     1      36.275  19.888  19.992  0.00  0.00    +0.232 C 
BRANCH  24  25
ATOM     25  C   UNL     1      35.504  19.900  21.271  0.00  0.00    +0.027 C 
ATOM     26  C   UNL     1      36.224  20.010  22.590  0.00  0.00    +0.007 C 
ATOM     27  C   UNL     1      35.550  18.719  22.210  0.00  0.00    +0.007 C 
ENDBRANCH  24  25
ENDBRANCH  23  24
ENDBRANCH  19  23
ENDBRANCH   1  16
TORSDOF 6
ENDMDL
MODEL 5
REMARK VINA RESULT:      -5.8      3.968      8.879
REMARK  Name = ZINC000543478179
REMARK  8 active torsions:
REMARK  status: ('A' for Active; 'I' for Inactive)
REMARK    1  A    between atoms: C_1  and  C_2
REMARK    2  A    between atoms: C_2  and  N_3
REMARK    3  A    between atoms: N_9  and  C_10
REMARK    4  A    between atoms: C_10  and  C_11
REMARK    5  A    between atoms: C_10  and  C_12
REMARK    6  A    between atoms: C_15  and  O_16
REMARK    7  A    between atoms: O_16  and  C_17
REMARK    8  A    between atoms: C_17  and  C_18
REMARK                            x       y       z     vdW  Elec       q    Type
REMARK                         _______ _______ _______ _____ _____    ______ ____
ROOT
ATOM      1  C   UNL     1      33.497  23.054   8.235  0.00  0.00    +0.102 C 
ATOM      2  C   UNL     1      32.169  23.416   7.557  0.00  0.00    +0.033 C 
ENDROOT
BRANCH   1   9
ATOM      3  N   UNL     1      32.202  21.034  14.161  0.00  0.00    -0.299 N 
ATOM      4  C   UNL     1      31.874  22.441  13.927  0.00  0.00    +0.127 C 
ATOM      5  C   UNL     1      32.991  23.171  13.174  0.00  0.00    +0.129 C 
ATOM      6  N   UNL     1      33.228  22.502  11.898  0.00  0.00    -0.275 N 
ATOM      7  C   UNL     1      33.217  23.233  10.718  0.00  0.00    +0.303 C 
ATOM      8  O   UNL     1      33.057  24.446  10.684  0.00  0.00    -0.253 OA
ATOM      9  N   UNL     1      33.365  22.482   9.578  0.00  0.00    -0.293 N 
ATOM     10  C   UNL     1      33.443  21.057  11.993  0.00  0.00    +0.205 C 
ATOM     11  C   UNL     1      33.074  20.356  13.313  0.00  0.00    +0.233 C 
ATOM     12  O   UNL     1      33.432  19.195  13.522  0.00  0.00    -0.274 OA
ATOM     13  H   UNL     1      33.897  21.638   9.705  0.00  0.00    +0.151 HD
BRANCH   3  15
ATOM     14  C   UNL     1      30.588  21.140  16.028  0.00  0.00    +0.024 C 
ATOM     15  C   UNL     1      31.353  20.251  15.056  0.00  0.00    +0.104 C 
ENDBRANCH   3  15
ENDBRANCH   1   9
BRANCH   1  16
ATOM     16  C   UNL     1      34.254  22.047   7.377  0.00  0.00    -0.024 A 
ATOM     17  C   UNL     1      34.300  20.695   7.768  0.00  0.00    +0.009 A 
ATOM     18  C   UNL     1      35.051  19.764   7.057  0.00  0.00    +0.049 A 
ATOM     19  C   UNL     1      35.814  20.170   5.962  0.00  0.00    +0.156 A 
ATOM     20  C   UNL     1      35.723  21.495   5.527  0.00  0.00    +0.165 A 
ATOM     21  F   UNL     1      36.407  21.903   4.449  0.00  0.00    -0.202 F 
ATOM     22  C   UNL     1      34.954  22.432   6.226  0.00  0.00    +0.047 A 
BRANCH  19  23
ATOM     23  O   UNL     1      36.675  19.342   5.291  0.00  0.00    -0.489 OA
BRANCH  23  24
ATOM     24  C   UNL     1      37.432  18.467   6.134  0.00  0.00    +0.232 C 
BRANCH  24  25
ATOM     25  C   UNL     1      37.287  17.067   5.635  0.00  0.00    +0.027 C 
ATOM     26  C   UNL     1      36.033  16.643   4.916  0.00  0.00    +0.007 C 
ATOM     27  C   UNL     1      36.323  16.109   6.293  0.00  0.00    +0.007 C 
ENDBRANCH  24  25
ENDBRANCH  23  24
ENDBRANCH  19  23
ENDBRANCH   1  16
TORSDOF 6
ENDMDL
MODEL 6
REMARK VINA RESULT:      -5.7      3.781      8.860
REMARK  Name = ZINC000543478179
REMARK  8 active torsions:
REMARK  status: ('A' for Active; 'I' for Inactive)
REMARK    1  A    between atoms: C_1  and  C_2
REMARK    2  A    between atoms: C_2  and  N_3
REMARK    3  A    between atoms: N_9  and  C_10
REMARK    4  A    between atoms: C_10  and  C_11
REMARK    5  A    between atoms: C_10  and  C_12
REMARK    6  A    between atoms: C_15  and  O_16
REMARK    7  A    between atoms: O_16  and  C_17
REMARK    8  A    between atoms: C_17  and  C_18
REMARK                            x       y       z     vdW  Elec       q    Type
REMARK                         _______ _______ _______ _____ _____    ______ ____
ROOT
ATOM      1  C   UNL     1      33.147  23.667  11.100  0.00  0.00    +0.102 C 
ATOM      2  C   UNL     1      31.729  24.250  11.164  0.00  0.00    +0.033 C 
ENDROOT
BRANCH   1   9
ATOM      3  N   UNL     1      33.249  18.244  14.485  0.00  0.00    -0.299 N 
ATOM      4  C   UNL     1      33.119  19.452  15.301  0.00  0.00    +0.127 C 
ATOM      5  C   UNL     1      34.087  20.552  14.852  0.00  0.00    +0.129 C 
ATOM      6  N   UNL     1      33.833  20.874  13.451  0.00  0.00    -0.275 N 
ATOM      7  C   UNL     1      33.616  22.191  13.070  0.00  0.00    +0.303 C 
ATOM      8  O   UNL     1      33.668  23.131  13.852  0.00  0.00    -0.253 OA
ATOM      9  N   UNL     1      33.302  22.359  11.743  0.00  0.00    -0.293 N 
ATOM     10  C   UNL     1      33.809  19.721  12.550  0.00  0.00    +0.205 C 
ATOM     11  C   UNL     1      33.713  18.316  13.174  0.00  0.00    +0.233 C 
ATOM     12  O   UNL     1      33.906  17.314  12.484  0.00  0.00    -0.274 OA
ATOM     13  H   UNL     1      33.692  21.660  11.134  0.00  0.00    +0.151 HD
BRANCH   3  15
ATOM     14  C   UNL     1      33.467  16.144  15.767  0.00  0.00    +0.024 C 
ATOM     15  C   UNL     1      32.564  17.026  14.914  0.00  0.00    +0.104 C 
ENDBRANCH   3  15
ENDBRANCH   1   9
BRANCH   1  16
ATOM     16  C   UNL     1      33.576  23.519   9.645  0.00  0.00    -0.024 A 
ATOM     17  C   UNL     1      32.614  23.217   8.663  0.00  0.00    +0.009 A 
ATOM     18  C   UNL     1      32.982  22.992   7.339  0.00  0.00    +0.049 A 
ATOM     19  C   UNL     1      34.327  23.015   6.973  0.00  0.00    +0.156 A 
ATOM     20  C   UNL     1      35.282  23.377   7.927  0.00  0.00    +0.165 A 
ATOM     21  F   UNL     1      36.579  23.454   7.592  0.00  0.00    -0.202 F 
ATOM     22  C   UNL     1      34.918  23.624   9.254  0.00  0.00    +0.047 A 
BRANCH  19  23
ATOM     23  O   UNL     1      34.776  22.678   5.723  0.00  0.00    -0.489 OA
BRANCH  23  24
ATOM     24  C   UNL     1      35.719  21.601   5.703  0.00  0.00    +0.232 C 
BRANCH  24  25
ATOM     25  C   UNL     1      35.002  20.324   5.995  0.00  0.00    +0.027 C 
ATOM     26  C   UNL     1      35.127  19.675   7.349  0.00  0.00    +0.007 C 
ATOM     27  C   UNL     1      35.763  19.029   6.148  0.00  0.00    +0.007 C 
ENDBRANCH  24  25
ENDBRANCH  23  24
ENDBRANCH  19  23
ENDBRANCH   1  16
TORSDOF 6
ENDMDL
MODEL 7
REMARK VINA RESULT:      -5.7     15.803     17.905
REMARK  Name = ZINC000543478179
REMARK  8 active torsions:
REMARK  status: ('A' for Active; 'I' for Inactive)
REMARK    1  A    between atoms: C_1  and  C_2
REMARK    2  A    between atoms: C_2  and  N_3
REMARK    3  A    between atoms: N_9  and  C_10
REMARK    4  A    between atoms: C_10  and  C_11
REMARK    5  A    between atoms: C_10  and  C_12
REMARK    6  A    between atoms: C_15  and  O_16
REMARK    7  A    between atoms: O_16  and  C_17
REMARK    8  A    between atoms: C_17  and  C_18
REMARK                            x       y       z     vdW  Elec       q    Type
REMARK                         _______ _______ _______ _____ _____    ______ ____
ROOT
ATOM      1  C   UNL     1      23.805  26.361  25.350  0.00  0.00    +0.102 C 
ATOM      2  C   UNL     1      23.714  27.345  26.525  0.00  0.00    +0.033 C 
ENDROOT
BRANCH   1   9
ATOM      3  N   UNL     1      24.043  29.080  19.569  0.00  0.00    -0.299 N 
ATOM      4  C   UNL     1      22.984  28.080  19.713  0.00  0.00    +0.127 C 
ATOM      5  C   UNL     1      23.485  26.814  20.415  0.00  0.00    +0.129 C 
ATOM      6  N   UNL     1      24.009  27.169  21.731  0.00  0.00    -0.275 N 
ATOM      7  C   UNL     1      23.557  26.503  22.861  0.00  0.00    +0.303 C 
ATOM      8  O   UNL     1      22.752  25.582  22.818  0.00  0.00    -0.253 OA
ATOM      9  N   UNL     1      24.056  26.984  24.047  0.00  0.00    -0.293 N 
ATOM     10  C   UNL     1      24.990  28.256  21.729  0.00  0.00    +0.205 C 
ATOM     11  C   UNL     1      25.115  29.115  20.457  0.00  0.00    +0.233 C 
ATOM     12  O   UNL     1      26.061  29.893  20.323  0.00  0.00    -0.274 OA
ATOM     13  H   UNL     1      24.970  27.397  23.974  0.00  0.00    +0.151 HD
BRANCH   3  15
ATOM     14  C   UNL     1      24.123  29.970  17.266  0.00  0.00    +0.024 C 
ATOM     15  C   UNL     1      23.799  30.250  18.728  0.00  0.00    +0.104 C 
ENDBRANCH   3  15
ENDBRANCH   1   9
BRANCH   1  16
ATOM     16  C   UNL     1      24.924  25.359  25.606  0.00  0.00    -0.024 A 
ATOM     17  C   UNL     1      26.180  25.547  24.999  0.00  0.00    +0.009 A 
ATOM     18  C   UNL     1      27.198  24.609  25.140  0.00  0.00    +0.049 A 
ATOM     19  C   UNL     1      26.971  23.432  25.855  0.00  0.00    +0.156 A 
ATOM     20  C   UNL     1      25.750  23.267  26.515  0.00  0.00    +0.165 A 
ATOM     21  F   UNL     1      25.520  22.168  27.249  0.00  0.00    -0.202 F 
ATOM     22  C   UNL     1      24.730  24.216  26.393  0.00  0.00    +0.047 A 
BRANCH  19  23
ATOM     23  O   UNL     1      27.876  22.407  25.931  0.00  0.00    -0.489 OA
BRANCH  23  24
ATOM     24  C   UNL     1      28.281  21.879  24.664  0.00  0.00    +0.232 C 
BRANCH  24  25
ATOM     25  C   UNL     1      27.169  21.054  24.105  0.00  0.00    +0.027 C 
ATOM     26  C   UNL     1      26.542  19.962  24.933  0.00  0.00    +0.007 C 
ATOM     27  C   UNL     1      27.389  19.606  23.742  0.00  0.00    +0.007 C 
ENDBRANCH  24  25
ENDBRANCH  23  24
ENDBRANCH  19  23
ENDBRANCH   1  16
TORSDOF 6
ENDMDL
MODEL 8
REMARK VINA RESULT:      -5.7      3.839      5.669
REMARK  Name = ZINC000543478179
REMARK  8 active torsions:
REMARK  status: ('A' for Active; 'I' for Inactive)
REMARK    1  A    between atoms: C_1  and  C_2
REMARK    2  A    between atoms: C_2  and  N_3
REMARK    3  A    between atoms: N_9  and  C_10
REMARK    4  A    between atoms: C_10  and  C_11
REMARK    5  A    between atoms: C_10  and  C_12
REMARK    6  A    between atoms: C_15  and  O_16
REMARK    7  A    between atoms: O_16  and  C_17
REMARK    8  A    between atoms: C_17  and  C_18
REMARK                            x       y       z     vdW  Elec       q    Type
REMARK                         _______ _______ _______ _____ _____    ______ ____
ROOT
ATOM      1  C   UNL     1      32.835  21.889  13.235  0.00  0.00    +0.102 C 
ATOM      2  C   UNL     1      33.176  22.425  14.632  0.00  0.00    +0.033 C 
ENDROOT
BRANCH   1   9
ATOM      3  N   UNL     1      36.289  24.940   8.804  0.00  0.00    -0.299 N 
ATOM      4  C   UNL     1      35.013  25.587   9.113  0.00  0.00    +0.127 C 
ATOM      5  C   UNL     1      33.863  24.577   9.188  0.00  0.00    +0.129 C 
ATOM      6  N   UNL     1      34.167  23.576  10.206  0.00  0.00    -0.275 N 
ATOM      7  C   UNL     1      33.246  23.303  11.208  0.00  0.00    +0.303 C 
ATOM      8  O   UNL     1      32.146  23.835  11.268  0.00  0.00    -0.253 OA
ATOM      9  N   UNL     1      33.680  22.409  12.156  0.00  0.00    -0.293 N 
ATOM     10  C   UNL     1      35.482  22.947  10.076  0.00  0.00    +0.205 C 
ATOM     11  C   UNL     1      36.511  23.606   9.137  0.00  0.00    +0.233 C 
ATOM     12  O   UNL     1      37.541  23.008   8.826  0.00  0.00    -0.274 OA
ATOM     13  H   UNL     1      34.348  21.738  11.817  0.00  0.00    +0.151 HD
BRANCH   3  15
ATOM     14  C   UNL     1      37.508  27.016   9.355  0.00  0.00    +0.024 C 
ATOM     15  C   UNL     1      37.443  25.775   8.475  0.00  0.00    +0.104 C 
ENDBRANCH   3  15
ENDBRANCH   1   9
BRANCH   1  16
ATOM     16  C   UNL     1      32.955  20.370  13.224  0.00  0.00    -0.024 A 
ATOM     17  C   UNL     1      32.232  19.607  14.160  0.00  0.00    +0.009 A 
ATOM     18  C   UNL     1      32.382  18.225  14.235  0.00  0.00    +0.049 A 
ATOM     19  C   UNL     1      33.297  17.575  13.407  0.00  0.00    +0.156 A 
ATOM     20  C   UNL     1      33.971  18.314  12.431  0.00  0.00    +0.165 A 
ATOM     21  F   UNL     1      34.821  17.709  11.589  0.00  0.00    -0.202 F 
ATOM     22  C   UNL     1      33.809  19.701  12.337  0.00  0.00    +0.047 A 
BRANCH  19  23
ATOM     23  O   UNL     1      33.594  16.241  13.508  0.00  0.00    -0.489 OA
BRANCH  23  24
ATOM     24  C   UNL     1      32.488  15.368  13.257  0.00  0.00    +0.232 C 
BRANCH  24  25
ATOM     25  C   UNL     1      32.206  15.352  11.791  0.00  0.00    +0.027 C 
ATOM     26  C   UNL     1      30.987  14.643  11.260  0.00  0.00    +0.007 C 
ATOM     27  C   UNL     1      32.357  14.082  10.989  0.00  0.00    +0.007 C 
ENDBRANCH  24  25
ENDBRANCH  23  24
ENDBRANCH  19  23
ENDBRANCH   1  16
TORSDOF 6
ENDMDL
MODEL 9
REMARK VINA RESULT:      -5.6      2.952      4.093
REMARK  Name = ZINC000543478179
REMARK  8 active torsions:
REMARK  status: ('A' for Active; 'I' for Inactive)
REMARK    1  A    between atoms: C_1  and  C_2
REMARK    2  A    between atoms: C_2  and  N_3
REMARK    3  A    between atoms: N_9  and  C_10
REMARK    4  A    between atoms: C_10  and  C_11
REMARK    5  A    between atoms: C_10  and  C_12
REMARK    6  A    between atoms: C_15  and  O_16
REMARK    7  A    between atoms: O_16  and  C_17
REMARK    8  A    between atoms: C_17  and  C_18
REMARK                            x       y       z     vdW  Elec       q    Type
REMARK                         _______ _______ _______ _____ _____    ______ ____
ROOT
ATOM      1  C   UNL     1      32.337  23.305  11.691  0.00  0.00    +0.102 C 
ATOM      2  C   UNL     1      31.433  24.476  12.101  0.00  0.00    +0.033 C 
ENDROOT
BRANCH   1   9
ATOM      3  N   UNL     1      37.732  25.563   9.110  0.00  0.00    -0.299 N 
ATOM      4  C   UNL     1      36.617  25.468   8.168  0.00  0.00    +0.127 C 
ATOM      5  C   UNL     1      35.868  24.138   8.300  0.00  0.00    +0.129 C 
ATOM      6  N   UNL     1      35.372  23.998   9.666  0.00  0.00    -0.275 N 
ATOM      7  C   UNL     1      34.033  23.715   9.893  0.00  0.00    +0.303 C 
ATOM      8  O   UNL     1      33.226  23.528   8.992  0.00  0.00    -0.253 OA
ATOM      9  N   UNL     1      33.668  23.695  11.217  0.00  0.00    -0.293 N 
ATOM     10  C   UNL     1      36.379  24.202  10.709  0.00  0.00    +0.205 C 
ATOM     11  C   UNL     1      37.717  24.851  10.307  0.00  0.00    +0.233 C 
ATOM     12  O   UNL     1      38.669  24.848  11.088  0.00  0.00    -0.274 OA
ATOM     13  H   UNL     1      34.407  23.429  11.845  0.00  0.00    +0.151 HD
BRANCH   3  15
ATOM     14  C   UNL     1      38.094  27.984   9.442  0.00  0.00    +0.024 C 
ATOM     15  C   UNL     1      38.685  26.663   8.968  0.00  0.00    +0.104 C 
ENDBRANCH   3  15
ENDBRANCH   1   9
BRANCH   1  16
ATOM     16  C   UNL     1      32.527  22.364  12.875  0.00  0.00    -0.024 A 
ATOM     17  C   UNL     1      33.798  22.235  13.466  0.00  0.00    +0.009 A 
ATOM     18  C   UNL     1      34.027  21.323  14.492  0.00  0.00    +0.049 A 
ATOM     19  C   UNL     1      33.001  20.482  14.923  0.00  0.00    +0.156 A 
ATOM     20  C   UNL     1      31.721  20.648  14.388  0.00  0.00    +0.165 A 
ATOM     21  F   UNL     1      30.704  19.886  14.817  0.00  0.00    -0.202 F 
ATOM     22  C   UNL     1      31.479  21.576  13.370  0.00  0.00    +0.047 A 
BRANCH  19  23
ATOM     23  O   UNL     1      33.181  19.476  15.835  0.00  0.00    -0.489 OA
BRANCH  23  24
ATOM     24  C   UNL     1      33.839  18.316  15.315  0.00  0.00    +0.232 C 
BRANCH  24  25
ATOM     25  C   UNL     1      32.815  17.271  15.017  0.00  0.00    +0.027 C 
ATOM     26  C   UNL     1      33.233  15.936  14.456  0.00  0.00    +0.007 C 
ATOM     27  C   UNL     1      32.475  16.907  13.591  0.00  0.00    +0.007 C 
ENDBRANCH  24  25
ENDBRANCH  23  24
ENDBRANCH  19  23
ENDBRANCH   1  16
TORSDOF 6
ENDMDL
