MODEL 1
REMARK VINA RESULT:      -6.8      0.000      0.000
REMARK  Name = ZINC001228612316
REMARK  5 active torsions:
REMARK  status: ('A' for Active; 'I' for Inactive)
REMARK    1  A    between atoms: C_2  and  C_4
REMARK    2  A    between atoms: C_8  and  O_9
REMARK    3  A    between atoms: O_9  and  C_10
REMARK    4  A    between atoms: C_10  and  C_11
REMARK    5  A    between atoms: C_10  and  C_17
REMARK                            x       y       z     vdW  Elec       q    Type
REMARK                         _______ _______ _______ _____ _____    ______ ____
ROOT
ATOM      1  C   UNL     1      27.596  19.888  15.983  0.00  0.00    +0.040 A 
ATOM      2  C   UNL     1      26.762  18.927  16.563  0.00  0.00    +0.013 A 
ATOM      3  C   UNL     1      26.939  17.575  16.265  0.00  0.00    +0.004 A 
ATOM      4  C   UNL     1      27.949  17.175  15.387  0.00  0.00    +0.046 A 
ATOM      5  C   UNL     1      28.785  18.124  14.799  0.00  0.00    +0.122 A 
ATOM      6  C   UNL     1      28.606  19.480  15.102  0.00  0.00    +0.058 A 
ENDROOT
BRANCH   1   8
ATOM      7  N   UNL     1      28.436  22.172  16.201  0.00  0.00    -0.325 N 
ATOM      8  C   UNL     1      27.379  21.314  16.346  0.00  0.00    +0.242 C 
ATOM      9  O   UNL     1      26.288  21.724  16.726  0.00  0.00    -0.270 OA
ATOM     10  H   UNL     1      28.237  23.153  16.352  0.00  0.00    +0.145 HD
ATOM     11  H   UNL     1      29.263  21.936  15.675  0.00  0.00    +0.145 HD
ENDBRANCH   1   8
BRANCH   5  12
ATOM     12  O   UNL     1      29.758  17.865  13.872  0.00  0.00    -0.484 OA
BRANCH  12  13
ATOM     13  C   UNL     1      31.092  17.585  14.328  0.00  0.00    +0.208 C 
BRANCH  13  14
ATOM     14  C   UNL     1      31.563  16.187  13.980  0.00  0.00    +0.011 A 
ATOM     15  C   UNL     1      32.534  15.499  14.714  0.00  0.00    +0.010 A 
ATOM     16  C   UNL     1      32.847  14.183  14.381  0.00  0.00    +0.020 A 
ATOM     17  C   UNL     1      32.176  13.593  13.322  0.00  0.00    +0.111 A 
ATOM     18  N   UNL     1      31.241  14.224  12.584  0.00  0.00    -0.263 NA
ATOM     19  C   UNL     1      30.956  15.498  12.930  0.00  0.00    +0.118 A 
ENDBRANCH  13  14
BRANCH  13  20
ATOM     20  C   UNL     1      32.063  18.566  13.678  0.00  0.00    +0.034 C 
ATOM     21  C   UNL     1      33.305  19.014  14.411  0.00  0.00    +0.008 C 
ATOM     22  C   UNL     1      32.208  20.003  14.125  0.00  0.00    +0.008 C 
ENDBRANCH  13  20
ENDBRANCH  12  13
ENDBRANCH   5  12
TORSDOF 5
ENDMDL
MODEL 2
REMARK VINA RESULT:      -6.6      3.263      4.001
REMARK  Name = ZINC001228612316
REMARK  5 active torsions:
REMARK  status: ('A' for Active; 'I' for Inactive)
REMARK    1  A    between atoms: C_2  and  C_4
REMARK    2  A    between atoms: C_8  and  O_9
REMARK    3  A    between atoms: O_9  and  C_10
REMARK    4  A    between atoms: C_10  and  C_11
REMARK    5  A    between atoms: C_10  and  C_17
REMARK                            x       y       z     vdW  Elec       q    Type
REMARK                         _______ _______ _______ _____ _____    ______ ____
ROOT
ATOM      1  C   UNL     1      26.838  20.318  16.611  0.00  0.00    +0.040 A 
ATOM      2  C   UNL     1      26.205  19.070  16.650  0.00  0.00    +0.013 A 
ATOM      3  C   UNL     1      26.802  17.965  16.042  0.00  0.00    +0.004 A 
ATOM      4  C   UNL     1      28.032  18.097  15.394  0.00  0.00    +0.046 A 
ATOM      5  C   UNL     1      28.670  19.336  15.345  0.00  0.00    +0.122 A 
ATOM      6  C   UNL     1      28.070  20.444  15.958  0.00  0.00    +0.058 A 
ENDROOT
BRANCH   1   8
ATOM      7  N   UNL     1      26.617  21.805  18.537  0.00  0.00    -0.325 N 
ATOM      8  C   UNL     1      26.170  21.461  17.289  0.00  0.00    +0.242 C 
ATOM      9  O   UNL     1      25.279  22.102  16.745  0.00  0.00    -0.270 OA
ATOM     10  H   UNL     1      26.223  22.649  18.933  0.00  0.00    +0.145 HD
ATOM     11  H   UNL     1      27.489  21.470  18.917  0.00  0.00    +0.145 HD
ENDBRANCH   1   8
BRANCH   5  12
ATOM     12  O   UNL     1      29.836  19.607  14.681  0.00  0.00    -0.484 OA
BRANCH  12  13
ATOM     13  C   UNL     1      30.591  20.772  15.053  0.00  0.00    +0.208 C 
BRANCH  13  14
ATOM     14  C   UNL     1      31.665  20.486  16.085  0.00  0.00    +0.011 A 
ATOM     15  C   UNL     1      31.652  21.023  17.375  0.00  0.00    +0.010 A 
ATOM     16  C   UNL     1      32.629  20.639  18.291  0.00  0.00    +0.020 A 
ATOM     17  C   UNL     1      33.590  19.726  17.888  0.00  0.00    +0.111 A 
ATOM     18  N   UNL     1      33.643  19.193  16.651  0.00  0.00    -0.263 NA
ATOM     19  C   UNL     1      32.683  19.581  15.784  0.00  0.00    +0.118 A 
ENDBRANCH  13  14
BRANCH  13  20
ATOM     20  C   UNL     1      31.287  21.337  13.820  0.00  0.00    +0.034 C 
ATOM     21  C   UNL     1      31.996  22.668  13.882  0.00  0.00    +0.008 C 
ATOM     22  C   UNL     1      30.757  22.522  13.042  0.00  0.00    +0.008 C 
ENDBRANCH  13  20
ENDBRANCH  12  13
ENDBRANCH   5  12
TORSDOF 5
ENDMDL
MODEL 3
REMARK VINA RESULT:      -6.6      1.267      1.441
REMARK  Name = ZINC001228612316
REMARK  5 active torsions:
REMARK  status: ('A' for Active; 'I' for Inactive)
REMARK    1  A    between atoms: C_2  and  C_4
REMARK    2  A    between atoms: C_8  and  O_9
REMARK    3  A    between atoms: O_9  and  C_10
REMARK    4  A    between atoms: C_10  and  C_11
REMARK    5  A    between atoms: C_10  and  C_17
REMARK                            x       y       z     vdW  Elec       q    Type
REMARK                         _______ _______ _______ _____ _____    ______ ____
ROOT
ATOM      1  C   UNL     1      27.248  19.996  16.235  0.00  0.00    +0.040 A 
ATOM      2  C   UNL     1      26.591  18.824  16.624  0.00  0.00    +0.013 A 
ATOM      3  C   UNL     1      26.933  17.604  16.041  0.00  0.00    +0.004 A 
ATOM      4  C   UNL     1      27.934  17.545  15.067  0.00  0.00    +0.046 A 
ATOM      5  C   UNL     1      28.594  18.707  14.668  0.00  0.00    +0.122 A 
ATOM      6  C   UNL     1      28.249  19.931  15.257  0.00  0.00    +0.058 A 
ENDROOT
BRANCH   1   8
ATOM      7  N   UNL     1      27.806  21.900  17.660  0.00  0.00    -0.325 N 
ATOM      8  C   UNL     1      26.859  21.269  16.899  0.00  0.00    +0.242 C 
ATOM      9  O   UNL     1      25.748  21.763  16.746  0.00  0.00    -0.270 OA
ATOM     10  H   UNL     1      27.555  22.815  18.014  0.00  0.00    +0.145 HD
ATOM     11  H   UNL     1      28.786  21.665  17.620  0.00  0.00    +0.145 HD
ENDBRANCH   1   8
BRANCH   5  12
ATOM     12  O   UNL     1      29.535  18.790  13.678  0.00  0.00    -0.484 OA
BRANCH  12  13
ATOM     13  C   UNL     1      30.909  18.524  14.005  0.00  0.00    +0.208 C 
BRANCH  13  14
ATOM     14  C   UNL     1      31.450  17.270  13.345  0.00  0.00    +0.011 A 
ATOM     15  C   UNL     1      30.905  16.000  13.548  0.00  0.00    +0.010 A 
ATOM     16  C   UNL     1      31.406  14.912  12.835  0.00  0.00    +0.020 A 
ATOM     17  C   UNL     1      32.438  15.131  11.937  0.00  0.00    +0.111 A 
ATOM     18  N   UNL     1      32.998  16.338  11.720  0.00  0.00    -0.263 NA
ATOM     19  C   UNL     1      32.492  17.374  12.423  0.00  0.00    +0.118 A 
ENDBRANCH  13  14
BRANCH  13  20
ATOM     20  C   UNL     1      31.773  19.690  13.538  0.00  0.00    +0.034 C 
ATOM     21  C   UNL     1      32.739  20.358  14.488  0.00  0.00    +0.008 C 
ATOM     22  C   UNL     1      31.543  21.118  13.982  0.00  0.00    +0.008 C 
ENDBRANCH  13  20
ENDBRANCH  12  13
ENDBRANCH   5  12
TORSDOF 5
ENDMDL
MODEL 4
REMARK VINA RESULT:      -6.4      3.017      5.727
REMARK  Name = ZINC001228612316
REMARK  5 active torsions:
REMARK  status: ('A' for Active; 'I' for Inactive)
REMARK    1  A    between atoms: C_2  and  C_4
REMARK    2  A    between atoms: C_8  and  O_9
REMARK    3  A    between atoms: O_9  and  C_10
REMARK    4  A    between atoms: C_10  and  C_11
REMARK    5  A    between atoms: C_10  and  C_17
REMARK                            x       y       z     vdW  Elec       q    Type
REMARK                         _______ _______ _______ _____ _____    ______ ____
ROOT
ATOM      1  C   UNL     1      28.094  17.978  15.174  0.00  0.00    +0.040 A 
ATOM      2  C   UNL     1      26.966  17.814  15.986  0.00  0.00    +0.013 A 
ATOM      3  C   UNL     1      26.418  18.911  16.652  0.00  0.00    +0.004 A 
ATOM      4  C   UNL     1      26.992  20.177  16.512  0.00  0.00    +0.046 A 
ATOM      5  C   UNL     1      28.119  20.353  15.709  0.00  0.00    +0.122 A 
ATOM      6  C   UNL     1      28.665  19.250  15.040  0.00  0.00    +0.058 A 
ENDROOT
BRANCH   1   8
ATOM      7  N   UNL     1      29.990  16.669  14.363  0.00  0.00    -0.325 N 
ATOM      8  C   UNL     1      28.630  16.782  14.471  0.00  0.00    +0.242 C 
ATOM      9  O   UNL     1      27.893  15.905  14.036  0.00  0.00    -0.270 OA
ATOM     10  H   UNL     1      30.335  15.799  13.977  0.00  0.00    +0.145 HD
ATOM     11  H   UNL     1      30.630  17.228  14.905  0.00  0.00    +0.145 HD
ENDBRANCH   1   8
BRANCH   5  12
ATOM     12  O   UNL     1      28.810  21.523  15.551  0.00  0.00    -0.484 OA
BRANCH  12  13
ATOM     13  C   UNL     1      30.234  21.518  15.744  0.00  0.00    +0.208 C 
BRANCH  13  14
ATOM     14  C   UNL     1      31.000  22.106  14.575  0.00  0.00    +0.011 A 
ATOM     15  C   UNL     1      30.442  22.291  13.307  0.00  0.00    +0.010 A 
ATOM     16  C   UNL     1      31.186  22.920  12.311  0.00  0.00    +0.020 A 
ATOM     17  C   UNL     1      32.469  23.347  12.616  0.00  0.00    +0.111 A 
ATOM     18  N   UNL     1      33.047  23.178  13.822  0.00  0.00    -0.263 NA
ATOM     19  C   UNL     1      32.302  22.568  14.769  0.00  0.00    +0.118 A 
ENDBRANCH  13  14
BRANCH  13  20
ATOM     20  C   UNL     1      30.580  22.349  16.975  0.00  0.00    +0.034 C 
ATOM     21  C   UNL     1      31.134  21.689  18.215  0.00  0.00    +0.008 C 
ATOM     22  C   UNL     1      29.766  22.314  18.250  0.00  0.00    +0.008 C 
ENDBRANCH  13  20
ENDBRANCH  12  13
ENDBRANCH   5  12
TORSDOF 5
ENDMDL
MODEL 5
REMARK VINA RESULT:      -6.4      2.891      5.455
REMARK  Name = ZINC001228612316
REMARK  5 active torsions:
REMARK  status: ('A' for Active; 'I' for Inactive)
REMARK    1  A    between atoms: C_2  and  C_4
REMARK    2  A    between atoms: C_8  and  O_9
REMARK    3  A    between atoms: O_9  and  C_10
REMARK    4  A    between atoms: C_10  and  C_11
REMARK    5  A    between atoms: C_10  and  C_17
REMARK                            x       y       z     vdW  Elec       q    Type
REMARK                         _______ _______ _______ _____ _____    ______ ____
ROOT
ATOM      1  C   UNL     1      28.036  18.000  15.308  0.00  0.00    +0.040 A 
ATOM      2  C   UNL     1      26.798  17.830  15.939  0.00  0.00    +0.013 A 
ATOM      3  C   UNL     1      26.216  18.890  16.634  0.00  0.00    +0.004 A 
ATOM      4  C   UNL     1      26.863  20.126  16.704  0.00  0.00    +0.046 A 
ATOM      5  C   UNL     1      28.099  20.307  16.083  0.00  0.00    +0.122 A 
ATOM      6  C   UNL     1      28.680  19.241  15.384  0.00  0.00    +0.058 A 
ENDROOT
BRANCH   1   8
ATOM      7  N   UNL     1      29.970  16.757  14.485  0.00  0.00    -0.325 N 
ATOM      8  C   UNL     1      28.607  16.846  14.565  0.00  0.00    +0.242 C 
ATOM      9  O   UNL     1      27.893  15.980  14.071  0.00  0.00    -0.270 OA
ATOM     10  H   UNL     1      30.337  15.911  14.068  0.00  0.00    +0.145 HD
ATOM     11  H   UNL     1      30.588  17.299  15.068  0.00  0.00    +0.145 HD
ENDBRANCH   1   8
BRANCH   5  12
ATOM     12  O   UNL     1      28.862  21.442  16.141  0.00  0.00    -0.484 OA
BRANCH  12  13
ATOM     13  C   UNL     1      29.911  21.522  17.119  0.00  0.00    +0.208 C 
BRANCH  13  14
ATOM     14  C   UNL     1      31.300  21.420  16.518  0.00  0.00    +0.011 A 
ATOM     15  C   UNL     1      32.251  20.485  16.937  0.00  0.00    +0.010 A 
ATOM     16  C   UNL     1      33.472  20.399  16.273  0.00  0.00    +0.020 A 
ATOM     17  C   UNL     1      33.704  21.250  15.205  0.00  0.00    +0.111 A 
ATOM     18  N   UNL     1      32.818  22.172  14.776  0.00  0.00    -0.263 NA
ATOM     19  C   UNL     1      31.642  22.233  15.437  0.00  0.00    +0.118 A 
ENDBRANCH  13  14
BRANCH  13  20
ATOM     20  C   UNL     1      29.828  22.864  17.840  0.00  0.00    +0.034 C 
ATOM     21  C   UNL     1      30.742  23.168  19.002  0.00  0.00    +0.008 C 
ATOM     22  C   UNL     1      29.264  23.018  19.235  0.00  0.00    +0.008 C 
ENDBRANCH  13  20
ENDBRANCH  12  13
ENDBRANCH   5  12
TORSDOF 5
ENDMDL
MODEL 6
REMARK VINA RESULT:      -6.4      4.021      6.402
REMARK  Name = ZINC001228612316
REMARK  5 active torsions:
REMARK  status: ('A' for Active; 'I' for Inactive)
REMARK    1  A    between atoms: C_2  and  C_4
REMARK    2  A    between atoms: C_8  and  O_9
REMARK    3  A    between atoms: O_9  and  C_10
REMARK    4  A    between atoms: C_10  and  C_11
REMARK    5  A    between atoms: C_10  and  C_17
REMARK                            x       y       z     vdW  Elec       q    Type
REMARK                         _______ _______ _______ _____ _____    ______ ____
ROOT
ATOM      1  C   UNL     1      31.227  23.558  12.397  0.00  0.00    +0.040 A 
ATOM      2  C   UNL     1      32.623  23.604  12.463  0.00  0.00    +0.013 A 
ATOM      3  C   UNL     1      33.321  22.646  13.199  0.00  0.00    +0.004 A 
ATOM      4  C   UNL     1      32.629  21.635  13.873  0.00  0.00    +0.046 A 
ATOM      5  C   UNL     1      31.236  21.581  13.818  0.00  0.00    +0.122 A 
ATOM      6  C   UNL     1      30.539  22.544  13.076  0.00  0.00    +0.058 A 
ENDROOT
BRANCH   1   8
ATOM      7  N   UNL     1      29.390  25.142  12.105  0.00  0.00    -0.325 N 
ATOM      8  C   UNL     1      30.530  24.592  11.584  0.00  0.00    +0.242 C 
ATOM      9  O   UNL     1      30.973  24.970  10.507  0.00  0.00    -0.270 OA
ATOM     10  H   UNL     1      28.993  25.916  11.587  0.00  0.00    +0.145 HD
ATOM     11  H   UNL     1      29.127  25.041  13.073  0.00  0.00    +0.145 HD
ENDBRANCH   1   8
BRANCH   5  12
ATOM     12  O   UNL     1      30.446  20.689  14.490  0.00  0.00    -0.484 OA
BRANCH  12  13
ATOM     13  C   UNL     1      29.620  21.167  15.563  0.00  0.00    +0.208 C 
BRANCH  13  14
ATOM     14  C   UNL     1      28.407  20.293  15.822  0.00  0.00    +0.011 A 
ATOM     15  C   UNL     1      28.367  18.929  15.522  0.00  0.00    +0.010 A 
ATOM     16  C   UNL     1      27.246  18.179  15.872  0.00  0.00    +0.020 A 
ATOM     17  C   UNL     1      26.199  18.818  16.516  0.00  0.00    +0.111 A 
ATOM     18  N   UNL     1      26.195  20.133  16.814  0.00  0.00    -0.263 NA
ATOM     19  C   UNL     1      27.294  20.836  16.465  0.00  0.00    +0.118 A 
ENDBRANCH  13  14
BRANCH  13  20
ATOM     20  C   UNL     1      30.436  21.201  16.851  0.00  0.00    +0.034 C 
ATOM     21  C   UNL     1      30.007  22.072  18.008  0.00  0.00    +0.008 C 
ATOM     22  C   UNL     1      31.276  22.389  17.266  0.00  0.00    +0.008 C 
ENDBRANCH  13  20
ENDBRANCH  12  13
ENDBRANCH   5  12
TORSDOF 5
ENDMDL
MODEL 7
REMARK VINA RESULT:      -6.2      2.812      6.176
REMARK  Name = ZINC001228612316
REMARK  5 active torsions:
REMARK  status: ('A' for Active; 'I' for Inactive)
REMARK    1  A    between atoms: C_2  and  C_4
REMARK    2  A    between atoms: C_8  and  O_9
REMARK    3  A    between atoms: O_9  and  C_10
REMARK    4  A    between atoms: C_10  and  C_11
REMARK    5  A    between atoms: C_10  and  C_17
REMARK                            x       y       z     vdW  Elec       q    Type
REMARK                         _______ _______ _______ _____ _____    ______ ____
ROOT
ATOM      1  C   UNL     1      29.606  17.113  14.246  0.00  0.00    +0.040 A 
ATOM      2  C   UNL     1      28.541  16.690  15.048  0.00  0.00    +0.013 A 
ATOM      3  C   UNL     1      27.597  17.613  15.501  0.00  0.00    +0.004 A 
ATOM      4  C   UNL     1      27.710  18.962  15.154  0.00  0.00    +0.046 A 
ATOM      5  C   UNL     1      28.770  19.396  14.359  0.00  0.00    +0.122 A 
ATOM      6  C   UNL     1      29.715  18.467  13.904  0.00  0.00    +0.058 A 
ENDROOT
BRANCH   1   8
ATOM      7  N   UNL     1      31.822  16.088  14.343  0.00  0.00    -0.325 N 
ATOM      8  C   UNL     1      30.576  16.088  13.775  0.00  0.00    +0.242 C 
ATOM      9  O   UNL     1      30.270  15.247  12.938  0.00  0.00    -0.270 OA
ATOM     10  H   UNL     1      32.428  15.319  14.086  0.00  0.00    +0.145 HD
ATOM     11  H   UNL     1      32.037  16.593  15.189  0.00  0.00    +0.145 HD
ENDBRANCH   1   8
BRANCH   5  12
ATOM     12  O   UNL     1      29.028  20.695  14.014  0.00  0.00    -0.484 OA
BRANCH  12  13
ATOM     13  C   UNL     1      30.093  21.391  14.683  0.00  0.00    +0.208 C 
BRANCH  13  14
ATOM     14  C   UNL     1      30.865  22.324  13.771  0.00  0.00    +0.011 A 
ATOM     15  C   UNL     1      30.278  23.020  12.710  0.00  0.00    +0.010 A 
ATOM     16  C   UNL     1      31.040  23.926  11.975  0.00  0.00    +0.020 A 
ATOM     17  C   UNL     1      32.368  24.110  12.326  0.00  0.00    +0.111 A 
ATOM     18  N   UNL     1      32.973  23.451  13.335  0.00  0.00    -0.263 NA
ATOM     19  C   UNL     1      32.211  22.581  14.031  0.00  0.00    +0.118 A 
ENDBRANCH  13  14
BRANCH  13  20
ATOM     20  C   UNL     1      29.512  22.238  15.810  0.00  0.00    +0.034 C 
ATOM     21  C   UNL     1      30.344  22.572  17.025  0.00  0.00    +0.008 C 
ATOM     22  C   UNL     1      29.147  21.672  17.165  0.00  0.00    +0.008 C 
ENDBRANCH  13  20
ENDBRANCH  12  13
ENDBRANCH   5  12
TORSDOF 5
ENDMDL
MODEL 8
REMARK VINA RESULT:      -6.1      3.068      5.873
REMARK  Name = ZINC001228612316
REMARK  5 active torsions:
REMARK  status: ('A' for Active; 'I' for Inactive)
REMARK    1  A    between atoms: C_2  and  C_4
REMARK    2  A    between atoms: C_8  and  O_9
REMARK    3  A    between atoms: O_9  and  C_10
REMARK    4  A    between atoms: C_10  and  C_11
REMARK    5  A    between atoms: C_10  and  C_17
REMARK                            x       y       z     vdW  Elec       q    Type
REMARK                         _______ _______ _______ _____ _____    ______ ____
ROOT
ATOM      1  C   UNL     1      28.497  18.089  14.741  0.00  0.00    +0.040 A 
ATOM      2  C   UNL     1      27.818  18.305  15.945  0.00  0.00    +0.013 A 
ATOM      3  C   UNL     1      27.613  19.605  16.409  0.00  0.00    +0.004 A 
ATOM      4  C   UNL     1      28.083  20.697  15.675  0.00  0.00    +0.046 A 
ATOM      5  C   UNL     1      28.765  20.494  14.475  0.00  0.00    +0.122 A 
ATOM      6  C   UNL     1      28.967  19.188  14.011  0.00  0.00    +0.058 A 
ENDROOT
BRANCH   1   8
ATOM      7  N   UNL     1      29.942  16.284  13.953  0.00  0.00    -0.325 N 
ATOM      8  C   UNL     1      28.675  16.686  14.280  0.00  0.00    +0.242 C 
ATOM      9  O   UNL     1      27.736  15.901  14.228  0.00  0.00    -0.270 OA
ATOM     10  H   UNL     1      30.057  15.300  13.745  0.00  0.00    +0.145 HD
ATOM     11  H   UNL     1      30.765  16.810  14.205  0.00  0.00    +0.145 HD
ENDBRANCH   1   8
BRANCH   5  12
ATOM     12  O   UNL     1      29.334  21.473  13.707  0.00  0.00    -0.484 OA
BRANCH  12  13
ATOM     13  C   UNL     1      30.767  21.575  13.663  0.00  0.00    +0.208 C 
BRANCH  13  14
ATOM     14  C   UNL     1      31.269  22.502  12.574  0.00  0.00    +0.011 A 
ATOM     15  C   UNL     1      32.327  22.181  11.719  0.00  0.00    +0.010 A 
ATOM     16  C   UNL     1      32.669  23.052  10.686  0.00  0.00    +0.020 A 
ATOM     17  C   UNL     1      31.938  24.220  10.540  0.00  0.00    +0.111 A 
ATOM     18  N   UNL     1      30.918  24.572  11.348  0.00  0.00    -0.263 NA
ATOM     19  C   UNL     1      30.607  23.708  12.339  0.00  0.00    +0.118 A 
ENDBRANCH  13  14
BRANCH  13  20
ATOM     20  C   UNL     1      31.274  22.121  14.993  0.00  0.00    +0.034 C 
ATOM     21  C   UNL     1      32.756  22.228  15.263  0.00  0.00    +0.008 C 
ATOM     22  C   UNL     1      31.923  21.254  16.049  0.00  0.00    +0.008 C 
ENDBRANCH  13  20
ENDBRANCH  12  13
ENDBRANCH   5  12
TORSDOF 5
ENDMDL
MODEL 9
REMARK VINA RESULT:      -6.0      2.644      6.563
REMARK  Name = ZINC001228612316
REMARK  5 active torsions:
REMARK  status: ('A' for Active; 'I' for Inactive)
REMARK    1  A    between atoms: C_2  and  C_4
REMARK    2  A    between atoms: C_8  and  O_9
REMARK    3  A    between atoms: O_9  and  C_10
REMARK    4  A    between atoms: C_10  and  C_11
REMARK    5  A    between atoms: C_10  and  C_17
REMARK                            x       y       z     vdW  Elec       q    Type
REMARK                         _______ _______ _______ _____ _____    ______ ____
ROOT
ATOM      1  C   UNL     1      29.440  17.217  14.446  0.00  0.00    +0.040 A 
ATOM      2  C   UNL     1      28.258  16.548  14.782  0.00  0.00    +0.013 A 
ATOM      3  C   UNL     1      27.232  17.227  15.439  0.00  0.00    +0.004 A 
ATOM      4  C   UNL     1      27.379  18.578  15.765  0.00  0.00    +0.046 A 
ATOM      5  C   UNL     1      28.554  19.255  15.439  0.00  0.00    +0.122 A 
ATOM      6  C   UNL     1      29.581  18.571  14.777  0.00  0.00    +0.058 A 
ENDROOT
BRANCH   1   8
ATOM      7  N   UNL     1      31.781  16.919  13.816  0.00  0.00    -0.325 N 
ATOM      8  C   UNL     1      30.497  16.453  13.730  0.00  0.00    +0.242 C 
ATOM      9  O   UNL     1      30.244  15.424  13.116  0.00  0.00    -0.270 OA
ATOM     10  H   UNL     1      32.497  16.328  13.412  0.00  0.00    +0.145 HD
ATOM     11  H   UNL     1      32.069  17.608  14.494  0.00  0.00    +0.145 HD
ENDBRANCH   1   8
BRANCH   5  12
ATOM     12  O   UNL     1      28.844  20.552  15.768  0.00  0.00    -0.484 OA
BRANCH  12  13
ATOM     13  C   UNL     1      28.796  20.944  17.149  0.00  0.00    +0.208 C 
BRANCH  13  14
ATOM     14  C   UNL     1      30.040  21.680  17.608  0.00  0.00    +0.011 A 
ATOM     15  C   UNL     1      31.263  21.046  17.844  0.00  0.00    +0.010 A 
ATOM     16  C   UNL     1      32.381  21.807  18.177  0.00  0.00    +0.020 A 
ATOM     17  C   UNL     1      32.241  23.183  18.262  0.00  0.00    +0.111 A 
ATOM     18  N   UNL     1      31.078  23.832  18.052  0.00  0.00    -0.263 NA
ATOM     19  C   UNL     1      30.011  23.069  17.728  0.00  0.00    +0.118 A 
ENDBRANCH  13  14
BRANCH  13  20
ATOM     20  C   UNL     1      27.611  21.879  17.367  0.00  0.00    +0.034 C 
ATOM     21  C   UNL     1      26.791  21.797  18.632  0.00  0.00    +0.008 C 
ATOM     22  C   UNL     1      26.172  21.415  17.316  0.00  0.00    +0.008 C 
ENDBRANCH  13  20
ENDBRANCH  12  13
ENDBRANCH   5  12
TORSDOF 5
ENDMDL
