MODEL 1
REMARK VINA RESULT:      -6.5      0.000      0.000
REMARK  Name = ZINC001228612316
REMARK  5 active torsions:
REMARK  status: ('A' for Active; 'I' for Inactive)
REMARK    1  A    between atoms: C_2  and  C_4
REMARK    2  A    between atoms: C_8  and  O_9
REMARK    3  A    between atoms: O_9  and  C_10
REMARK    4  A    between atoms: C_10  and  C_11
REMARK    5  A    between atoms: C_10  and  C_17
REMARK                            x       y       z     vdW  Elec       q    Type
REMARK                         _______ _______ _______ _____ _____    ______ ____
ROOT
ATOM      1  C   UNL     1      28.909  21.101  17.944  0.00  0.00    +0.040 A 
ATOM      2  C   UNL     1      27.615  20.632  17.702  0.00  0.00    +0.013 A 
ATOM      3  C   UNL     1      27.391  19.740  16.650  0.00  0.00    +0.004 A 
ATOM      4  C   UNL     1      28.458  19.314  15.852  0.00  0.00    +0.046 A 
ATOM      5  C   UNL     1      29.754  19.775  16.097  0.00  0.00    +0.122 A 
ATOM      6  C   UNL     1      29.963  20.691  17.123  0.00  0.00    +0.058 A 
ENDROOT
BRANCH   1   8
ATOM      7  N   UNL     1      30.006  23.122  18.751  0.00  0.00    -0.325 N 
ATOM      8  C   UNL     1      29.240  22.033  19.052  0.00  0.00    +0.242 C 
ATOM      9  O   UNL     1      28.793  21.873  20.181  0.00  0.00    -0.270 OA
ATOM     10  H   UNL     1      30.093  23.812  19.487  0.00  0.00    +0.145 HD
ATOM     11  H   UNL     1      30.153  23.431  17.801  0.00  0.00    +0.145 HD
ENDBRANCH   1   8
BRANCH   5  12
ATOM     12  O   UNL     1      30.730  19.292  15.269  0.00  0.00    -0.484 OA
BRANCH  12  13
ATOM     13  C   UNL     1      31.306  18.012  15.589  0.00  0.00    +0.208 C 
BRANCH  13  14
ATOM     14  C   UNL     1      31.167  17.097  14.390  0.00  0.00    +0.011 A 
ATOM     15  C   UNL     1      29.900  16.655  13.987  0.00  0.00    +0.010 A 
ATOM     16  C   UNL     1      29.771  15.810  12.892  0.00  0.00    +0.020 A 
ATOM     17  C   UNL     1      30.922  15.431  12.225  0.00  0.00    +0.111 A 
ATOM     18  N   UNL     1      32.163  15.828  12.581  0.00  0.00    -0.263 NA
ATOM     19  C   UNL     1      32.257  16.648  13.656  0.00  0.00    +0.118 A 
ENDBRANCH  13  14
BRANCH  13  20
ATOM     20  C   UNL     1      32.764  18.189  15.950  0.00  0.00    +0.034 C 
ATOM     21  C   UNL     1      33.437  17.347  17.014  0.00  0.00    +0.008 C 
ATOM     22  C   UNL     1      33.165  18.796  17.280  0.00  0.00    +0.008 C 
ENDBRANCH  13  20
ENDBRANCH  12  13
ENDBRANCH   5  12
TORSDOF 5
ENDMDL
MODEL 2
REMARK VINA RESULT:      -6.4      2.233      6.456
REMARK  Name = ZINC001228612316
REMARK  5 active torsions:
REMARK  status: ('A' for Active; 'I' for Inactive)
REMARK    1  A    between atoms: C_2  and  C_4
REMARK    2  A    between atoms: C_8  and  O_9
REMARK    3  A    between atoms: O_9  and  C_10
REMARK    4  A    between atoms: C_10  and  C_11
REMARK    5  A    between atoms: C_10  and  C_17
REMARK                            x       y       z     vdW  Elec       q    Type
REMARK                         _______ _______ _______ _____ _____    ______ ____
ROOT
ATOM      1  C   UNL     1      31.053  15.905  12.779  0.00  0.00    +0.040 A 
ATOM      2  C   UNL     1      32.380  16.023  12.358  0.00  0.00    +0.013 A 
ATOM      3  C   UNL     1      33.271  16.804  13.099  0.00  0.00    +0.004 A 
ATOM      4  C   UNL     1      32.838  17.453  14.260  0.00  0.00    +0.046 A 
ATOM      5  C   UNL     1      31.514  17.330  14.689  0.00  0.00    +0.122 A 
ATOM      6  C   UNL     1      30.624  16.581  13.926  0.00  0.00    +0.058 A 
ENDROOT
BRANCH   1   8
ATOM      7  N   UNL     1      28.831  14.911  12.666  0.00  0.00    -0.325 N 
ATOM      8  C   UNL     1      30.045  15.081  12.065  0.00  0.00    +0.242 C 
ATOM      9  O   UNL     1      30.263  14.622  10.950  0.00  0.00    -0.270 OA
ATOM     10  H   UNL     1      28.119  14.472  12.095  0.00  0.00    +0.145 HD
ATOM     11  H   UNL     1      28.523  15.491  13.432  0.00  0.00    +0.145 HD
ENDBRANCH   1   8
BRANCH   5  12
ATOM     12  O   UNL     1      31.191  17.993  15.840  0.00  0.00    -0.484 OA
BRANCH  12  13
ATOM     13  C   UNL     1      31.339  19.426  15.850  0.00  0.00    +0.208 C 
BRANCH  13  14
ATOM     14  C   UNL     1      29.970  20.059  15.982  0.00  0.00    +0.011 A 
ATOM     15  C   UNL     1      28.834  19.254  16.138  0.00  0.00    +0.010 A 
ATOM     16  C   UNL     1      27.577  19.833  16.253  0.00  0.00    +0.020 A 
ATOM     17  C   UNL     1      27.491  21.213  16.209  0.00  0.00    +0.111 A 
ATOM     18  N   UNL     1      28.557  22.028  16.055  0.00  0.00    -0.263 NA
ATOM     19  C   UNL     1      29.770  21.434  15.942  0.00  0.00    +0.118 A 
ENDBRANCH  13  14
BRANCH  13  20
ATOM     20  C   UNL     1      32.223  19.836  17.007  0.00  0.00    +0.034 C 
ATOM     21  C   UNL     1      33.145  21.035  16.929  0.00  0.00    +0.008 C 
ATOM     22  C   UNL     1      33.726  19.654  16.936  0.00  0.00    +0.008 C 
ENDBRANCH  13  20
ENDBRANCH  12  13
ENDBRANCH   5  12
TORSDOF 5
ENDMDL
MODEL 3
REMARK VINA RESULT:      -6.2      0.925      1.308
REMARK  Name = ZINC001228612316
REMARK  5 active torsions:
REMARK  status: ('A' for Active; 'I' for Inactive)
REMARK    1  A    between atoms: C_2  and  C_4
REMARK    2  A    between atoms: C_8  and  O_9
REMARK    3  A    between atoms: O_9  and  C_10
REMARK    4  A    between atoms: C_10  and  C_11
REMARK    5  A    between atoms: C_10  and  C_17
REMARK                            x       y       z     vdW  Elec       q    Type
REMARK                         _______ _______ _______ _____ _____    ______ ____
ROOT
ATOM      1  C   UNL     1      28.882  20.993  17.774  0.00  0.00    +0.040 A 
ATOM      2  C   UNL     1      27.612  20.536  17.413  0.00  0.00    +0.013 A 
ATOM      3  C   UNL     1      27.473  19.686  16.312  0.00  0.00    +0.004 A 
ATOM      4  C   UNL     1      28.600  19.289  15.586  0.00  0.00    +0.046 A 
ATOM      5  C   UNL     1      29.872  19.737  15.950  0.00  0.00    +0.122 A 
ATOM      6  C   UNL     1      29.999  20.611  17.024  0.00  0.00    +0.058 A 
ENDROOT
BRANCH   1   8
ATOM      7  N   UNL     1      28.243  21.808  19.980  0.00  0.00    -0.325 N 
ATOM      8  C   UNL     1      29.124  21.880  18.940  0.00  0.00    +0.242 C 
ATOM      9  O   UNL     1      30.110  22.605  19.003  0.00  0.00    -0.270 OA
ATOM     10  H   UNL     1      28.511  22.312  20.816  0.00  0.00    +0.145 HD
ATOM     11  H   UNL     1      27.595  21.041  20.085  0.00  0.00    +0.145 HD
ENDBRANCH   1   8
BRANCH   5  12
ATOM     12  O   UNL     1      30.910  19.284  15.184  0.00  0.00    -0.484 OA
BRANCH  12  13
ATOM     13  C   UNL     1      31.491  18.012  15.528  0.00  0.00    +0.208 C 
BRANCH  13  14
ATOM     14  C   UNL     1      31.422  17.098  14.323  0.00  0.00    +0.011 A 
ATOM     15  C   UNL     1      32.579  16.817  13.586  0.00  0.00    +0.010 A 
ATOM     16  C   UNL     1      32.516  15.983  12.476  0.00  0.00    +0.020 A 
ATOM     17  C   UNL     1      31.286  15.449  12.135  0.00  0.00    +0.111 A 
ATOM     18  N   UNL     1      30.145  15.695  12.813  0.00  0.00    -0.263 NA
ATOM     19  C   UNL     1      30.237  16.515  13.888  0.00  0.00    +0.118 A 
ENDBRANCH  13  14
BRANCH  13  20
ATOM     20  C   UNL     1      32.929  18.211  15.956  0.00  0.00    +0.034 C 
ATOM     21  C   UNL     1      33.557  17.395  17.067  0.00  0.00    +0.008 C 
ATOM     22  C   UNL     1      33.258  18.845  17.293  0.00  0.00    +0.008 C 
ENDBRANCH  13  20
ENDBRANCH  12  13
ENDBRANCH   5  12
TORSDOF 5
ENDMDL
MODEL 4
REMARK VINA RESULT:      -6.2      2.032      6.337
REMARK  Name = ZINC001228612316
REMARK  5 active torsions:
REMARK  status: ('A' for Active; 'I' for Inactive)
REMARK    1  A    between atoms: C_2  and  C_4
REMARK    2  A    between atoms: C_8  and  O_9
REMARK    3  A    between atoms: O_9  and  C_10
REMARK    4  A    between atoms: C_10  and  C_11
REMARK    5  A    between atoms: C_10  and  C_17
REMARK                            x       y       z     vdW  Elec       q    Type
REMARK                         _______ _______ _______ _____ _____    ______ ____
ROOT
ATOM      1  C   UNL     1      32.155  16.146  12.778  0.00  0.00    +0.040 A 
ATOM      2  C   UNL     1      31.036  15.587  12.158  0.00  0.00    +0.013 A 
ATOM      3  C   UNL     1      29.777  15.730  12.748  0.00  0.00    +0.004 A 
ATOM      4  C   UNL     1      29.641  16.438  13.946  0.00  0.00    +0.046 A 
ATOM      5  C   UNL     1      30.757  17.007  14.565  0.00  0.00    +0.122 A 
ATOM      6  C   UNL     1      32.011  16.829  13.990  0.00  0.00    +0.058 A 
ENDROOT
BRANCH   1   8
ATOM      7  N   UNL     1      33.868  16.970  11.253  0.00  0.00    -0.325 N 
ATOM      8  C   UNL     1      33.525  16.061  12.212  0.00  0.00    +0.242 C 
ATOM      9  O   UNL     1      34.344  15.250  12.629  0.00  0.00    -0.270 OA
ATOM     10  H   UNL     1      34.847  16.982  10.992  0.00  0.00    +0.145 HD
ATOM     11  H   UNL     1      33.331  17.809  11.090  0.00  0.00    +0.145 HD
ENDBRANCH   1   8
BRANCH   5  12
ATOM     12  O   UNL     1      30.518  17.688  15.726  0.00  0.00    -0.484 OA
BRANCH  12  13
ATOM     13  C   UNL     1      30.952  19.059  15.799  0.00  0.00    +0.208 C 
BRANCH  13  14
ATOM     14  C   UNL     1      29.740  19.948  15.982  0.00  0.00    +0.011 A 
ATOM     15  C   UNL     1      28.466  19.381  16.121  0.00  0.00    +0.010 A 
ATOM     16  C   UNL     1      27.352  20.196  16.283  0.00  0.00    +0.020 A 
ATOM     17  C   UNL     1      27.547  21.566  16.302  0.00  0.00    +0.111 A 
ATOM     18  N   UNL     1      28.754  22.156  16.166  0.00  0.00    -0.263 NA
ATOM     19  C   UNL     1      29.821  21.336  16.007  0.00  0.00    +0.118 A 
ENDBRANCH  13  14
BRANCH  13  20
ATOM     20  C   UNL     1      31.908  19.227  16.959  0.00  0.00    +0.034 C 
ATOM     21  C   UNL     1      33.135  20.111  16.868  0.00  0.00    +0.008 C 
ATOM     22  C   UNL     1      33.298  18.623  16.911  0.00  0.00    +0.008 C 
ENDBRANCH  13  20
ENDBRANCH  12  13
ENDBRANCH   5  12
TORSDOF 5
ENDMDL
MODEL 5
REMARK VINA RESULT:      -6.0      1.917      6.887
REMARK  Name = ZINC001228612316
REMARK  5 active torsions:
REMARK  status: ('A' for Active; 'I' for Inactive)
REMARK    1  A    between atoms: C_2  and  C_4
REMARK    2  A    between atoms: C_8  and  O_9
REMARK    3  A    between atoms: O_9  and  C_10
REMARK    4  A    between atoms: C_10  and  C_11
REMARK    5  A    between atoms: C_10  and  C_17
REMARK                            x       y       z     vdW  Elec       q    Type
REMARK                         _______ _______ _______ _____ _____    ______ ____
ROOT
ATOM      1  C   UNL     1      30.915  16.335  13.428  0.00  0.00    +0.040 A 
ATOM      2  C   UNL     1      32.302  16.484  13.355  0.00  0.00    +0.013 A 
ATOM      3  C   UNL     1      32.956  17.313  14.271  0.00  0.00    +0.004 A 
ATOM      4  C   UNL     1      32.224  17.981  15.258  0.00  0.00    +0.046 A 
ATOM      5  C   UNL     1      30.838  17.827  15.339  0.00  0.00    +0.122 A 
ATOM      6  C   UNL     1      30.191  17.029  14.402  0.00  0.00    +0.058 A 
ENDROOT
BRANCH   1   8
ATOM      7  N   UNL     1      28.891  15.085  12.902  0.00  0.00    -0.325 N 
ATOM      8  C   UNL     1      30.144  15.460  12.510  0.00  0.00    +0.242 C 
ATOM      9  O   UNL     1      30.580  15.134  11.413  0.00  0.00    -0.270 OA
ATOM     10  H   UNL     1      28.335  14.613  12.199  0.00  0.00    +0.145 HD
ATOM     11  H   UNL     1      28.399  15.550  13.651  0.00  0.00    +0.145 HD
ENDBRANCH   1   8
BRANCH   5  12
ATOM     12  O   UNL     1      30.216  18.513  16.346  0.00  0.00    -0.484 OA
BRANCH  12  13
ATOM     13  C   UNL     1      29.365  19.615  15.978  0.00  0.00    +0.208 C 
BRANCH  13  14
ATOM     14  C   UNL     1      28.908  20.323  17.236  0.00  0.00    +0.011 A 
ATOM     15  C   UNL     1      27.602  20.142  17.710  0.00  0.00    +0.010 A 
ATOM     16  C   UNL     1      27.179  20.796  18.861  0.00  0.00    +0.020 A 
ATOM     17  C   UNL     1      28.083  21.618  19.510  0.00  0.00    +0.111 A 
ATOM     18  N   UNL     1      29.348  21.826  19.087  0.00  0.00    -0.263 NA
ATOM     19  C   UNL     1      29.731  21.178  17.960  0.00  0.00    +0.118 A 
ENDBRANCH  13  14
BRANCH  13  20
ATOM     20  C   UNL     1      30.128  20.568  15.085  0.00  0.00    +0.034 C 
ATOM     21  C   UNL     1      29.607  21.951  14.754  0.00  0.00    +0.008 C 
ATOM     22  C   UNL     1      29.625  20.895  13.692  0.00  0.00    +0.008 C 
ENDBRANCH  13  20
ENDBRANCH  12  13
ENDBRANCH   5  12
TORSDOF 5
ENDMDL
MODEL 6
REMARK VINA RESULT:      -6.0      4.383      6.234
REMARK  Name = ZINC001228612316
REMARK  5 active torsions:
REMARK  status: ('A' for Active; 'I' for Inactive)
REMARK    1  A    between atoms: C_2  and  C_4
REMARK    2  A    between atoms: C_8  and  O_9
REMARK    3  A    between atoms: O_9  and  C_10
REMARK    4  A    between atoms: C_10  and  C_11
REMARK    5  A    between atoms: C_10  and  C_17
REMARK                            x       y       z     vdW  Elec       q    Type
REMARK                         _______ _______ _______ _____ _____    ______ ____
ROOT
ATOM      1  C   UNL     1      29.497  18.937  15.187  0.00  0.00    +0.040 A 
ATOM      2  C   UNL     1      28.354  19.128  15.967  0.00  0.00    +0.013 A 
ATOM      3  C   UNL     1      27.798  20.406  16.073  0.00  0.00    +0.004 A 
ATOM      4  C   UNL     1      28.377  21.482  15.393  0.00  0.00    +0.046 A 
ATOM      5  C   UNL     1      29.515  21.292  14.605  0.00  0.00    +0.122 A 
ATOM      6  C   UNL     1      30.084  20.025  14.534  0.00  0.00    +0.058 A 
ENDROOT
BRANCH   1   8
ATOM      7  N   UNL     1      29.333  16.557  14.692  0.00  0.00    -0.325 N 
ATOM      8  C   UNL     1      30.141  17.612  15.002  0.00  0.00    +0.242 C 
ATOM      9  O   UNL     1      31.357  17.475  15.060  0.00  0.00    -0.270 OA
ATOM     10  H   UNL     1      29.811  15.703  14.429  0.00  0.00    +0.145 HD
ATOM     11  H   UNL     1      28.386  16.681  14.366  0.00  0.00    +0.145 HD
ENDBRANCH   1   8
BRANCH   5  12
ATOM     12  O   UNL     1      30.000  22.404  13.973  0.00  0.00    -0.484 OA
BRANCH  12  13
ATOM     13  C   UNL     1      31.267  22.927  14.417  0.00  0.00    +0.208 C 
BRANCH  13  14
ATOM     14  C   UNL     1      31.845  23.803  13.326  0.00  0.00    +0.011 A 
ATOM     15  C   UNL     1      31.119  24.902  12.847  0.00  0.00    +0.010 A 
ATOM     16  C   UNL     1      31.646  25.703  11.842  0.00  0.00    +0.020 A 
ATOM     17  C   UNL     1      32.894  25.380  11.341  0.00  0.00    +0.111 A 
ATOM     18  N   UNL     1      33.627  24.329  11.768  0.00  0.00    -0.263 NA
ATOM     19  C   UNL     1      33.086  23.563  12.747  0.00  0.00    +0.118 A 
ENDBRANCH  13  14
BRANCH  13  20
ATOM     20  C   UNL     1      31.069  23.727  15.685  0.00  0.00    +0.034 C 
ATOM     21  C   UNL     1      32.226  24.374  16.417  0.00  0.00    +0.008 C 
ATOM     22  C   UNL     1      31.540  23.189  17.022  0.00  0.00    +0.008 C 
ENDBRANCH  13  20
ENDBRANCH  12  13
ENDBRANCH   5  12
TORSDOF 5
ENDMDL
MODEL 7
REMARK VINA RESULT:      -6.0      1.436      1.713
REMARK  Name = ZINC001228612316
REMARK  5 active torsions:
REMARK  status: ('A' for Active; 'I' for Inactive)
REMARK    1  A    between atoms: C_2  and  C_4
REMARK    2  A    between atoms: C_8  and  O_9
REMARK    3  A    between atoms: O_9  and  C_10
REMARK    4  A    between atoms: C_10  and  C_11
REMARK    5  A    between atoms: C_10  and  C_17
REMARK                            x       y       z     vdW  Elec       q    Type
REMARK                         _______ _______ _______ _____ _____    ______ ____
ROOT
ATOM      1  C   UNL     1      28.837  20.951  17.354  0.00  0.00    +0.040 A 
ATOM      2  C   UNL     1      27.782  20.160  16.894  0.00  0.00    +0.013 A 
ATOM      3  C   UNL     1      28.009  19.231  15.875  0.00  0.00    +0.004 A 
ATOM      4  C   UNL     1      29.288  19.090  15.328  0.00  0.00    +0.046 A 
ATOM      5  C   UNL     1      30.348  19.873  15.791  0.00  0.00    +0.122 A 
ATOM      6  C   UNL     1      30.106  20.821  16.780  0.00  0.00    +0.058 A 
ENDROOT
BRANCH   1   8
ATOM      7  N   UNL     1      28.731  23.268  18.103  0.00  0.00    -0.325 N 
ATOM      8  C   UNL     1      28.690  21.947  18.445  0.00  0.00    +0.242 C 
ATOM      9  O   UNL     1      28.474  21.606  19.602  0.00  0.00    -0.270 OA
ATOM     10  H   UNL     1      28.483  23.918  18.839  0.00  0.00    +0.145 HD
ATOM     11  H   UNL     1      28.627  23.580  17.149  0.00  0.00    +0.145 HD
ENDBRANCH   1   8
BRANCH   5  12
ATOM     12  O   UNL     1      31.561  19.653  15.200  0.00  0.00    -0.484 OA
BRANCH  12  13
ATOM     13  C   UNL     1      32.188  18.374  15.414  0.00  0.00    +0.208 C 
BRANCH  13  14
ATOM     14  C   UNL     1      32.754  17.878  14.100  0.00  0.00    +0.011 A 
ATOM     15  C   UNL     1      32.422  16.601  13.629  0.00  0.00    +0.010 A 
ATOM     16  C   UNL     1      32.946  16.142  12.427  0.00  0.00    +0.020 A 
ATOM     17  C   UNL     1      33.793  16.982  11.725  0.00  0.00    +0.111 A 
ATOM     18  N   UNL     1      34.144  18.217  12.142  0.00  0.00    -0.263 NA
ATOM     19  C   UNL     1      33.620  18.636  13.320  0.00  0.00    +0.118 A 
ENDBRANCH  13  14
BRANCH  13  20
ATOM     20  C   UNL     1      33.288  18.515  16.443  0.00  0.00    +0.034 C 
ATOM     21  C   UNL     1      34.285  17.406  16.711  0.00  0.00    +0.008 C 
ATOM     22  C   UNL     1      33.243  17.728  17.738  0.00  0.00    +0.008 C 
ENDBRANCH  13  20
ENDBRANCH  12  13
ENDBRANCH   5  12
TORSDOF 5
ENDMDL
MODEL 8
REMARK VINA RESULT:      -5.9      2.124      6.782
REMARK  Name = ZINC001228612316
REMARK  5 active torsions:
REMARK  status: ('A' for Active; 'I' for Inactive)
REMARK    1  A    between atoms: C_2  and  C_4
REMARK    2  A    between atoms: C_8  and  O_9
REMARK    3  A    between atoms: O_9  and  C_10
REMARK    4  A    between atoms: C_10  and  C_11
REMARK    5  A    between atoms: C_10  and  C_17
REMARK                            x       y       z     vdW  Elec       q    Type
REMARK                         _______ _______ _______ _____ _____    ______ ____
ROOT
ATOM      1  C   UNL     1      31.550  17.574  14.756  0.00  0.00    +0.040 A 
ATOM      2  C   UNL     1      30.253  17.137  14.476  0.00  0.00    +0.013 A 
ATOM      3  C   UNL     1      29.165  17.782  15.069  0.00  0.00    +0.004 A 
ATOM      4  C   UNL     1      29.375  18.865  15.929  0.00  0.00    +0.046 A 
ATOM      5  C   UNL     1      30.670  19.310  16.205  0.00  0.00    +0.122 A 
ATOM      6  C   UNL     1      31.750  18.640  15.639  0.00  0.00    +0.058 A 
ENDROOT
BRANCH   1   8
ATOM      7  N   UNL     1      33.970  17.506  14.479  0.00  0.00    -0.325 N 
ATOM      8  C   UNL     1      32.761  16.961  14.155  0.00  0.00    +0.242 C 
ATOM      9  O   UNL     1      32.693  15.964  13.446  0.00  0.00    -0.270 OA
ATOM     10  H   UNL     1      34.782  16.981  14.175  0.00  0.00    +0.145 HD
ATOM     11  H   UNL     1      34.085  18.133  15.261  0.00  0.00    +0.145 HD
ENDBRANCH   1   8
BRANCH   5  12
ATOM     12  O   UNL     1      30.769  20.382  17.049  0.00  0.00    -0.484 OA
BRANCH  12  13
ATOM     13  C   UNL     1      29.950  21.532  16.769  0.00  0.00    +0.208 C 
BRANCH  13  14
ATOM     14  C   UNL     1      29.039  21.786  17.952  0.00  0.00    +0.011 A 
ATOM     15  C   UNL     1      29.554  21.759  19.255  0.00  0.00    +0.010 A 
ATOM     16  C   UNL     1      28.718  21.985  20.341  0.00  0.00    +0.020 A 
ATOM     17  C   UNL     1      27.381  22.235  20.091  0.00  0.00    +0.111 A 
ATOM     18  N   UNL     1      26.840  22.265  18.854  0.00  0.00    -0.263 NA
ATOM     19  C   UNL     1      27.679  22.037  17.814  0.00  0.00    +0.118 A 
ENDBRANCH  13  14
BRANCH  13  20
ATOM     20  C   UNL     1      30.834  22.735  16.518  0.00  0.00    +0.034 C 
ATOM     21  C   UNL     1      30.261  24.113  16.259  0.00  0.00    +0.008 C 
ATOM     22  C   UNL     1      30.915  23.362  15.140  0.00  0.00    +0.008 C 
ENDBRANCH  13  20
ENDBRANCH  12  13
ENDBRANCH   5  12
TORSDOF 5
ENDMDL
MODEL 9
REMARK VINA RESULT:      -5.9      2.758      4.113
REMARK  Name = ZINC001228612316
REMARK  5 active torsions:
REMARK  status: ('A' for Active; 'I' for Inactive)
REMARK    1  A    between atoms: C_2  and  C_4
REMARK    2  A    between atoms: C_8  and  O_9
REMARK    3  A    between atoms: O_9  and  C_10
REMARK    4  A    between atoms: C_10  and  C_11
REMARK    5  A    between atoms: C_10  and  C_17
REMARK                            x       y       z     vdW  Elec       q    Type
REMARK                         _______ _______ _______ _____ _____    ______ ____
ROOT
ATOM      1  C   UNL     1      27.885  21.361  18.431  0.00  0.00    +0.040 A 
ATOM      2  C   UNL     1      27.297  20.141  18.089  0.00  0.00    +0.013 A 
ATOM      3  C   UNL     1      27.420  19.658  16.784  0.00  0.00    +0.004 A 
ATOM      4  C   UNL     1      28.136  20.388  15.830  0.00  0.00    +0.046 A 
ATOM      5  C   UNL     1      28.732  21.605  16.170  0.00  0.00    +0.122 A 
ATOM      6  C   UNL     1      28.575  22.097  17.462  0.00  0.00    +0.058 A 
ENDROOT
BRANCH   1   8
ATOM      7  N   UNL     1      26.975  22.990  19.999  0.00  0.00    -0.325 N 
ATOM      8  C   UNL     1      27.822  21.939  19.797  0.00  0.00    +0.242 C 
ATOM      9  O   UNL     1      28.453  21.455  20.729  0.00  0.00    -0.270 OA
ATOM     10  H   UNL     1      26.843  23.267  20.964  0.00  0.00    +0.145 HD
ATOM     11  H   UNL     1      26.248  23.229  19.340  0.00  0.00    +0.145 HD
ENDBRANCH   1   8
BRANCH   5  12
ATOM     12  O   UNL     1      29.419  22.238  15.171  0.00  0.00    -0.484 OA
BRANCH  12  13
ATOM     13  C   UNL     1      30.803  22.553  15.406  0.00  0.00    +0.208 C 
BRANCH  13  14
ATOM     14  C   UNL     1      31.589  21.263  15.516  0.00  0.00    +0.011 A 
ATOM     15  C   UNL     1      32.154  20.886  16.742  0.00  0.00    +0.010 A 
ATOM     16  C   UNL     1      32.880  19.706  16.843  0.00  0.00    +0.020 A 
ATOM     17  C   UNL     1      33.020  18.930  15.707  0.00  0.00    +0.111 A 
ATOM     18  N   UNL     1      32.498  19.256  14.505  0.00  0.00    -0.263 NA
ATOM     19  C   UNL     1      31.798  20.414  14.436  0.00  0.00    +0.118 A 
ENDBRANCH  13  14
BRANCH  13  20
ATOM     20  C   UNL     1      31.332  23.395  14.266  0.00  0.00    +0.034 C 
ATOM     21  C   UNL     1      32.716  24.010  14.295  0.00  0.00    +0.008 C 
ATOM     22  C   UNL     1      31.513  24.892  14.428  0.00  0.00    +0.008 C 
ENDBRANCH  13  20
ENDBRANCH  12  13
ENDBRANCH   5  12
TORSDOF 5
ENDMDL
