MODEL 1
REMARK VINA RESULT:      -7.1      0.000      0.000
REMARK  Name = ZINC000543478179
REMARK  8 active torsions:
REMARK  status: ('A' for Active; 'I' for Inactive)
REMARK    1  A    between atoms: C_1  and  C_2
REMARK    2  A    between atoms: C_2  and  N_3
REMARK    3  A    between atoms: N_9  and  C_10
REMARK    4  A    between atoms: C_10  and  C_11
REMARK    5  A    between atoms: C_10  and  C_12
REMARK    6  A    between atoms: C_15  and  O_16
REMARK    7  A    between atoms: O_16  and  C_17
REMARK    8  A    between atoms: C_17  and  C_18
REMARK                            x       y       z     vdW  Elec       q    Type
REMARK                         _______ _______ _______ _____ _____    ______ ____
ROOT
ATOM      1  C   UNL     1      30.605  23.669  13.247  0.00  0.00    +0.102 C 
ATOM      2  C   UNL     1      29.840  24.936  12.857  0.00  0.00    +0.033 C 
ENDROOT
BRANCH   1   9
ATOM      3  N   UNL     1      34.211  22.584   9.322  0.00  0.00    -0.299 N 
ATOM      4  C   UNL     1      35.158  22.763  10.421  0.00  0.00    +0.127 C 
ATOM      5  C   UNL     1      34.788  23.961  11.301  0.00  0.00    +0.129 C 
ATOM      6  N   UNL     1      33.427  23.809  11.823  0.00  0.00    -0.275 N 
ATOM      7  C   UNL     1      33.188  24.064  13.144  0.00  0.00    +0.303 C 
ATOM      8  O   UNL     1      34.097  24.399  13.911  0.00  0.00    -0.253 OA
ATOM      9  N   UNL     1      31.963  23.955  13.703  0.00  0.00    -0.293 N 
ATOM     10  C   UNL     1      32.440  23.406  10.834  0.00  0.00    +0.205 C 
ATOM     11  C   UNL     1      32.896  22.988   9.436  0.00  0.00    +0.233 C 
ATOM     12  O   UNL     1      32.077  22.901   8.518  0.00  0.00    -0.274 OA
ATOM     13  H   UNL     1      32.042  24.171  14.689  0.00  0.00    +0.151 HD
BRANCH   3  15
ATOM     14  C   UNL     1      34.563  20.432   8.212  0.00  0.00    +0.024 C 
ATOM     15  C   UNL     1      34.647  21.942   8.095  0.00  0.00    +0.104 C 
ENDBRANCH   3  15
ENDBRANCH   1   9
BRANCH   1  16
ATOM     16  C   UNL     1      29.866  22.854  14.292  0.00  0.00    -0.024 A 
ATOM     17  C   UNL     1      29.168  21.688  13.956  0.00  0.00    +0.009 A 
ATOM     18  C   UNL     1      28.477  20.962  14.928  0.00  0.00    +0.049 A 
ATOM     19  C   UNL     1      28.436  21.412  16.255  0.00  0.00    +0.156 A 
ATOM     20  C   UNL     1      29.163  22.550  16.596  0.00  0.00    +0.165 A 
ATOM     21  F   UNL     1      29.183  22.989  17.865  0.00  0.00    -0.202 F 
ATOM     22  C   UNL     1      29.861  23.275  15.633  0.00  0.00    +0.047 A 
BRANCH  19  23
ATOM     23  O   UNL     1      27.720  20.810  17.252  0.00  0.00    -0.489 OA
BRANCH  23  24
ATOM     24  C   UNL     1      26.309  20.774  17.042  0.00  0.00    +0.232 C 
BRANCH  24  25
ATOM     25  C   UNL     1      25.771  22.170  17.047  0.00  0.00    +0.027 C 
ATOM     26  C   UNL     1      25.783  22.959  18.332  0.00  0.00    +0.007 C 
ATOM     27  C   UNL     1      24.477  22.485  17.756  0.00  0.00    +0.007 C 
ENDBRANCH  24  25
ENDBRANCH  23  24
ENDBRANCH  19  23
ENDBRANCH   1  16
TORSDOF 6
ENDMDL
MODEL 2
REMARK VINA RESULT:      -6.9      3.157      8.549
REMARK  Name = ZINC000543478179
REMARK  8 active torsions:
REMARK  status: ('A' for Active; 'I' for Inactive)
REMARK    1  A    between atoms: C_1  and  C_2
REMARK    2  A    between atoms: C_2  and  N_3
REMARK    3  A    between atoms: N_9  and  C_10
REMARK    4  A    between atoms: C_10  and  C_11
REMARK    5  A    between atoms: C_10  and  C_12
REMARK    6  A    between atoms: C_15  and  O_16
REMARK    7  A    between atoms: O_16  and  C_17
REMARK    8  A    between atoms: C_17  and  C_18
REMARK                            x       y       z     vdW  Elec       q    Type
REMARK                         _______ _______ _______ _____ _____    ______ ____
ROOT
ATOM      1  C   UNL     1      30.599  24.470  12.695  0.00  0.00    +0.102 C 
ATOM      2  C   UNL     1      29.697  25.480  11.980  0.00  0.00    +0.033 C 
ENDROOT
BRANCH   1   9
ATOM      3  N   UNL     1      31.356  23.056  17.893  0.00  0.00    -0.299 N 
ATOM      4  C   UNL     1      30.768  21.801  17.426  0.00  0.00    +0.127 C 
ATOM      5  C   UNL     1      29.577  22.043  16.495  0.00  0.00    +0.129 C 
ATOM      6  N   UNL     1      29.981  22.869  15.353  0.00  0.00    -0.275 N 
ATOM      7  C   UNL     1      29.586  22.509  14.096  0.00  0.00    +0.303 C 
ATOM      8  O   UNL     1      28.913  21.492  13.899  0.00  0.00    -0.253 OA
ATOM      9  N   UNL     1      29.909  23.218  12.993  0.00  0.00    -0.293 N 
ATOM     10  C   UNL     1      30.775  24.037  15.702  0.00  0.00    +0.205 C 
ATOM     11  C   UNL     1      31.285  24.206  17.133  0.00  0.00    +0.233 C 
ATOM     12  O   UNL     1      31.723  25.297  17.509  0.00  0.00    -0.274 OA
ATOM     13  H   UNL     1      29.524  22.744  12.185  0.00  0.00    +0.151 HD
BRANCH   3  15
ATOM     14  C   UNL     1      33.307  22.234  19.120  0.00  0.00    +0.024 C 
ATOM     15  C   UNL     1      32.056  23.092  19.163  0.00  0.00    +0.104 C 
ENDBRANCH   3  15
ENDBRANCH   1   9
BRANCH   1  16
ATOM     16  C   UNL     1      31.872  24.191  11.918  0.00  0.00    -0.024 A 
ATOM     17  C   UNL     1      32.366  25.093  10.968  0.00  0.00    +0.009 A 
ATOM     18  C   UNL     1      33.527  24.810  10.248  0.00  0.00    +0.049 A 
ATOM     19  C   UNL     1      34.200  23.595  10.435  0.00  0.00    +0.156 A 
ATOM     20  C   UNL     1      33.731  22.716  11.408  0.00  0.00    +0.165 A 
ATOM     21  F   UNL     1      34.372  21.560  11.646  0.00  0.00    -0.202 F 
ATOM     22  C   UNL     1      32.576  22.995  12.136  0.00  0.00    +0.047 A 
BRANCH  19  23
ATOM     23  O   UNL     1      35.296  23.201   9.718  0.00  0.00    -0.489 OA
BRANCH  23  24
ATOM     24  C   UNL     1      35.126  23.218   8.301  0.00  0.00    +0.232 C 
BRANCH  24  25
ATOM     25  C   UNL     1      34.497  21.934   7.862  0.00  0.00    +0.027 C 
ATOM     26  C   UNL     1      35.021  20.631   8.411  0.00  0.00    +0.007 C 
ATOM     27  C   UNL     1      35.252  20.983   6.967  0.00  0.00    +0.007 C 
ENDBRANCH  24  25
ENDBRANCH  23  24
ENDBRANCH  19  23
ENDBRANCH   1  16
TORSDOF 6
ENDMDL
MODEL 3
REMARK VINA RESULT:      -6.6      1.616      2.082
REMARK  Name = ZINC000543478179
REMARK  8 active torsions:
REMARK  status: ('A' for Active; 'I' for Inactive)
REMARK    1  A    between atoms: C_1  and  C_2
REMARK    2  A    between atoms: C_2  and  N_3
REMARK    3  A    between atoms: N_9  and  C_10
REMARK    4  A    between atoms: C_10  and  C_11
REMARK    5  A    between atoms: C_10  and  C_12
REMARK    6  A    between atoms: C_15  and  O_16
REMARK    7  A    between atoms: O_16  and  C_17
REMARK    8  A    between atoms: C_17  and  C_18
REMARK                            x       y       z     vdW  Elec       q    Type
REMARK                         _______ _______ _______ _____ _____    ______ ____
ROOT
ATOM      1  C   UNL     1      31.380  23.663  12.509  0.00  0.00    +0.102 C 
ATOM      2  C   UNL     1      30.714  24.743  11.653  0.00  0.00    +0.033 C 
ENDROOT
BRANCH   1   9
ATOM      3  N   UNL     1      34.870  20.484   9.808  0.00  0.00    -0.299 N 
ATOM      4  C   UNL     1      35.822  21.074  10.748  0.00  0.00    +0.127 C 
ATOM      5  C   UNL     1      35.586  22.577  10.928  0.00  0.00    +0.129 C 
ATOM      6  N   UNL     1      34.211  22.828  11.372  0.00  0.00    -0.275 N 
ATOM      7  C   UNL     1      33.992  23.706  12.395  0.00  0.00    +0.303 C 
ATOM      8  O   UNL     1      34.926  24.277  12.967  0.00  0.00    -0.253 OA
ATOM      9  N   UNL     1      32.757  23.998  12.860  0.00  0.00    -0.293 N 
ATOM     10  C   UNL     1      33.193  22.098  10.632  0.00  0.00    +0.205 C 
ATOM     11  C   UNL     1      33.610  21.019   9.633  0.00  0.00    +0.233 C 
ATOM     12  O   UNL     1      32.794  20.584   8.816  0.00  0.00    -0.274 OA
ATOM     13  H   UNL     1      32.852  24.651  13.628  0.00  0.00    +0.151 HD
BRANCH   3  15
ATOM     14  C   UNL     1      35.199  18.063   9.951  0.00  0.00    +0.024 C 
ATOM     15  C   UNL     1      35.240  19.294   9.064  0.00  0.00    +0.104 C 
ENDBRANCH   3  15
ENDBRANCH   1   9
BRANCH   1  16
ATOM     16  C   UNL     1      30.583  23.357  13.765  0.00  0.00    -0.024 A 
ATOM     17  C   UNL     1      30.765  24.086  14.946  0.00  0.00    +0.009 A 
ATOM     18  C   UNL     1      30.038  23.778  16.097  0.00  0.00    +0.049 A 
ATOM     19  C   UNL     1      29.140  22.702  16.102  0.00  0.00    +0.156 A 
ATOM     20  C   UNL     1      28.931  22.001  14.917  0.00  0.00    +0.165 A 
ATOM     21  F   UNL     1      28.049  20.991  14.870  0.00  0.00    -0.202 F 
ATOM     22  C   UNL     1      29.648  22.309  13.762  0.00  0.00    +0.047 A 
BRANCH  19  23
ATOM     23  O   UNL     1      28.449  22.279  17.203  0.00  0.00    -0.489 OA
BRANCH  23  24
ATOM     24  C   UNL     1      27.364  23.122  17.594  0.00  0.00    +0.232 C 
BRANCH  24  25
ATOM     25  C   UNL     1      26.195  22.276  17.986  0.00  0.00    +0.027 C 
ATOM     26  C   UNL     1      25.745  21.169  17.066  0.00  0.00    +0.007 C 
ATOM     27  C   UNL     1      24.888  22.393  17.242  0.00  0.00    +0.007 C 
ENDBRANCH  24  25
ENDBRANCH  23  24
ENDBRANCH  19  23
ENDBRANCH   1  16
TORSDOF 6
ENDMDL
MODEL 4
REMARK VINA RESULT:      -6.5      2.456      2.562
REMARK  Name = ZINC000543478179
REMARK  8 active torsions:
REMARK  status: ('A' for Active; 'I' for Inactive)
REMARK    1  A    between atoms: C_1  and  C_2
REMARK    2  A    between atoms: C_2  and  N_3
REMARK    3  A    between atoms: N_9  and  C_10
REMARK    4  A    between atoms: C_10  and  C_11
REMARK    5  A    between atoms: C_10  and  C_12
REMARK    6  A    between atoms: C_15  and  O_16
REMARK    7  A    between atoms: O_16  and  C_17
REMARK    8  A    between atoms: C_17  and  C_18
REMARK                            x       y       z     vdW  Elec       q    Type
REMARK                         _______ _______ _______ _____ _____    ______ ____
ROOT
ATOM      1  C   UNL     1      30.733  23.451  13.177  0.00  0.00    +0.102 C 
ATOM      2  C   UNL     1      29.917  24.574  12.532  0.00  0.00    +0.033 C 
ENDROOT
BRANCH   1   9
ATOM      3  N   UNL     1      34.543  19.589  12.792  0.00  0.00    -0.299 N 
ATOM      4  C   UNL     1      35.274  20.506  13.665  0.00  0.00    +0.127 C 
ATOM      5  C   UNL     1      35.109  21.963  13.224  0.00  0.00    +0.129 C 
ATOM      6  N   UNL     1      33.690  22.326  13.182  0.00  0.00    -0.275 N 
ATOM      7  C   UNL     1      33.288  23.513  13.726  0.00  0.00    +0.303 C 
ATOM      8  O   UNL     1      34.092  24.276  14.272  0.00  0.00    -0.253 OA
ATOM      9  N   UNL     1      32.002  23.925  13.722  0.00  0.00    -0.293 N 
ATOM     10  C   UNL     1      32.835  21.352  12.521  0.00  0.00    +0.205 C 
ATOM     11  C   UNL     1      33.407  19.992  12.120  0.00  0.00    +0.233 C 
ATOM     12  O   UNL     1      32.788  19.267  11.336  0.00  0.00    -0.274 OA
ATOM     13  H   UNL     1      31.951  24.816  14.200  0.00  0.00    +0.151 HD
BRANCH   3  15
ATOM     14  C   UNL     1      34.527  17.364  13.811  0.00  0.00    +0.024 C 
ATOM     15  C   UNL     1      34.998  18.218  12.648  0.00  0.00    +0.104 C 
ENDBRANCH   3  15
ENDBRANCH   1   9
BRANCH   1  16
ATOM     16  C   UNL     1      29.948  22.717  14.249  0.00  0.00    -0.024 A 
ATOM     17  C   UNL     1      29.193  21.575  13.955  0.00  0.00    +0.009 A 
ATOM     18  C   UNL     1      28.461  20.925  14.950  0.00  0.00    +0.049 A 
ATOM     19  C   UNL     1      28.435  21.430  16.257  0.00  0.00    +0.156 A 
ATOM     20  C   UNL     1      29.216  22.544  16.557  0.00  0.00    +0.165 A 
ATOM     21  F   UNL     1      29.250  23.033  17.807  0.00  0.00    -0.202 F 
ATOM     22  C   UNL     1      29.955  23.193  15.571  0.00  0.00    +0.047 A 
BRANCH  19  23
ATOM     23  O   UNL     1      27.684  20.907  17.272  0.00  0.00    -0.489 OA
BRANCH  23  24
ATOM     24  C   UNL     1      26.282  20.833  17.008  0.00  0.00    +0.232 C 
BRANCH  24  25
ATOM     25  C   UNL     1      25.695  22.207  17.055  0.00  0.00    +0.027 C 
ATOM     26  C   UNL     1      25.830  23.022  18.317  0.00  0.00    +0.007 C 
ATOM     27  C   UNL     1      24.484  22.488  17.909  0.00  0.00    +0.007 C 
ENDBRANCH  24  25
ENDBRANCH  23  24
ENDBRANCH  19  23
ENDBRANCH   1  16
TORSDOF 6
ENDMDL
MODEL 5
REMARK VINA RESULT:      -6.4      2.742      8.807
REMARK  Name = ZINC000543478179
REMARK  8 active torsions:
REMARK  status: ('A' for Active; 'I' for Inactive)
REMARK    1  A    between atoms: C_1  and  C_2
REMARK    2  A    between atoms: C_2  and  N_3
REMARK    3  A    between atoms: N_9  and  C_10
REMARK    4  A    between atoms: C_10  and  C_11
REMARK    5  A    between atoms: C_10  and  C_12
REMARK    6  A    between atoms: C_15  and  O_16
REMARK    7  A    between atoms: O_16  and  C_17
REMARK    8  A    between atoms: C_17  and  C_18
REMARK                            x       y       z     vdW  Elec       q    Type
REMARK                         _______ _______ _______ _____ _____    ______ ____
ROOT
ATOM      1  C   UNL     1      32.190  21.911  15.141  0.00  0.00    +0.102 C 
ATOM      2  C   UNL     1      33.343  21.095  15.731  0.00  0.00    +0.033 C 
ENDROOT
BRANCH   1   9
ATOM      3  N   UNL     1      27.133  21.734  17.135  0.00  0.00    -0.299 N 
ATOM      4  C   UNL     1      27.420  23.134  17.440  0.00  0.00    +0.127 C 
ATOM      5  C   UNL     1      28.836  23.316  17.995  0.00  0.00    +0.129 C 
ATOM      6  N   UNL     1      29.826  22.789  17.051  0.00  0.00    -0.275 N 
ATOM      7  C   UNL     1      30.939  23.529  16.770  0.00  0.00    +0.303 C 
ATOM      8  O   UNL     1      31.120  24.641  17.277  0.00  0.00    -0.253 OA
ATOM      9  N   UNL     1      31.901  23.113  15.918  0.00  0.00    -0.293 N 
ATOM     10  C   UNL     1      29.508  21.476  16.511  0.00  0.00    +0.205 C 
ATOM     11  C   UNL     1      28.139  20.855  16.786  0.00  0.00    +0.233 C 
ATOM     12  O   UNL     1      27.948  19.656  16.569  0.00  0.00    -0.274 OA
ATOM     13  H   UNL     1      32.608  23.837  15.856  0.00  0.00    +0.151 HD
BRANCH   3  15
ATOM     14  C   UNL     1      24.801  22.389  17.485  0.00  0.00    +0.024 C 
ATOM     15  C   UNL     1      25.762  21.258  17.168  0.00  0.00    +0.104 C 
ENDBRANCH   3  15
ENDBRANCH   1   9
BRANCH   1  16
ATOM     16  C   UNL     1      32.434  22.276  13.688  0.00  0.00    -0.024 A 
ATOM     17  C   UNL     1      33.320  21.547  12.886  0.00  0.00    +0.009 A 
ATOM     18  C   UNL     1      33.547  21.911  11.558  0.00  0.00    +0.049 A 
ATOM     19  C   UNL     1      32.921  23.040  11.013  0.00  0.00    +0.156 A 
ATOM     20  C   UNL     1      32.011  23.742  11.799  0.00  0.00    +0.165 A 
ATOM     21  F   UNL     1      31.360  24.805  11.302  0.00  0.00    -0.202 F 
ATOM     22  C   UNL     1      31.774  23.380  13.124  0.00  0.00    +0.047 A 
BRANCH  19  23
ATOM     23  O   UNL     1      33.147  23.514   9.751  0.00  0.00    -0.489 OA
BRANCH  23  24
ATOM     24  C   UNL     1      34.432  23.205   9.212  0.00  0.00    +0.232 C 
BRANCH  24  25
ATOM     25  C   UNL     1      34.265  22.491   7.909  0.00  0.00    +0.027 C 
ATOM     26  C   UNL     1      34.728  21.061   7.788  0.00  0.00    +0.007 C 
ATOM     27  C   UNL     1      35.469  22.152   7.066  0.00  0.00    +0.007 C 
ENDBRANCH  24  25
ENDBRANCH  23  24
ENDBRANCH  19  23
ENDBRANCH   1  16
TORSDOF 6
ENDMDL
MODEL 6
REMARK VINA RESULT:      -6.4      5.429      7.520
REMARK  Name = ZINC000543478179
REMARK  8 active torsions:
REMARK  status: ('A' for Active; 'I' for Inactive)
REMARK    1  A    between atoms: C_1  and  C_2
REMARK    2  A    between atoms: C_2  and  N_3
REMARK    3  A    between atoms: N_9  and  C_10
REMARK    4  A    between atoms: C_10  and  C_11
REMARK    5  A    between atoms: C_10  and  C_12
REMARK    6  A    between atoms: C_15  and  O_16
REMARK    7  A    between atoms: O_16  and  C_17
REMARK    8  A    between atoms: C_17  and  C_18
REMARK                            x       y       z     vdW  Elec       q    Type
REMARK                         _______ _______ _______ _____ _____    ______ ____
ROOT
ATOM      1  C   UNL     1      33.350  23.960  17.987  0.00  0.00    +0.102 C 
ATOM      2  C   UNL     1      33.877  25.192  17.246  0.00  0.00    +0.033 C 
ENDROOT
BRANCH   1   9
ATOM      3  N   UNL     1      35.221  19.846  21.013  0.00  0.00    -0.299 N 
ATOM      4  C   UNL     1      34.476  20.543  22.060  0.00  0.00    +0.127 C 
ATOM      5  C   UNL     1      34.676  22.059  21.987  0.00  0.00    +0.129 C 
ATOM      6  N   UNL     1      34.286  22.562  20.666  0.00  0.00    -0.275 N 
ATOM      7  C   UNL     1      33.514  23.686  20.582  0.00  0.00    +0.303 C 
ATOM      8  O   UNL     1      33.120  24.274  21.594  0.00  0.00    -0.253 OA
ATOM      9  N   UNL     1      33.118  24.218  19.406  0.00  0.00    -0.293 N 
ATOM     10  C   UNL     1      34.802  21.789  19.547  0.00  0.00    +0.205 C 
ATOM     11  C   UNL     1      35.504  20.456  19.808  0.00  0.00    +0.233 C 
ATOM     12  O   UNL     1      36.172  19.924  18.918  0.00  0.00    -0.274 OA
ATOM     13  H   UNL     1      32.541  25.027  19.600  0.00  0.00    +0.151 HD
BRANCH   3  15
ATOM     14  C   UNL     1      34.541  17.499  20.870  0.00  0.00    +0.024 C 
ATOM     15  C   UNL     1      35.647  18.475  21.227  0.00  0.00    +0.104 C 
ENDBRANCH   3  15
ENDBRANCH   1   9
BRANCH   1  16
ATOM     16  C   UNL     1      32.092  23.403  17.347  0.00  0.00    -0.024 A 
ATOM     17  C   UNL     1      31.600  22.134  17.675  0.00  0.00    +0.009 A 
ATOM     18  C   UNL     1      30.453  21.630  17.061  0.00  0.00    +0.049 A 
ATOM     19  C   UNL     1      29.793  22.371  16.071  0.00  0.00    +0.156 A 
ATOM     20  C   UNL     1      30.260  23.648  15.772  0.00  0.00    +0.165 A 
ATOM     21  F   UNL     1      29.632  24.406  14.859  0.00  0.00    -0.202 F 
ATOM     22  C   UNL     1      31.400  24.161  16.387  0.00  0.00    +0.047 A 
BRANCH  19  23
ATOM     23  O   UNL     1      28.714  21.922  15.363  0.00  0.00    -0.489 OA
BRANCH  23  24
ATOM     24  C   UNL     1      27.784  21.140  16.112  0.00  0.00    +0.232 C 
BRANCH  24  25
ATOM     25  C   UNL     1      26.607  21.987  16.480  0.00  0.00    +0.027 C 
ATOM     26  C   UNL     1      26.525  22.572  17.868  0.00  0.00    +0.007 C 
ATOM     27  C   UNL     1      25.579  21.477  17.459  0.00  0.00    +0.007 C 
ENDBRANCH  24  25
ENDBRANCH  23  24
ENDBRANCH  19  23
ENDBRANCH   1  16
TORSDOF 6
ENDMDL
MODEL 7
REMARK VINA RESULT:      -6.3      3.114      4.672
REMARK  Name = ZINC000543478179
REMARK  8 active torsions:
REMARK  status: ('A' for Active; 'I' for Inactive)
REMARK    1  A    between atoms: C_1  and  C_2
REMARK    2  A    between atoms: C_2  and  N_3
REMARK    3  A    between atoms: N_9  and  C_10
REMARK    4  A    between atoms: C_10  and  C_11
REMARK    5  A    between atoms: C_10  and  C_12
REMARK    6  A    between atoms: C_15  and  O_16
REMARK    7  A    between atoms: O_16  and  C_17
REMARK    8  A    between atoms: C_17  and  C_18
REMARK                            x       y       z     vdW  Elec       q    Type
REMARK                         _______ _______ _______ _____ _____    ______ ____
ROOT
ATOM      1  C   UNL     1      29.833  22.047  14.340  0.00  0.00    +0.102 C 
ATOM      2  C   UNL     1      28.662  21.070  14.463  0.00  0.00    +0.033 C 
ENDROOT
BRANCH   1   9
ATOM      3  N   UNL     1      34.021  24.169  11.594  0.00  0.00    -0.299 N 
ATOM      4  C   UNL     1      33.135  25.330  11.538  0.00  0.00    +0.127 C 
ATOM      5  C   UNL     1      31.688  24.927  11.237  0.00  0.00    +0.129 C 
ATOM      6  N   UNL     1      31.207  23.969  12.237  0.00  0.00    -0.275 N 
ATOM      7  C   UNL     1      29.968  24.145  12.785  0.00  0.00    +0.303 C 
ATOM      8  O   UNL     1      29.255  25.103  12.474  0.00  0.00    -0.253 OA
ATOM      9  N   UNL     1      29.448  23.305  13.707  0.00  0.00    -0.293 N 
ATOM     10  C   UNL     1      32.131  22.885  12.530  0.00  0.00    +0.205 C 
ATOM     11  C   UNL     1      33.551  22.926  11.965  0.00  0.00    +0.233 C 
ATOM     12  O   UNL     1      34.251  21.911  11.978  0.00  0.00    -0.274 OA
ATOM     13  H   UNL     1      28.536  23.653  13.977  0.00  0.00    +0.151 HD
BRANCH   3  15
ATOM     14  C   UNL     1      36.202  24.814  12.498  0.00  0.00    +0.024 C 
ATOM     15  C   UNL     1      35.430  24.326  11.286  0.00  0.00    +0.104 C 
ENDBRANCH   3  15
ENDBRANCH   1   9
BRANCH   1  16
ATOM     16  C   UNL     1      30.492  22.320  15.680  0.00  0.00    -0.024 A 
ATOM     17  C   UNL     1      31.780  21.855  15.974  0.00  0.00    +0.009 A 
ATOM     18  C   UNL     1      32.362  22.098  17.219  0.00  0.00    +0.049 A 
ATOM     19  C   UNL     1      31.650  22.780  18.215  0.00  0.00    +0.156 A 
ATOM     20  C   UNL     1      30.385  23.275  17.909  0.00  0.00    +0.165 A 
ATOM     21  F   UNL     1      29.687  23.969  18.823  0.00  0.00    -0.202 F 
ATOM     22  C   UNL     1      29.800  23.043  16.666  0.00  0.00    +0.047 A 
BRANCH  19  23
ATOM     23  O   UNL     1      32.109  22.991  19.485  0.00  0.00    -0.489 OA
BRANCH  23  24
ATOM     24  C   UNL     1      33.311  23.757  19.571  0.00  0.00    +0.232 C 
BRANCH  24  25
ATOM     25  C   UNL     1      32.977  25.158  19.975  0.00  0.00    +0.027 C 
ATOM     26  C   UNL     1      32.458  26.121  18.937  0.00  0.00    +0.007 C 
ATOM     27  C   UNL     1      33.835  26.309  19.512  0.00  0.00    +0.007 C 
ENDBRANCH  24  25
ENDBRANCH  23  24
ENDBRANCH  19  23
ENDBRANCH   1  16
TORSDOF 6
ENDMDL
MODEL 8
REMARK VINA RESULT:      -6.2      6.072      7.596
REMARK  Name = ZINC000543478179
REMARK  8 active torsions:
REMARK  status: ('A' for Active; 'I' for Inactive)
REMARK    1  A    between atoms: C_1  and  C_2
REMARK    2  A    between atoms: C_2  and  N_3
REMARK    3  A    between atoms: N_9  and  C_10
REMARK    4  A    between atoms: C_10  and  C_11
REMARK    5  A    between atoms: C_10  and  C_12
REMARK    6  A    between atoms: C_15  and  O_16
REMARK    7  A    between atoms: O_16  and  C_17
REMARK    8  A    between atoms: C_17  and  C_18
REMARK                            x       y       z     vdW  Elec       q    Type
REMARK                         _______ _______ _______ _____ _____    ______ ____
ROOT
ATOM      1  C   UNL     1      34.159  22.846  19.994  0.00  0.00    +0.102 C 
ATOM      2  C   UNL     1      34.682  24.179  20.535  0.00  0.00    +0.033 C 
ENDROOT
BRANCH   1   9
ATOM      3  N   UNL     1      36.120  18.015  18.443  0.00  0.00    -0.299 N 
ATOM      4  C   UNL     1      35.406  17.568  19.638  0.00  0.00    +0.127 C 
ATOM      5  C   UNL     1      35.604  18.531  20.812  0.00  0.00    +0.129 C 
ATOM      6  N   UNL     1      35.175  19.883  20.441  0.00  0.00    -0.275 N 
ATOM      7  C   UNL     1      34.400  20.598  21.309  0.00  0.00    +0.303 C 
ATOM      8  O   UNL     1      34.036  20.124  22.390  0.00  0.00    -0.253 OA
ATOM      9  N   UNL     1      33.969  21.851  21.047  0.00  0.00    -0.293 N 
ATOM     10  C   UNL     1      35.657  20.337  19.146  0.00  0.00    +0.205 C 
ATOM     11  C   UNL     1      36.367  19.354  18.215  0.00  0.00    +0.233 C 
ATOM     12  O   UNL     1      37.008  19.770  17.247  0.00  0.00    -0.274 OA
ATOM     13  H   UNL     1      33.398  22.161  21.824  0.00  0.00    +0.151 HD
BRANCH   3  15
ATOM     14  C   UNL     1      35.426  16.695  16.503  0.00  0.00    +0.024 C 
ATOM     15  C   UNL     1      36.553  17.041  17.459  0.00  0.00    +0.104 C 
ENDBRANCH   3  15
ENDBRANCH   1   9
BRANCH   1  16
ATOM     16  C   UNL     1      32.876  23.015  19.201  0.00  0.00    -0.024 A 
ATOM     17  C   UNL     1      31.948  24.016  19.510  0.00  0.00    +0.009 A 
ATOM     18  C   UNL     1      30.763  24.143  18.783  0.00  0.00    +0.049 A 
ATOM     19  C   UNL     1      30.463  23.242  17.752  0.00  0.00    +0.156 A 
ATOM     20  C   UNL     1      31.404  22.271  17.419  0.00  0.00    +0.165 A 
ATOM     21  F   UNL     1      31.171  21.416  16.411  0.00  0.00    -0.202 F 
ATOM     22  C   UNL     1      32.592  22.143  18.137  0.00  0.00    +0.047 A 
BRANCH  19  23
ATOM     23  O   UNL     1      29.294  23.243  17.043  0.00  0.00    -0.489 OA
BRANCH  23  24
ATOM     24  C   UNL     1      28.246  22.456  17.608  0.00  0.00    +0.232 C 
BRANCH  24  25
ATOM     25  C   UNL     1      27.722  21.511  16.574  0.00  0.00    +0.027 C 
ATOM     26  C   UNL     1      26.490  20.696  16.877  0.00  0.00    +0.007 C 
ATOM     27  C   UNL     1      27.830  20.021  16.781  0.00  0.00    +0.007 C 
ENDBRANCH  24  25
ENDBRANCH  23  24
ENDBRANCH  19  23
ENDBRANCH   1  16
TORSDOF 6
ENDMDL
MODEL 9
REMARK VINA RESULT:      -6.2      3.514      4.972
REMARK  Name = ZINC000543478179
REMARK  8 active torsions:
REMARK  status: ('A' for Active; 'I' for Inactive)
REMARK    1  A    between atoms: C_1  and  C_2
REMARK    2  A    between atoms: C_2  and  N_3
REMARK    3  A    between atoms: N_9  and  C_10
REMARK    4  A    between atoms: C_10  and  C_11
REMARK    5  A    between atoms: C_10  and  C_12
REMARK    6  A    between atoms: C_15  and  O_16
REMARK    7  A    between atoms: O_16  and  C_17
REMARK    8  A    between atoms: C_17  and  C_18
REMARK                            x       y       z     vdW  Elec       q    Type
REMARK                         _______ _______ _______ _____ _____    ______ ____
ROOT
ATOM      1  C   UNL     1      29.907  22.923  15.071  0.00  0.00    +0.102 C 
ATOM      2  C   UNL     1      28.743  21.988  15.409  0.00  0.00    +0.033 C 
ENDROOT
BRANCH   1   9
ATOM      3  N   UNL     1      33.599  23.722  11.158  0.00  0.00    -0.299 N 
ATOM      4  C   UNL     1      32.818  24.940  10.950  0.00  0.00    +0.127 C 
ATOM      5  C   UNL     1      31.313  24.671  11.030  0.00  0.00    +0.129 C 
ATOM      6  N   UNL     1      30.971  24.064  12.319  0.00  0.00    -0.275 N 
ATOM      7  C   UNL     1      29.891  24.533  13.011  0.00  0.00    +0.303 C 
ATOM      8  O   UNL     1      29.209  25.471  12.585  0.00  0.00    -0.253 OA
ATOM      9  N   UNL     1      29.504  24.025  14.202  0.00  0.00    -0.293 N 
ATOM     10  C   UNL     1      31.843  22.973  12.725  0.00  0.00    +0.205 C 
ATOM     11  C   UNL     1      33.114  22.683  11.927  0.00  0.00    +0.233 C 
ATOM     12  O   UNL     1      33.717  21.618  12.088  0.00  0.00    -0.274 OA
ATOM     13  H   UNL     1      28.699  24.547  14.525  0.00  0.00    +0.151 HD
BRANCH   3  15
ATOM     14  C   UNL     1      34.838  23.304   9.089  0.00  0.00    +0.024 C 
ATOM     15  C   UNL     1      34.922  23.608  10.574  0.00  0.00    +0.104 C 
ENDBRANCH   3  15
ENDBRANCH   1   9
BRANCH   1  16
ATOM     16  C   UNL     1      30.584  23.465  16.317  0.00  0.00    -0.024 A 
ATOM     17  C   UNL     1      30.065  23.232  17.596  0.00  0.00    +0.009 A 
ATOM     18  C   UNL     1      30.691  23.756  18.729  0.00  0.00    +0.049 A 
ATOM     19  C   UNL     1      31.831  24.561  18.602  0.00  0.00    +0.156 A 
ATOM     20  C   UNL     1      32.369  24.760  17.333  0.00  0.00    +0.165 A 
ATOM     21  F   UNL     1      33.484  25.491  17.174  0.00  0.00    -0.202 F 
ATOM     22  C   UNL     1      31.754  24.234  16.199  0.00  0.00    +0.047 A 
BRANCH  19  23
ATOM     23  O   UNL     1      32.459  25.179  19.647  0.00  0.00    -0.489 OA
BRANCH  23  24
ATOM     24  C   UNL     1      32.802  24.322  20.736  0.00  0.00    +0.232 C 
BRANCH  24  25
ATOM     25  C   UNL     1      33.996  23.501  20.364  0.00  0.00    +0.027 C 
ATOM     26  C   UNL     1      33.805  22.059  19.969  0.00  0.00    +0.007 C 
ATOM     27  C   UNL     1      34.474  22.397  21.273  0.00  0.00    +0.007 C 
ENDBRANCH  24  25
ENDBRANCH  23  24
ENDBRANCH  19  23
ENDBRANCH   1  16
TORSDOF 6
ENDMDL
