MODEL 1
REMARK VINA RESULT:      -5.9      0.000      0.000
REMARK  Name = ZINC000870248439
REMARK  2 active torsions:
REMARK  status: ('A' for Active; 'I' for Inactive)
REMARK    1  A    between atoms: C_2  and  C_4
REMARK    2  A    between atoms: C_7  and  C_8
REMARK                            x       y       z     vdW  Elec       q    Type
REMARK                         _______ _______ _______ _____ _____    ______ ____
ROOT
ATOM      1  C   UNL     1      33.022  16.753  13.662  0.00  0.00    +0.247 C 
ATOM      2  O   UNL     1      32.439  15.735  14.036  0.00  0.00    -0.270 OA
ATOM      3  N   UNL     1      33.879  16.782  12.553  0.00  0.00    -0.297 N 
ATOM      4  C   UNL     1      34.585  17.958  12.051  0.00  0.00    +0.108 C 
ATOM      5  C   UNL     1      34.537  18.093  10.543  0.00  0.00    +0.026 C 
ATOM      6  C   UNL     1      34.978  16.809   9.819  0.00  0.00    -0.025 C 
ATOM      7  C   UNL     1      34.669  16.998   8.316  0.00  0.00    +0.017 C 
ATOM      8  C   UNL     1      35.098  15.834   7.431  0.00  0.00    +0.069 C 
ATOM      9  S   UNL     1      36.882  15.514   7.520  0.00  0.00    -0.161 S 
ATOM     10  C   UNL     1      37.078  15.397   9.317  0.00  0.00    +0.069 C 
ATOM     11  C   UNL     1      36.503  16.619  10.018  0.00  0.00    +0.017 C 
ATOM     12  C   UNL     1      34.143  15.634  10.401  0.00  0.00    +0.026 C 
ATOM     13  C   UNL     1      34.245  15.521  11.921  0.00  0.00    +0.108 C 
ENDROOT
BRANCH   1  17
ATOM     14  C   UNL     1      32.411  20.551  15.517  0.00  0.00    +0.037 A 
ATOM     15  C   UNL     1      33.415  19.709  15.995  0.00  0.00    +0.014 A 
ATOM     16  C   UNL     1      33.541  18.428  15.473  0.00  0.00    +0.014 A 
ATOM     17  C   UNL     1      32.745  18.016  14.396  0.00  0.00    +0.037 A 
ATOM     18  C   UNL     1      31.696  18.832  13.961  0.00  0.00    +0.014 A 
ATOM     19  C   UNL     1      31.523  20.097  14.533  0.00  0.00    +0.014 A 
BRANCH  14  21
ATOM     20  N   UNL     1      31.027  22.492  15.980  0.00  0.00    -0.325 N 
ATOM     21  C   UNL     1      32.269  21.921  16.062  0.00  0.00    +0.242 C 
ATOM     22  O   UNL     1      33.211  22.501  16.587  0.00  0.00    -0.270 OA
ATOM     23  H   UNL     1      30.928  23.391  16.444  0.00  0.00    +0.145 HD
ATOM     24  H   UNL     1      30.192  21.956  15.813  0.00  0.00    +0.145 HD
ENDBRANCH  14  21
ENDBRANCH   1  17
TORSDOF 2
ENDMDL
MODEL 2
REMARK VINA RESULT:      -5.9      5.830      8.858
REMARK  Name = ZINC000870248439
REMARK  2 active torsions:
REMARK  status: ('A' for Active; 'I' for Inactive)
REMARK    1  A    between atoms: C_2  and  C_4
REMARK    2  A    between atoms: C_7  and  C_8
REMARK                            x       y       z     vdW  Elec       q    Type
REMARK                         _______ _______ _______ _____ _____    ______ ____
ROOT
ATOM      1  C   UNL     1      33.322  23.360   9.752  0.00  0.00    +0.247 C 
ATOM      2  O   UNL     1      32.566  24.295   9.486  0.00  0.00    -0.270 OA
ATOM      3  N   UNL     1      33.378  22.757  11.015  0.00  0.00    -0.297 N 
ATOM      4  C   UNL     1      34.239  21.637  11.388  0.00  0.00    +0.108 C 
ATOM      5  C   UNL     1      33.531  20.578  12.208  0.00  0.00    +0.026 C 
ATOM      6  C   UNL     1      32.795  21.164  13.426  0.00  0.00    -0.025 C 
ATOM      7  C   UNL     1      31.938  20.032  14.037  0.00  0.00    +0.017 C 
ATOM      8  C   UNL     1      31.179  20.424  15.298  0.00  0.00    +0.069 C 
ATOM      9  S   UNL     1      32.282  20.967  16.633  0.00  0.00    -0.161 S 
ATOM     10  C   UNL     1      33.245  22.214  15.739  0.00  0.00    +0.069 C 
ATOM     11  C   UNL     1      33.844  21.643  14.463  0.00  0.00    +0.017 C 
ATOM     12  C   UNL     1      31.886  22.316  12.913  0.00  0.00    +0.026 C 
ATOM     13  C   UNL     1      32.649  23.374  12.117  0.00  0.00    +0.108 C 
ENDROOT
BRANCH   1  17
ATOM     14  C   UNL     1      35.611  22.062   6.389  0.00  0.00    +0.037 A 
ATOM     15  C   UNL     1      34.422  21.404   6.703  0.00  0.00    +0.014 A 
ATOM     16  C   UNL     1      33.736  21.746   7.861  0.00  0.00    +0.014 A 
ATOM     17  C   UNL     1      34.164  22.819   8.653  0.00  0.00    +0.037 A 
ATOM     18  C   UNL     1      35.389  23.434   8.377  0.00  0.00    +0.014 A 
ATOM     19  C   UNL     1      36.119  23.046   7.249  0.00  0.00    +0.014 A 
BRANCH  14  21
ATOM     20  N   UNL     1      36.634  22.736   4.291  0.00  0.00    -0.325 N 
ATOM     21  C   UNL     1      36.351  21.710   5.154  0.00  0.00    +0.242 C 
ATOM     22  O   UNL     1      36.716  20.563   4.932  0.00  0.00    -0.270 OA
ATOM     23  H   UNL     1      37.223  22.491   3.500  0.00  0.00    +0.145 HD
ATOM     24  H   UNL     1      36.595  23.703   4.565  0.00  0.00    +0.145 HD
ENDBRANCH  14  21
ENDBRANCH   1  17
TORSDOF 2
ENDMDL
MODEL 3
REMARK VINA RESULT:      -5.8      3.866      7.843
REMARK  Name = ZINC000870248439
REMARK  2 active torsions:
REMARK  status: ('A' for Active; 'I' for Inactive)
REMARK    1  A    between atoms: C_2  and  C_4
REMARK    2  A    between atoms: C_7  and  C_8
REMARK                            x       y       z     vdW  Elec       q    Type
REMARK                         _______ _______ _______ _____ _____    ______ ____
ROOT
ATOM      1  C   UNL     1      33.827  16.998  11.087  0.00  0.00    +0.247 C 
ATOM      2  O   UNL     1      34.058  17.508   9.990  0.00  0.00    -0.270 OA
ATOM      3  N   UNL     1      33.701  17.744  12.266  0.00  0.00    -0.297 N 
ATOM      4  C   UNL     1      33.414  17.202  13.592  0.00  0.00    +0.108 C 
ATOM      5  C   UNL     1      32.383  18.004  14.362  0.00  0.00    +0.026 C 
ATOM      6  C   UNL     1      32.720  19.504  14.418  0.00  0.00    -0.025 C 
ATOM      7  C   UNL     1      31.496  20.230  15.021  0.00  0.00    +0.017 C 
ATOM      8  C   UNL     1      31.679  21.731  15.205  0.00  0.00    +0.069 C 
ATOM      9  S   UNL     1      33.067  22.133  16.304  0.00  0.00    -0.161 S 
ATOM     10  C   UNL     1      34.371  21.159  15.509  0.00  0.00    +0.069 C 
ATOM     11  C   UNL     1      33.953  19.707  15.337  0.00  0.00    +0.017 C 
ATOM     12  C   UNL     1      32.971  19.982  12.960  0.00  0.00    +0.026 C 
ATOM     13  C   UNL     1      34.038  19.162  12.235  0.00  0.00    +0.108 C 
ENDROOT
BRANCH   1  17
ATOM     14  C   UNL     1      33.287  12.767  10.876  0.00  0.00    +0.037 A 
ATOM     15  C   UNL     1      32.168  13.601  10.873  0.00  0.00    +0.014 A 
ATOM     16  C   UNL     1      32.333  14.968  11.059  0.00  0.00    +0.014 A 
ATOM     17  C   UNL     1      33.615  15.528  11.135  0.00  0.00    +0.037 A 
ATOM     18  C   UNL     1      34.731  14.688  11.205  0.00  0.00    +0.014 A 
ATOM     19  C   UNL     1      34.564  13.305  11.087  0.00  0.00    +0.014 A 
BRANCH  14  21
ATOM     20  N   UNL     1      33.422  10.822   9.429  0.00  0.00    -0.325 N 
ATOM     21  C   UNL     1      33.125  11.309  10.674  0.00  0.00    +0.242 C 
ATOM     22  O   UNL     1      32.772  10.572  11.586  0.00  0.00    -0.270 OA
ATOM     23  H   UNL     1      33.397   9.809   9.338  0.00  0.00    +0.145 HD
ATOM     24  H   UNL     1      33.963  11.339   8.758  0.00  0.00    +0.145 HD
ENDBRANCH  14  21
ENDBRANCH   1  17
TORSDOF 2
ENDMDL
MODEL 4
REMARK VINA RESULT:      -5.8      2.302      2.888
REMARK  Name = ZINC000870248439
REMARK  2 active torsions:
REMARK  status: ('A' for Active; 'I' for Inactive)
REMARK    1  A    between atoms: C_2  and  C_4
REMARK    2  A    between atoms: C_7  and  C_8
REMARK                            x       y       z     vdW  Elec       q    Type
REMARK                         _______ _______ _______ _____ _____    ______ ____
ROOT
ATOM      1  C   UNL     1      33.503  16.399  15.147  0.00  0.00    +0.247 C 
ATOM      2  O   UNL     1      33.245  15.862  16.224  0.00  0.00    -0.270 OA
ATOM      3  N   UNL     1      34.078  15.714  14.068  0.00  0.00    -0.297 N 
ATOM      4  C   UNL     1      34.394  16.289  12.763  0.00  0.00    +0.108 C 
ATOM      5  C   UNL     1      33.998  15.401  11.600  0.00  0.00    +0.026 C 
ATOM      6  C   UNL     1      34.538  13.967  11.739  0.00  0.00    -0.025 C 
ATOM      7  C   UNL     1      33.883  13.117  10.626  0.00  0.00    +0.017 C 
ATOM      8  C   UNL     1      34.352  11.669  10.578  0.00  0.00    +0.069 C 
ATOM      9  S   UNL     1      36.141  11.525  10.304  0.00  0.00    -0.161 S 
ATOM     10  C   UNL     1      36.735  12.620  11.620  0.00  0.00    +0.069 C 
ATOM     11  C   UNL     1      36.076  13.988  11.543  0.00  0.00    +0.017 C 
ATOM     12  C   UNL     1      34.117  13.442  13.141  0.00  0.00    +0.026 C 
ATOM     13  C   UNL     1      34.562  14.355  14.282  0.00  0.00    +0.108 C 
ENDROOT
BRANCH   1  17
ATOM     14  C   UNL     1      32.214  20.465  14.949  0.00  0.00    +0.037 A 
ATOM     15  C   UNL     1      31.619  19.517  14.116  0.00  0.00    +0.014 A 
ATOM     16  C   UNL     1      32.115  18.220  14.093  0.00  0.00    +0.014 A 
ATOM     17  C   UNL     1      33.126  17.827  14.979  0.00  0.00    +0.037 A 
ATOM     18  C   UNL     1      33.767  18.790  15.765  0.00  0.00    +0.014 A 
ATOM     19  C   UNL     1      33.316  20.114  15.740  0.00  0.00    +0.014 A 
BRANCH  14  21
ATOM     20  N   UNL     1      30.894  22.182  16.051  0.00  0.00    -0.325 N 
ATOM     21  C   UNL     1      31.692  21.851  14.987  0.00  0.00    +0.242 C 
ATOM     22  O   UNL     1      31.985  22.669  14.123  0.00  0.00    -0.270 OA
ATOM     23  H   UNL     1      30.626  23.161  16.108  0.00  0.00    +0.145 HD
ATOM     24  H   UNL     1      30.861  21.636  16.895  0.00  0.00    +0.145 HD
ENDBRANCH  14  21
ENDBRANCH   1  17
TORSDOF 2
ENDMDL
MODEL 5
REMARK VINA RESULT:      -5.8      6.051      8.983
REMARK  Name = ZINC000870248439
REMARK  2 active torsions:
REMARK  status: ('A' for Active; 'I' for Inactive)
REMARK    1  A    between atoms: C_2  and  C_4
REMARK    2  A    between atoms: C_7  and  C_8
REMARK                            x       y       z     vdW  Elec       q    Type
REMARK                         _______ _______ _______ _____ _____    ______ ____
ROOT
ATOM      1  C   UNL     1      33.093  22.342  14.208  0.00  0.00    +0.247 C 
ATOM      2  O   UNL     1      32.351  21.384  14.425  0.00  0.00    -0.270 OA
ATOM      3  N   UNL     1      33.864  22.955  15.204  0.00  0.00    -0.297 N 
ATOM      4  C   UNL     1      34.773  24.082  15.009  0.00  0.00    +0.108 C 
ATOM      5  C   UNL     1      36.099  23.920  15.722  0.00  0.00    +0.026 C 
ATOM      6  C   UNL     1      35.932  23.572  17.212  0.00  0.00    -0.025 C 
ATOM      7  C   UNL     1      37.331  23.212  17.762  0.00  0.00    +0.017 C 
ATOM      8  C   UNL     1      37.363  22.894  19.251  0.00  0.00    +0.069 C 
ATOM      9  S   UNL     1      36.787  24.281  20.271  0.00  0.00    -0.161 S 
ATOM     10  C   UNL     1      35.204  24.616  19.456  0.00  0.00    +0.069 C 
ATOM     11  C   UNL     1      35.382  24.814  17.958  0.00  0.00    +0.017 C 
ATOM     12  C   UNL     1      34.982  22.345  17.302  0.00  0.00    +0.026 C 
ATOM     13  C   UNL     1      33.647  22.567  16.593  0.00  0.00    +0.108 C 
ENDROOT
BRANCH   1  17
ATOM     14  C   UNL     1      33.185  23.478  10.092  0.00  0.00    +0.037 A 
ATOM     15  C   UNL     1      34.173  22.629  10.590  0.00  0.00    +0.014 A 
ATOM     16  C   UNL     1      34.215  22.351  11.951  0.00  0.00    +0.014 A 
ATOM     17  C   UNL     1      33.210  22.822  12.806  0.00  0.00    +0.037 A 
ATOM     18  C   UNL     1      32.259  23.725  12.321  0.00  0.00    +0.014 A 
ATOM     19  C   UNL     1      32.255  24.062  10.963  0.00  0.00    +0.014 A 
BRANCH  14  21
ATOM     20  N   UNL     1      34.289  24.198   8.052  0.00  0.00    -0.325 N 
ATOM     21  C   UNL     1      33.126  23.779   8.643  0.00  0.00    +0.242 C 
ATOM     22  O   UNL     1      32.095  23.630   8.000  0.00  0.00    -0.270 OA
ATOM     23  H   UNL     1      34.251  24.306   7.042  0.00  0.00    +0.145 HD
ATOM     24  H   UNL     1      35.191  24.068   8.476  0.00  0.00    +0.145 HD
ENDBRANCH  14  21
ENDBRANCH   1  17
TORSDOF 2
ENDMDL
MODEL 6
REMARK VINA RESULT:      -5.6      5.726      8.068
REMARK  Name = ZINC000870248439
REMARK  2 active torsions:
REMARK  status: ('A' for Active; 'I' for Inactive)
REMARK    1  A    between atoms: C_2  and  C_4
REMARK    2  A    between atoms: C_7  and  C_8
REMARK                            x       y       z     vdW  Elec       q    Type
REMARK                         _______ _______ _______ _____ _____    ______ ____
ROOT
ATOM      1  C   UNL     1      36.490  19.025  17.149  0.00  0.00    +0.247 C 
ATOM      2  O   UNL     1      37.415  19.703  16.704  0.00  0.00    -0.270 OA
ATOM      3  N   UNL     1      36.684  17.915  17.982  0.00  0.00    -0.297 N 
ATOM      4  C   UNL     1      35.630  17.081  18.554  0.00  0.00    +0.108 C 
ATOM      5  C   UNL     1      35.853  16.743  20.014  0.00  0.00    +0.026 C 
ATOM      6  C   UNL     1      37.251  16.159  20.281  0.00  0.00    -0.025 C 
ATOM      7  C   UNL     1      37.432  16.073  21.813  0.00  0.00    +0.017 C 
ATOM      8  C   UNL     1      38.751  15.458  22.262  0.00  0.00    +0.069 C 
ATOM      9  S   UNL     1      38.968  13.761  21.656  0.00  0.00    -0.161 S 
ATOM     10  C   UNL     1      38.654  14.029  19.892  0.00  0.00    +0.069 C 
ATOM     11  C   UNL     1      37.327  14.738  19.666  0.00  0.00    +0.017 C 
ATOM     12  C   UNL     1      38.292  17.137  19.666  0.00  0.00    +0.026 C 
ATOM     13  C   UNL     1      38.043  17.425  18.186  0.00  0.00    +0.108 C 
ENDROOT
BRANCH   1  17
ATOM     14  C   UNL     1      32.646  20.478  15.988  0.00  0.00    +0.037 A 
ATOM     15  C   UNL     1      33.243  20.972  17.148  0.00  0.00    +0.014 A 
ATOM     16  C   UNL     1      34.437  20.419  17.592  0.00  0.00    +0.014 A 
ATOM     17  C   UNL     1      35.103  19.453  16.827  0.00  0.00    +0.037 A 
ATOM     18  C   UNL     1      34.474  18.910  15.702  0.00  0.00    +0.014 A 
ATOM     19  C   UNL     1      33.238  19.417  15.290  0.00  0.00    +0.014 A 
BRANCH  14  21
ATOM     20  N   UNL     1      30.993  22.257  16.053  0.00  0.00    -0.325 N 
ATOM     21  C   UNL     1      31.375  21.063  15.501  0.00  0.00    +0.242 C 
ATOM     22  O   UNL     1      30.714  20.518  14.626  0.00  0.00    -0.270 OA
ATOM     23  H   UNL     1      30.170  22.687  15.638  0.00  0.00    +0.145 HD
ATOM     24  H   UNL     1      31.630  22.851  16.556  0.00  0.00    +0.145 HD
ENDBRANCH  14  21
ENDBRANCH   1  17
TORSDOF 2
ENDMDL
MODEL 7
REMARK VINA RESULT:      -5.6      4.624      5.959
REMARK  Name = ZINC000870248439
REMARK  2 active torsions:
REMARK  status: ('A' for Active; 'I' for Inactive)
REMARK    1  A    between atoms: C_2  and  C_4
REMARK    2  A    between atoms: C_7  and  C_8
REMARK                            x       y       z     vdW  Elec       q    Type
REMARK                         _______ _______ _______ _____ _____    ______ ____
ROOT
ATOM      1  C   UNL     1      32.516  23.371  12.026  0.00  0.00    +0.247 C 
ATOM      2  O   UNL     1      31.715  24.306  12.033  0.00  0.00    -0.270 OA
ATOM      3  N   UNL     1      33.299  23.041  10.912  0.00  0.00    -0.297 N 
ATOM      4  C   UNL     1      34.275  21.956  10.845  0.00  0.00    +0.108 C 
ATOM      5  C   UNL     1      35.573  22.352  10.173  0.00  0.00    +0.026 C 
ATOM      6  C   UNL     1      35.354  23.009   8.799  0.00  0.00    -0.025 C 
ATOM      7  C   UNL     1      36.717  23.566   8.329  0.00  0.00    +0.017 C 
ATOM      8  C   UNL     1      36.697  24.205   6.947  0.00  0.00    +0.069 C 
ATOM      9  S   UNL     1      36.179  23.045   5.651  0.00  0.00    -0.161 S 
ATOM     10  C   UNL     1      34.636  22.442   6.386  0.00  0.00    +0.069 C 
ATOM     11  C   UNL     1      34.859  21.930   7.801  0.00  0.00    +0.017 C 
ATOM     12  C   UNL     1      34.332  24.165   8.991  0.00  0.00    +0.026 C 
ATOM     13  C   UNL     1      33.028  23.711   9.646  0.00  0.00    +0.108 C 
ENDROOT
BRANCH   1  17
ATOM     14  C   UNL     1      33.297  21.001  15.492  0.00  0.00    +0.037 A 
ATOM     15  C   UNL     1      32.289  20.612  14.610  0.00  0.00    +0.014 A 
ATOM     16  C   UNL     1      31.953  21.440  13.546  0.00  0.00    +0.014 A 
ATOM     17  C   UNL     1      32.692  22.602  13.286  0.00  0.00    +0.037 A 
ATOM     18  C   UNL     1      33.656  23.026  14.206  0.00  0.00    +0.014 A 
ATOM     19  C   UNL     1      33.950  22.229  15.317  0.00  0.00    +0.014 A 
BRANCH  14  21
ATOM     20  N   UNL     1      34.001  18.831  16.326  0.00  0.00    -0.325 N 
ATOM     21  C   UNL     1      33.669  20.126  16.628  0.00  0.00    +0.242 C 
ATOM     22  O   UNL     1      33.704  20.548  17.776  0.00  0.00    -0.270 OA
ATOM     23  H   UNL     1      34.344  18.275  17.105  0.00  0.00    +0.145 HD
ATOM     24  H   UNL     1      34.244  18.536  15.396  0.00  0.00    +0.145 HD
ENDBRANCH  14  21
ENDBRANCH   1  17
TORSDOF 2
ENDMDL
MODEL 8
REMARK VINA RESULT:      -5.6      5.417      7.694
REMARK  Name = ZINC000870248439
REMARK  2 active torsions:
REMARK  status: ('A' for Active; 'I' for Inactive)
REMARK    1  A    between atoms: C_2  and  C_4
REMARK    2  A    between atoms: C_7  and  C_8
REMARK                            x       y       z     vdW  Elec       q    Type
REMARK                         _______ _______ _______ _____ _____    ______ ____
ROOT
ATOM      1  C   UNL     1      33.650  22.807  10.841  0.00  0.00    +0.247 C 
ATOM      2  O   UNL     1      32.993  23.746  11.293  0.00  0.00    -0.270 OA
ATOM      3  N   UNL     1      33.972  21.667  11.589  0.00  0.00    -0.297 N 
ATOM      4  C   UNL     1      34.733  20.517  11.107  0.00  0.00    +0.108 C 
ATOM      5  C   UNL     1      34.139  19.185  11.518  0.00  0.00    +0.026 C 
ATOM      6  C   UNL     1      33.867  19.098  13.030  0.00  0.00    -0.025 C 
ATOM      7  C   UNL     1      33.063  17.802  13.282  0.00  0.00    +0.017 C 
ATOM      8  C   UNL     1      32.753  17.524  14.747  0.00  0.00    +0.069 C 
ATOM      9  S   UNL     1      34.254  17.363  15.756  0.00  0.00    -0.161 S 
ATOM     10  C   UNL     1      35.096  18.898  15.290  0.00  0.00    +0.069 C 
ATOM     11  C   UNL     1      35.222  19.025  13.780  0.00  0.00    +0.017 C 
ATOM     12  C   UNL     1      33.026  20.344  13.427  0.00  0.00    +0.026 C 
ATOM     13  C   UNL     1      33.679  21.664  13.018  0.00  0.00    +0.108 C 
ENDROOT
BRANCH   1  17
ATOM     14  C   UNL     1      34.937  22.667   6.772  0.00  0.00    +0.037 A 
ATOM     15  C   UNL     1      35.771  23.236   7.734  0.00  0.00    +0.014 A 
ATOM     16  C   UNL     1      35.310  23.390   9.035  0.00  0.00    +0.014 A 
ATOM     17  C   UNL     1      34.062  22.877   9.414  0.00  0.00    +0.037 A 
ATOM     18  C   UNL     1      33.200  22.368   8.438  0.00  0.00    +0.014 A 
ATOM     19  C   UNL     1      33.636  22.275   7.113  0.00  0.00    +0.014 A 
BRANCH  14  21
ATOM     20  N   UNL     1      35.616  23.635   4.650  0.00  0.00    -0.325 N 
ATOM     21  C   UNL     1      35.419  22.493   5.382  0.00  0.00    +0.242 C 
ATOM     22  O   UNL     1      35.656  21.384   4.921  0.00  0.00    -0.270 OA
ATOM     23  H   UNL     1      36.037  23.499   3.734  0.00  0.00    +0.145 HD
ATOM     24  H   UNL     1      35.695  24.544   5.072  0.00  0.00    +0.145 HD
ENDBRANCH  14  21
ENDBRANCH   1  17
TORSDOF 2
ENDMDL
MODEL 9
REMARK VINA RESULT:      -5.6     14.488     18.171
REMARK  Name = ZINC000870248439
REMARK  2 active torsions:
REMARK  status: ('A' for Active; 'I' for Inactive)
REMARK    1  A    between atoms: C_2  and  C_4
REMARK    2  A    between atoms: C_7  and  C_8
REMARK                            x       y       z     vdW  Elec       q    Type
REMARK                         _______ _______ _______ _____ _____    ______ ____
ROOT
ATOM      1  C   UNL     1      25.861  25.144  26.188  0.00  0.00    +0.247 C 
ATOM      2  O   UNL     1      26.565  25.843  26.917  0.00  0.00    -0.270 OA
ATOM      3  N   UNL     1      24.621  25.563  25.690  0.00  0.00    -0.297 N 
ATOM      4  C   UNL     1      23.748  24.789  24.810  0.00  0.00    +0.108 C 
ATOM      5  C   UNL     1      23.162  25.601  23.674  0.00  0.00    +0.026 C 
ATOM      6  C   UNL     1      22.483  26.895  24.158  0.00  0.00    -0.025 C 
ATOM      7  C   UNL     1      22.135  27.731  22.905  0.00  0.00    +0.017 C 
ATOM      8  C   UNL     1      21.399  29.031  23.197  0.00  0.00    +0.069 C 
ATOM      9  S   UNL     1      19.819  28.760  24.049  0.00  0.00    -0.161 S 
ATOM     10  C   UNL     1      20.391  27.722  25.420  0.00  0.00    +0.069 C 
ATOM     11  C   UNL     1      21.183  26.525  24.917  0.00  0.00    +0.017 C 
ATOM     12  C   UNL     1      23.506  27.654  25.050  0.00  0.00    +0.026 C 
ATOM     13  C   UNL     1      24.047  26.804  26.198  0.00  0.00    +0.108 C 
ENDROOT
BRANCH   1  17
ATOM     14  C   UNL     1      27.152  21.336  24.750  0.00  0.00    +0.037 A 
ATOM     15  C   UNL     1      26.300  21.398  25.853  0.00  0.00    +0.014 A 
ATOM     16  C   UNL     1      25.972  22.634  26.396  0.00  0.00    +0.014 A 
ATOM     17  C   UNL     1      26.395  23.818  25.778  0.00  0.00    +0.037 A 
ATOM     18  C   UNL     1      27.301  23.756  24.715  0.00  0.00    +0.014 A 
ATOM     19  C   UNL     1      27.688  22.511  24.209  0.00  0.00    +0.014 A 
BRANCH  14  21
ATOM     20  N   UNL     1      28.813  19.631  24.268  0.00  0.00    -0.325 N 
ATOM     21  C   UNL     1      27.505  20.024  24.159  0.00  0.00    +0.242 C 
ATOM     22  O   UNL     1      26.662  19.314  23.627  0.00  0.00    -0.270 OA
ATOM     23  H   UNL     1      29.015  18.689  23.943  0.00  0.00    +0.145 HD
ATOM     24  H   UNL     1      29.454  20.048  24.922  0.00  0.00    +0.145 HD
ENDBRANCH  14  21
ENDBRANCH   1  17
TORSDOF 2
ENDMDL
