MODEL 1
REMARK VINA RESULT:      -7.7      0.000      0.000
REMARK  Name = ZINC000329563636
REMARK  3 active torsions:
REMARK  status: ('A' for Active; 'I' for Inactive)
REMARK    1  A    between atoms: C_1  and  C_2
REMARK    2  A    between atoms: C_2  and  N_3
REMARK    3  A    between atoms: N_9  and  C_10
REMARK                            x       y       z     vdW  Elec       q    Type
REMARK                         _______ _______ _______ _____ _____    ______ ____
ROOT
ATOM      1  C   UNL     1      28.087  21.837  18.790  0.00  0.00    +0.112 C 
ATOM      2  C   UNL     1      27.958  21.388  17.332  0.00  0.00    +0.075 C 
ATOM      3  C   UNL     1      29.285  21.283  16.565  0.00  0.00    +0.113 C 
ATOM      4  C   UNL     1      30.042  19.943  16.755  0.00  0.00    +0.048 C 
ATOM      5  C   UNL     1      29.985  19.225  15.411  0.00  0.00    +0.004 C 
ATOM      6  C   UNL     1      29.920  20.348  14.395  0.00  0.00    +0.004 C 
ATOM      7  C   UNL     1      28.976  21.343  15.047  0.00  0.00    +0.048 C 
ATOM      8  O   UNL     1      30.163  22.385  16.863  0.00  0.00    -0.485 OA
ATOM      9  C   UNL     1      30.438  22.507  18.200  0.00  0.00    +0.126 A 
ATOM     10  C   UNL     1      31.716  22.929  18.559  0.00  0.00    +0.046 A 
ATOM     11  C   UNL     1      32.064  23.031  19.907  0.00  0.00    +0.004 A 
ATOM     12  C   UNL     1      31.128  22.732  20.894  0.00  0.00    +0.001 A 
ATOM     13  C   UNL     1      29.840  22.340  20.530  0.00  0.00    +0.009 A 
ATOM     14  C   UNL     1      29.485  22.224  19.175  0.00  0.00    +0.015 A 
ENDROOT
BRANCH   1  21
ATOM     15  N   UNL     1      23.566  25.708  20.835  0.00  0.00    -0.299 N 
ATOM     16  C   UNL     1      23.097  24.379  20.444  0.00  0.00    +0.127 C 
ATOM     17  C   UNL     1      23.661  23.941  19.096  0.00  0.00    +0.129 C 
ATOM     18  N   UNL     1      25.115  24.001  19.149  0.00  0.00    -0.275 N 
ATOM     19  C   UNL     1      25.840  22.851  18.934  0.00  0.00    +0.303 C 
ATOM     20  O   UNL     1      25.308  21.769  18.692  0.00  0.00    -0.253 OA
ATOM     21  N   UNL     1      27.196  22.970  19.040  0.00  0.00    -0.292 N 
ATOM     22  C   UNL     1      25.654  25.320  19.490  0.00  0.00    +0.205 C 
ATOM     23  C   UNL     1      24.769  26.228  20.369  0.00  0.00    +0.233 C 
ATOM     24  O   UNL     1      25.143  27.369  20.648  0.00  0.00    -0.274 OA
ATOM     25  H   UNL     1      27.606  23.875  18.880  0.00  0.00    +0.151 HD
BRANCH  15  27
ATOM     26  C   UNL     1      21.839  25.545  22.593  0.00  0.00    +0.024 C 
ATOM     27  C   UNL     1      22.799  26.445  21.834  0.00  0.00    +0.104 C 
ENDBRANCH  15  27
ENDBRANCH   1  21
TORSDOF 2
ENDMDL
MODEL 2
REMARK VINA RESULT:      -7.2      7.742     13.013
REMARK  Name = ZINC000329563636
REMARK  3 active torsions:
REMARK  status: ('A' for Active; 'I' for Inactive)
REMARK    1  A    between atoms: C_1  and  C_2
REMARK    2  A    between atoms: C_2  and  N_3
REMARK    3  A    between atoms: N_9  and  C_10
REMARK                            x       y       z     vdW  Elec       q    Type
REMARK                         _______ _______ _______ _____ _____    ______ ____
ROOT
ATOM      1  C   UNL     1      31.453  16.499  13.037  0.00  0.00    +0.112 C 
ATOM      2  C   UNL     1      30.827  17.116  14.291  0.00  0.00    +0.075 C 
ATOM      3  C   UNL     1      31.233  18.571  14.570  0.00  0.00    +0.113 C 
ATOM      4  C   UNL     1      30.399  19.636  13.812  0.00  0.00    +0.048 C 
ATOM      5  C   UNL     1      29.580  20.370  14.868  0.00  0.00    +0.004 C 
ATOM      6  C   UNL     1      30.432  20.288  16.118  0.00  0.00    +0.004 C 
ATOM      7  C   UNL     1      30.974  18.870  16.068  0.00  0.00    +0.048 C 
ATOM      8  O   UNL     1      32.636  18.790  14.329  0.00  0.00    -0.485 OA
ATOM      9  C   UNL     1      33.020  18.465  13.055  0.00  0.00    +0.126 A 
ATOM     10  C   UNL     1      34.003  19.251  12.457  0.00  0.00    +0.046 A 
ATOM     11  C   UNL     1      34.404  18.990  11.146  0.00  0.00    +0.004 A 
ATOM     12  C   UNL     1      33.837  17.931  10.441  0.00  0.00    +0.001 A 
ATOM     13  C   UNL     1      32.877  17.127  11.055  0.00  0.00    +0.009 A 
ATOM     14  C   UNL     1      32.460  17.390  12.370  0.00  0.00    +0.015 A 
ENDROOT
BRANCH   1  21
ATOM     15  N   UNL     1      34.512  11.000  12.974  0.00  0.00    -0.299 N 
ATOM     16  C   UNL     1      33.493  11.140  11.934  0.00  0.00    +0.127 C 
ATOM     17  C   UNL     1      32.175  11.673  12.487  0.00  0.00    +0.129 C 
ATOM     18  N   UNL     1      32.423  12.937  13.166  0.00  0.00    -0.275 N 
ATOM     19  C   UNL     1      31.784  14.072  12.722  0.00  0.00    +0.303 C 
ATOM     20  O   UNL     1      31.002  14.063  11.772  0.00  0.00    -0.253 OA
ATOM     21  N   UNL     1      32.094  15.229  13.377  0.00  0.00    -0.292 N 
ATOM     22  C   UNL     1      33.402  12.858  14.253  0.00  0.00    +0.205 C 
ATOM     23  C   UNL     1      34.491  11.771  14.131  0.00  0.00    +0.233 C 
ATOM     24  O   UNL     1      35.313  11.619  15.037  0.00  0.00    -0.274 OA
ATOM     25  H   UNL     1      32.426  15.162  14.324  0.00  0.00    +0.151 HD
BRANCH  15  27
ATOM     26  C   UNL     1      35.293   8.657  12.996  0.00  0.00    +0.024 C 
ATOM     27  C   UNL     1      35.640  10.110  12.719  0.00  0.00    +0.104 C 
ENDBRANCH  15  27
ENDBRANCH   1  21
TORSDOF 2
ENDMDL
MODEL 3
REMARK VINA RESULT:      -7.0      5.141      7.798
REMARK  Name = ZINC000329563636
REMARK  3 active torsions:
REMARK  status: ('A' for Active; 'I' for Inactive)
REMARK    1  A    between atoms: C_1  and  C_2
REMARK    2  A    between atoms: C_2  and  N_3
REMARK    3  A    between atoms: N_9  and  C_10
REMARK                            x       y       z     vdW  Elec       q    Type
REMARK                         _______ _______ _______ _____ _____    ______ ____
ROOT
ATOM      1  C   UNL     1      31.600  22.637  13.089  0.00  0.00    +0.112 C 
ATOM      2  C   UNL     1      31.937  23.904  12.297  0.00  0.00    +0.075 C 
ATOM      3  C   UNL     1      33.005  23.723  11.208  0.00  0.00    +0.113 C 
ATOM      4  C   UNL     1      32.468  23.198   9.851  0.00  0.00    +0.048 C 
ATOM      5  C   UNL     1      32.614  24.346   8.859  0.00  0.00    +0.004 C 
ATOM      6  C   UNL     1      33.808  25.127   9.372  0.00  0.00    +0.004 C 
ATOM      7  C   UNL     1      33.602  25.115  10.876  0.00  0.00    +0.048 C 
ATOM      8  O   UNL     1      34.091  22.891  11.657  0.00  0.00    -0.485 OA
ATOM      9  C   UNL     1      33.682  21.654  12.078  0.00  0.00    +0.126 A 
ATOM     10  C   UNL     1      34.522  20.573  11.817  0.00  0.00    +0.046 A 
ATOM     11  C   UNL     1      34.137  19.284  12.187  0.00  0.00    +0.004 A 
ATOM     12  C   UNL     1      32.922  19.078  12.836  0.00  0.00    +0.001 A 
ATOM     13  C   UNL     1      32.098  20.167  13.124  0.00  0.00    +0.009 A 
ATOM     14  C   UNL     1      32.474  21.466  12.744  0.00  0.00    +0.015 A 
ENDROOT
BRANCH   1  21
ATOM     15  N   UNL     1      31.749  22.274  19.370  0.00  0.00    -0.299 N 
ATOM     16  C   UNL     1      30.587  21.635  18.752  0.00  0.00    +0.127 C 
ATOM     17  C   UNL     1      29.928  22.527  17.705  0.00  0.00    +0.129 C 
ATOM     18  N   UNL     1      30.923  22.904  16.710  0.00  0.00    -0.275 N 
ATOM     19  C   UNL     1      30.719  22.557  15.394  0.00  0.00    +0.303 C 
ATOM     20  O   UNL     1      29.722  21.941  15.020  0.00  0.00    -0.253 OA
ATOM     21  N   UNL     1      31.710  22.905  14.523  0.00  0.00    -0.292 N 
ATOM     22  C   UNL     1      32.095  23.593  17.258  0.00  0.00    +0.205 C 
ATOM     23  C   UNL     1      32.484  23.254  18.712  0.00  0.00    +0.233 C 
ATOM     24  O   UNL     1      33.429  23.837  19.248  0.00  0.00    -0.274 OA
ATOM     25  H   UNL     1      32.301  23.683  14.764  0.00  0.00    +0.151 HD
BRANCH  15  27
ATOM     26  C   UNL     1      31.250  22.132  21.785  0.00  0.00    +0.024 C 
ATOM     27  C   UNL     1      32.207  21.772  20.661  0.00  0.00    +0.104 C 
ENDBRANCH  15  27
ENDBRANCH   1  21
TORSDOF 2
ENDMDL
MODEL 4
REMARK VINA RESULT:      -7.0      5.475     10.031
REMARK  Name = ZINC000329563636
REMARK  3 active torsions:
REMARK  status: ('A' for Active; 'I' for Inactive)
REMARK    1  A    between atoms: C_1  and  C_2
REMARK    2  A    between atoms: C_2  and  N_3
REMARK    3  A    between atoms: N_9  and  C_10
REMARK                            x       y       z     vdW  Elec       q    Type
REMARK                         _______ _______ _______ _____ _____    ______ ____
ROOT
ATOM      1  C   UNL     1      31.673  22.014  15.175  0.00  0.00    +0.112 C 
ATOM      2  C   UNL     1      30.173  22.255  15.367  0.00  0.00    +0.075 C 
ATOM      3  C   UNL     1      29.407  21.092  16.017  0.00  0.00    +0.113 C 
ATOM      4  C   UNL     1      29.450  21.070  17.567  0.00  0.00    +0.048 C 
ATOM      5  C   UNL     1      28.034  21.381  18.039  0.00  0.00    +0.004 C 
ATOM      6  C   UNL     1      27.150  20.848  16.930  0.00  0.00    +0.004 C 
ATOM      7  C   UNL     1      27.904  21.247  15.673  0.00  0.00    +0.048 C 
ATOM      8  O   UNL     1      29.831  19.817  15.499  0.00  0.00    -0.485 OA
ATOM      9  C   UNL     1      31.175  19.596  15.651  0.00  0.00    +0.126 A 
ATOM     10  C   UNL     1      31.587  18.293  15.925  0.00  0.00    +0.046 A 
ATOM     11  C   UNL     1      32.939  18.017  16.129  0.00  0.00    +0.004 A 
ATOM     12  C   UNL     1      33.881  19.039  16.040  0.00  0.00    +0.001 A 
ATOM     13  C   UNL     1      33.468  20.336  15.735  0.00  0.00    +0.009 A 
ATOM     14  C   UNL     1      32.107  20.624  15.539  0.00  0.00    +0.015 A 
ENDROOT
BRANCH   1  21
ATOM     15  N   UNL     1      34.681  22.755   9.697  0.00  0.00    -0.299 N 
ATOM     16  C   UNL     1      35.345  23.374  10.843  0.00  0.00    +0.127 C 
ATOM     17  C   UNL     1      34.379  24.186  11.701  0.00  0.00    +0.129 C 
ATOM     18  N   UNL     1      33.281  23.326  12.119  0.00  0.00    -0.275 N 
ATOM     19  C   UNL     1      33.062  23.127  13.463  0.00  0.00    +0.303 C 
ATOM     20  O   UNL     1      33.756  23.653  14.332  0.00  0.00    -0.253 OA
ATOM     21  N   UNL     1      32.043  22.277  13.784  0.00  0.00    -0.292 N 
ATOM     22  C   UNL     1      32.541  22.709  11.016  0.00  0.00    +0.205 C 
ATOM     23  C   UNL     1      33.323  22.454   9.710  0.00  0.00    +0.233 C 
ATOM     24  O   UNL     1      32.745  21.985   8.728  0.00  0.00    -0.274 OA
ATOM     25  H   UNL     1      31.298  22.158  13.118  0.00  0.00    +0.151 HD
BRANCH  15  27
ATOM     26  C   UNL     1      35.778  23.485   7.608  0.00  0.00    +0.024 C 
ATOM     27  C   UNL     1      35.502  22.339   8.565  0.00  0.00    +0.104 C 
ENDBRANCH  15  27
ENDBRANCH   1  21
TORSDOF 2
ENDMDL
MODEL 5
REMARK VINA RESULT:      -6.9      5.357      9.717
REMARK  Name = ZINC000329563636
REMARK  3 active torsions:
REMARK  status: ('A' for Active; 'I' for Inactive)
REMARK    1  A    between atoms: C_1  and  C_2
REMARK    2  A    between atoms: C_2  and  N_3
REMARK    3  A    between atoms: N_9  and  C_10
REMARK                            x       y       z     vdW  Elec       q    Type
REMARK                         _______ _______ _______ _____ _____    ______ ____
ROOT
ATOM      1  C   UNL     1      32.691  21.971  15.543  0.00  0.00    +0.112 C 
ATOM      2  C   UNL     1      32.296  22.863  16.724  0.00  0.00    +0.075 C 
ATOM      3  C   UNL     1      31.181  22.300  17.618  0.00  0.00    +0.113 C 
ATOM      4  C   UNL     1      31.662  21.315  18.716  0.00  0.00    +0.048 C 
ATOM      5  C   UNL     1      31.450  22.023  20.049  0.00  0.00    +0.004 C 
ATOM      6  C   UNL     1      30.269  22.939  19.797  0.00  0.00    +0.004 C 
ATOM      7  C   UNL     1      30.545  23.475  18.403  0.00  0.00    +0.048 C 
ATOM      8  O   UNL     1      30.131  21.690  16.844  0.00  0.00    -0.485 OA
ATOM      9  C   UNL     1      30.581  20.690  16.022  0.00  0.00    +0.126 A 
ATOM     10  C   UNL     1      29.747  19.590  15.829  0.00  0.00    +0.046 A 
ATOM     11  C   UNL     1      30.172  18.524  15.034  0.00  0.00    +0.004 A 
ATOM     12  C   UNL     1      31.419  18.568  14.417  0.00  0.00    +0.001 A 
ATOM     13  C   UNL     1      32.237  19.685  14.587  0.00  0.00    +0.009 A 
ATOM     14  C   UNL     1      31.822  20.757  15.394  0.00  0.00    +0.015 A 
ENDROOT
BRANCH   1  21
ATOM     15  N   UNL     1      33.188  24.035   9.619  0.00  0.00    -0.299 N 
ATOM     16  C   UNL     1      34.413  23.449  10.163  0.00  0.00    +0.127 C 
ATOM     17  C   UNL     1      34.736  23.980  11.556  0.00  0.00    +0.129 C 
ATOM     18  N   UNL     1      33.596  23.741  12.430  0.00  0.00    -0.275 N 
ATOM     19  C   UNL     1      33.763  22.961  13.551  0.00  0.00    +0.303 C 
ATOM     20  O   UNL     1      34.844  22.457  13.851  0.00  0.00    -0.253 OA
ATOM     21  N   UNL     1      32.644  22.744  14.302  0.00  0.00    -0.292 N 
ATOM     22  C   UNL     1      32.343  24.342  11.967  0.00  0.00    +0.205 C 
ATOM     23  C   UNL     1      32.179  24.521  10.443  0.00  0.00    +0.233 C 
ATOM     24  O   UNL     1      31.169  25.067   9.992  0.00  0.00    -0.274 OA
ATOM     25  H   UNL     1      31.902  23.422  14.253  0.00  0.00    +0.151 HD
BRANCH  15  27
ATOM     26  C   UNL     1      33.608  22.755   7.549  0.00  0.00    +0.024 C 
ATOM     27  C   UNL     1      32.984  23.990   8.175  0.00  0.00    +0.104 C 
ENDBRANCH  15  27
ENDBRANCH   1  21
TORSDOF 2
ENDMDL
MODEL 6
REMARK VINA RESULT:      -6.8      5.237      8.481
REMARK  Name = ZINC000329563636
REMARK  3 active torsions:
REMARK  status: ('A' for Active; 'I' for Inactive)
REMARK    1  A    between atoms: C_1  and  C_2
REMARK    2  A    between atoms: C_2  and  N_3
REMARK    3  A    between atoms: N_9  and  C_10
REMARK                            x       y       z     vdW  Elec       q    Type
REMARK                         _______ _______ _______ _____ _____    ______ ____
ROOT
ATOM      1  C   UNL     1      33.555  21.956  12.756  0.00  0.00    +0.112 C 
ATOM      2  C   UNL     1      34.228  20.710  12.171  0.00  0.00    +0.075 C 
ATOM      3  C   UNL     1      34.433  20.740  10.648  0.00  0.00    +0.113 C 
ATOM      4  C   UNL     1      35.718  21.471  10.180  0.00  0.00    +0.048 C 
ATOM      5  C   UNL     1      36.637  20.398   9.607  0.00  0.00    +0.004 C 
ATOM      6  C   UNL     1      35.687  19.341   9.080  0.00  0.00    +0.004 C 
ATOM      7  C   UNL     1      34.615  19.282  10.154  0.00  0.00    +0.048 C 
ATOM      8  O   UNL     1      33.288  21.281   9.964  0.00  0.00    -0.485 OA
ATOM      9  C   UNL     1      32.956  22.542  10.386  0.00  0.00    +0.126 A 
ATOM     10  C   UNL     1      32.467  23.432   9.432  0.00  0.00    +0.046 A 
ATOM     11  C   UNL     1      32.152  24.742   9.797  0.00  0.00    +0.004 A 
ATOM     12  C   UNL     1      32.306  25.154  11.119  0.00  0.00    +0.001 A 
ATOM     13  C   UNL     1      32.765  24.250  12.076  0.00  0.00    +0.009 A 
ATOM     14  C   UNL     1      33.095  22.933  11.714  0.00  0.00    +0.015 A 
ENDROOT
BRANCH   1  21
ATOM     15  N   UNL     1      29.294  21.187  17.324  0.00  0.00    -0.299 N 
ATOM     16  C   UNL     1      30.684  21.061  17.762  0.00  0.00    +0.127 C 
ATOM     17  C   UNL     1      31.500  20.161  16.839  0.00  0.00    +0.129 C 
ATOM     18  N   UNL     1      31.413  20.674  15.480  0.00  0.00    -0.275 N 
ATOM     19  C   UNL     1      32.567  21.050  14.830  0.00  0.00    +0.303 C 
ATOM     20  O   UNL     1      33.677  20.965  15.353  0.00  0.00    -0.253 OA
ATOM     21  N   UNL     1      32.408  21.561  13.574  0.00  0.00    -0.292 N 
ATOM     22  C   UNL     1      30.047  20.781  14.960  0.00  0.00    +0.205 C 
ATOM     23  C   UNL     1      28.927  21.018  15.994  0.00  0.00    +0.233 C 
ATOM     24  O   UNL     1      27.751  21.066  15.626  0.00  0.00    -0.274 OA
ATOM     25  H   UNL     1      31.589  21.293  13.055  0.00  0.00    +0.151 HD
BRANCH  15  27
ATOM     26  C   UNL     1      28.940  22.230  19.534  0.00  0.00    +0.024 C 
ATOM     27  C   UNL     1      28.300  21.620  18.299  0.00  0.00    +0.104 C 
ENDBRANCH  15  27
ENDBRANCH   1  21
TORSDOF 2
ENDMDL
MODEL 7
REMARK VINA RESULT:      -6.7      6.017      9.804
REMARK  Name = ZINC000329563636
REMARK  3 active torsions:
REMARK  status: ('A' for Active; 'I' for Inactive)
REMARK    1  A    between atoms: C_1  and  C_2
REMARK    2  A    between atoms: C_2  and  N_3
REMARK    3  A    between atoms: N_9  and  C_10
REMARK                            x       y       z     vdW  Elec       q    Type
REMARK                         _______ _______ _______ _____ _____    ______ ____
ROOT
ATOM      1  C   UNL     1      32.541  20.075  14.783  0.00  0.00    +0.112 C 
ATOM      2  C   UNL     1      33.775  19.849  15.662  0.00  0.00    +0.075 C 
ATOM      3  C   UNL     1      33.505  19.865  17.174  0.00  0.00    +0.113 C 
ATOM      4  C   UNL     1      33.022  18.515  17.764  0.00  0.00    +0.048 C 
ATOM      5  C   UNL     1      34.152  18.006  18.651  0.00  0.00    +0.004 C 
ATOM      6  C   UNL     1      34.835  19.268  19.139  0.00  0.00    +0.004 C 
ATOM      7  C   UNL     1      34.843  20.150  17.903  0.00  0.00    +0.048 C 
ATOM      8  O   UNL     1      32.589  20.913  17.543  0.00  0.00    -0.485 OA
ATOM      9  C   UNL     1      31.389  20.834  16.885  0.00  0.00    +0.126 A 
ATOM     10  C   UNL     1      30.244  21.202  17.588  0.00  0.00    +0.046 A 
ATOM     11  C   UNL     1      28.991  21.103  16.981  0.00  0.00    +0.004 A 
ATOM     12  C   UNL     1      28.886  20.656  15.666  0.00  0.00    +0.001 A 
ATOM     13  C   UNL     1      30.039  20.319  14.956  0.00  0.00    +0.009 A 
ATOM     14  C   UNL     1      31.302  20.405  15.564  0.00  0.00    +0.015 A 
ENDROOT
BRANCH   1  21
ATOM     15  N   UNL     1      33.117  23.687   9.661  0.00  0.00    -0.299 N 
ATOM     16  C   UNL     1      33.633  22.327   9.507  0.00  0.00    +0.127 C 
ATOM     17  C   UNL     1      34.517  21.909  10.678  0.00  0.00    +0.129 C 
ATOM     18  N   UNL     1      33.763  22.058  11.916  0.00  0.00    -0.275 N 
ATOM     19  C   UNL     1      33.551  20.952  12.707  0.00  0.00    +0.303 C 
ATOM     20  O   UNL     1      33.980  19.837  12.414  0.00  0.00    -0.253 OA
ATOM     21  N   UNL     1      32.803  21.155  13.830  0.00  0.00    -0.292 N 
ATOM     22  C   UNL     1      33.256  23.411  12.156  0.00  0.00    +0.205 C 
ATOM     23  C   UNL     1      32.957  24.273  10.912  0.00  0.00    +0.233 C 
ATOM     24  O   UNL     1      32.577  25.438  11.047  0.00  0.00    -0.274 OA
ATOM     25  H   UNL     1      32.779  22.081  14.223  0.00  0.00    +0.151 HD
BRANCH  15  27
ATOM     26  C   UNL     1      33.090  23.695   7.192  0.00  0.00    +0.024 C 
ATOM     27  C   UNL     1      32.649  24.387   8.470  0.00  0.00    +0.104 C 
ENDBRANCH  15  27
ENDBRANCH   1  21
TORSDOF 2
ENDMDL
MODEL 8
REMARK VINA RESULT:      -6.6      4.773      7.739
REMARK  Name = ZINC000329563636
REMARK  3 active torsions:
REMARK  status: ('A' for Active; 'I' for Inactive)
REMARK    1  A    between atoms: C_1  and  C_2
REMARK    2  A    between atoms: C_2  and  N_3
REMARK    3  A    between atoms: N_9  and  C_10
REMARK                            x       y       z     vdW  Elec       q    Type
REMARK                         _______ _______ _______ _____ _____    ______ ____
ROOT
ATOM      1  C   UNL     1      22.990  26.620  21.196  0.00  0.00    +0.112 C 
ATOM      2  C   UNL     1      23.741  27.953  21.263  0.00  0.00    +0.075 C 
ATOM      3  C   UNL     1      24.989  28.040  20.372  0.00  0.00    +0.113 C 
ATOM      4  C   UNL     1      24.711  28.442  18.900  0.00  0.00    +0.048 C 
ATOM      5  C   UNL     1      25.307  29.833  18.716  0.00  0.00    +0.004 C 
ATOM      6  C   UNL     1      26.464  29.871  19.694  0.00  0.00    +0.004 C 
ATOM      7  C   UNL     1      25.899  29.170  20.917  0.00  0.00    +0.048 C 
ATOM      8  O   UNL     1      25.757  26.823  20.407  0.00  0.00    -0.485 OA
ATOM      9  C   UNL     1      25.033  25.719  20.040  0.00  0.00    +0.126 A 
ATOM     10  C   UNL     1      25.693  24.724  19.323  0.00  0.00    +0.046 A 
ATOM     11  C   UNL     1      24.995  23.596  18.888  0.00  0.00    +0.004 A 
ATOM     12  C   UNL     1      23.641  23.456  19.187  0.00  0.00    +0.001 A 
ATOM     13  C   UNL     1      22.992  24.440  19.932  0.00  0.00    +0.009 A 
ATOM     14  C   UNL     1      23.686  25.583  20.364  0.00  0.00    +0.015 A 
ENDROOT
BRANCH   1  21
ATOM     15  N   UNL     1      21.588  23.123  26.237  0.00  0.00    -0.299 N 
ATOM     16  C   UNL     1      20.526  23.199  25.235  0.00  0.00    +0.127 C 
ATOM     17  C   UNL     1      20.273  24.629  24.769  0.00  0.00    +0.129 C 
ATOM     18  N   UNL     1      21.520  25.190  24.268  0.00  0.00    -0.275 N 
ATOM     19  C   UNL     1      21.585  25.616  22.961  0.00  0.00    +0.303 C 
ATOM     20  O   UNL     1      20.626  25.547  22.194  0.00  0.00    -0.253 OA
ATOM     21  N   UNL     1      22.795  26.093  22.547  0.00  0.00    -0.292 N 
ATOM     22  C   UNL     1      22.617  25.189  25.239  0.00  0.00    +0.205 C 
ATOM     23  C   UNL     1      22.595  24.079  26.311  0.00  0.00    +0.233 C 
ATOM     24  O   UNL     1      23.462  24.054  27.188  0.00  0.00    -0.274 OA
ATOM     25  H   UNL     1      23.420  26.466  23.241  0.00  0.00    +0.151 HD
BRANCH  15  27
ATOM     26  C   UNL     1      22.363  20.785  26.420  0.00  0.00    +0.024 C 
ATOM     27  C   UNL     1      21.648  21.944  27.093  0.00  0.00    +0.104 C 
ENDBRANCH  15  27
ENDBRANCH   1  21
TORSDOF 2
ENDMDL
MODEL 9
REMARK VINA RESULT:      -6.5      4.617      8.036
REMARK  Name = ZINC000329563636
REMARK  3 active torsions:
REMARK  status: ('A' for Active; 'I' for Inactive)
REMARK    1  A    between atoms: C_1  and  C_2
REMARK    2  A    between atoms: C_2  and  N_3
REMARK    3  A    between atoms: N_9  and  C_10
REMARK                            x       y       z     vdW  Elec       q    Type
REMARK                         _______ _______ _______ _____ _____    ______ ____
ROOT
ATOM      1  C   UNL     1      24.707  27.525  19.492  0.00  0.00    +0.112 C 
ATOM      2  C   UNL     1      25.530  26.303  19.072  0.00  0.00    +0.075 C 
ATOM      3  C   UNL     1      25.269  25.031  19.894  0.00  0.00    +0.113 C 
ATOM      4  C   UNL     1      24.055  24.190  19.423  0.00  0.00    +0.048 C 
ATOM      5  C   UNL     1      24.626  22.895  18.854  0.00  0.00    +0.004 C 
ATOM      6  C   UNL     1      25.908  22.684  19.634  0.00  0.00    +0.004 C 
ATOM      7  C   UNL     1      26.486  24.086  19.726  0.00  0.00    +0.048 C 
ATOM      8  O   UNL     1      25.146  25.320  21.299  0.00  0.00    -0.485 OA
ATOM      9  C   UNL     1      24.161  26.230  21.577  0.00  0.00    +0.126 A 
ATOM     10  C   UNL     1      23.436  26.057  22.755  0.00  0.00    +0.046 A 
ATOM     11  C   UNL     1      22.395  26.932  23.068  0.00  0.00    +0.004 A 
ATOM     12  C   UNL     1      22.091  27.990  22.214  0.00  0.00    +0.001 A 
ATOM     13  C   UNL     1      22.840  28.178  21.052  0.00  0.00    +0.009 A 
ATOM     14  C   UNL     1      23.883  27.295  20.725  0.00  0.00    +0.015 A 
ENDROOT
BRANCH   1  21
ATOM     15  N   UNL     1      27.294  33.241  19.987  0.00  0.00    -0.299 N 
ATOM     16  C   UNL     1      26.597  32.996  18.725  0.00  0.00    +0.127 C 
ATOM     17  C   UNL     1      26.976  31.654  18.107  0.00  0.00    +0.129 C 
ATOM     18  N   UNL     1      26.715  30.598  19.075  0.00  0.00    -0.275 N 
ATOM     19  C   UNL     1      25.824  29.599  18.752  0.00  0.00    +0.303 C 
ATOM     20  O   UNL     1      25.239  29.559  17.671  0.00  0.00    -0.253 OA
ATOM     21  N   UNL     1      25.595  28.665  19.720  0.00  0.00    -0.292 N 
ATOM     22  C   UNL     1      27.421  30.756  20.349  0.00  0.00    +0.205 C 
ATOM     23  C   UNL     1      27.751  32.198  20.786  0.00  0.00    +0.233 C 
ATOM     24  O   UNL     1      28.389  32.396  21.823  0.00  0.00    -0.274 OA
ATOM     25  H   UNL     1      26.313  28.512  20.409  0.00  0.00    +0.151 HD
BRANCH  15  27
ATOM     26  C   UNL     1      28.026  35.532  19.431  0.00  0.00    +0.024 C 
ATOM     27  C   UNL     1      27.396  34.615  20.465  0.00  0.00    +0.104 C 
ENDBRANCH  15  27
ENDBRANCH   1  21
TORSDOF 2
ENDMDL
