MODEL 1
REMARK VINA RESULT:      -5.9      0.000      0.000
REMARK  Name = ZINC000543478179
REMARK  8 active torsions:
REMARK  status: ('A' for Active; 'I' for Inactive)
REMARK    1  A    between atoms: C_1  and  C_2
REMARK    2  A    between atoms: C_2  and  N_3
REMARK    3  A    between atoms: N_9  and  C_10
REMARK    4  A    between atoms: C_10  and  C_11
REMARK    5  A    between atoms: C_10  and  C_12
REMARK    6  A    between atoms: C_15  and  O_16
REMARK    7  A    between atoms: O_16  and  C_17
REMARK    8  A    between atoms: C_17  and  C_18
REMARK                            x       y       z     vdW  Elec       q    Type
REMARK                         _______ _______ _______ _____ _____    ______ ____
ROOT
ATOM      1  C   UNL     1      31.846  21.338  14.659  0.00  0.00    +0.102 C 
ATOM      2  C   UNL     1      30.319  21.443  14.775  0.00  0.00    +0.033 C 
ENDROOT
BRANCH   1   9
ATOM      3  N   UNL     1      33.688  21.739   8.551  0.00  0.00    -0.299 N 
ATOM      4  C   UNL     1      33.509  20.367   9.029  0.00  0.00    +0.127 C 
ATOM      5  C   UNL     1      34.133  20.158  10.412  0.00  0.00    +0.129 C 
ATOM      6  N   UNL     1      33.531  21.092  11.359  0.00  0.00    -0.275 N 
ATOM      7  C   UNL     1      32.993  20.624  12.550  0.00  0.00    +0.303 C 
ATOM      8  O   UNL     1      33.031  19.448  12.884  0.00  0.00    -0.253 OA
ATOM      9  N   UNL     1      32.378  21.584  13.316  0.00  0.00    -0.293 N 
ATOM     10  C   UNL     1      33.535  22.491  10.928  0.00  0.00    +0.205 C 
ATOM     11  C   UNL     1      33.841  22.792   9.449  0.00  0.00    +0.233 C 
ATOM     12  O   UNL     1      34.069  23.946   9.083  0.00  0.00    -0.274 OA
ATOM     13  H   UNL     1      32.755  22.509  13.202  0.00  0.00    +0.151 HD
BRANCH   3  15
ATOM     14  C   UNL     1      34.492  21.696   6.215  0.00  0.00    +0.024 C 
ATOM     15  C   UNL     1      33.354  22.052   7.163  0.00  0.00    +0.104 C 
ENDBRANCH   3  15
ENDBRANCH   1   9
BRANCH   1  16
ATOM     16  C   UNL     1      32.502  22.337  15.606  0.00  0.00    -0.024 A 
ATOM     17  C   UNL     1      31.954  22.547  16.885  0.00  0.00    +0.009 A 
ATOM     18  C   UNL     1      32.475  23.512  17.743  0.00  0.00    +0.049 A 
ATOM     19  C   UNL     1      33.529  24.324  17.325  0.00  0.00    +0.156 A 
ATOM     20  C   UNL     1      34.121  24.079  16.083  0.00  0.00    +0.165 A 
ATOM     21  F   UNL     1      35.166  24.813  15.674  0.00  0.00    -0.202 F 
ATOM     22  C   UNL     1      33.615  23.098  15.224  0.00  0.00    +0.047 A 
BRANCH  19  23
ATOM     23  O   UNL     1      34.010  25.376  18.059  0.00  0.00    -0.489 OA
BRANCH  23  24
ATOM     24  C   UNL     1      33.756  25.283  19.464  0.00  0.00    +0.232 C 
BRANCH  24  25
ATOM     25  C   UNL     1      32.955  26.469  19.892  0.00  0.00    +0.027 C 
ATOM     26  C   UNL     1      32.629  26.679  21.348  0.00  0.00    +0.007 C 
ATOM     27  C   UNL     1      31.537  26.306  20.382  0.00  0.00    +0.007 C 
ENDBRANCH  24  25
ENDBRANCH  23  24
ENDBRANCH  19  23
ENDBRANCH   1  16
TORSDOF 6
ENDMDL
MODEL 2
REMARK VINA RESULT:      -5.8      1.863      2.320
REMARK  Name = ZINC000543478179
REMARK  8 active torsions:
REMARK  status: ('A' for Active; 'I' for Inactive)
REMARK    1  A    between atoms: C_1  and  C_2
REMARK    2  A    between atoms: C_2  and  N_3
REMARK    3  A    between atoms: N_9  and  C_10
REMARK    4  A    between atoms: C_10  and  C_11
REMARK    5  A    between atoms: C_10  and  C_12
REMARK    6  A    between atoms: C_15  and  O_16
REMARK    7  A    between atoms: O_16  and  C_17
REMARK    8  A    between atoms: C_17  and  C_18
REMARK                            x       y       z     vdW  Elec       q    Type
REMARK                         _______ _______ _______ _____ _____    ______ ____
ROOT
ATOM      1  C   UNL     1      32.067  20.620  13.391  0.00  0.00    +0.102 C 
ATOM      2  C   UNL     1      30.623  20.125  13.223  0.00  0.00    +0.033 C 
ENDROOT
BRANCH   1   9
ATOM      3  N   UNL     1      34.289  22.850   7.827  0.00  0.00    -0.299 N 
ATOM      4  C   UNL     1      34.516  21.418   8.027  0.00  0.00    +0.127 C 
ATOM      5  C   UNL     1      35.031  21.111   9.437  0.00  0.00    +0.129 C 
ATOM      6  N   UNL     1      34.066  21.599  10.418  0.00  0.00    -0.275 N 
ATOM      7  C   UNL     1      33.591  20.749  11.406  0.00  0.00    +0.303 C 
ATOM      8  O   UNL     1      33.973  19.594  11.536  0.00  0.00    -0.253 OA
ATOM      9  N   UNL     1      32.624  21.295  12.215  0.00  0.00    -0.293 N 
ATOM     10  C   UNL     1      33.661  22.995  10.240  0.00  0.00    +0.205 C 
ATOM     11  C   UNL     1      34.001  23.683   8.905  0.00  0.00    +0.233 C 
ATOM     12  O   UNL     1      33.879  24.903   8.785  0.00  0.00    -0.274 OA
ATOM     13  H   UNL     1      32.691  22.292  12.324  0.00  0.00    +0.151 HD
BRANCH   3  15
ATOM     14  C   UNL     1      35.281  23.412   5.635  0.00  0.00    +0.024 C 
ATOM     15  C   UNL     1      34.014  23.340   6.477  0.00  0.00    +0.104 C 
ENDBRANCH   3  15
ENDBRANCH   1   9
BRANCH   1  16
ATOM     16  C   UNL     1      32.144  21.593  14.561  0.00  0.00    -0.024 A 
ATOM     17  C   UNL     1      33.276  22.416  14.709  0.00  0.00    +0.009 A 
ATOM     18  C   UNL     1      33.419  23.255  15.811  0.00  0.00    +0.049 A 
ATOM     19  C   UNL     1      32.454  23.257  16.818  0.00  0.00    +0.156 A 
ATOM     20  C   UNL     1      31.297  22.493  16.648  0.00  0.00    +0.165 A 
ATOM     21  F   UNL     1      30.330  22.512  17.577  0.00  0.00    -0.202 F 
ATOM     22  C   UNL     1      31.137  21.663  15.534  0.00  0.00    +0.047 A 
BRANCH  19  23
ATOM     23  O   UNL     1      32.586  23.956  17.989  0.00  0.00    -0.489 OA
BRANCH  23  24
ATOM     24  C   UNL     1      33.909  24.434  18.248  0.00  0.00    +0.232 C 
BRANCH  24  25
ATOM     25  C   UNL     1      33.867  25.919  18.405  0.00  0.00    +0.027 C 
ATOM     26  C   UNL     1      34.787  26.795  17.596  0.00  0.00    +0.007 C 
ATOM     27  C   UNL     1      34.999  26.656  19.079  0.00  0.00    +0.007 C 
ENDBRANCH  24  25
ENDBRANCH  23  24
ENDBRANCH  19  23
ENDBRANCH   1  16
TORSDOF 6
ENDMDL
MODEL 3
REMARK VINA RESULT:      -5.8      4.090      9.509
REMARK  Name = ZINC000543478179
REMARK  8 active torsions:
REMARK  status: ('A' for Active; 'I' for Inactive)
REMARK    1  A    between atoms: C_1  and  C_2
REMARK    2  A    between atoms: C_2  and  N_3
REMARK    3  A    between atoms: N_9  and  C_10
REMARK    4  A    between atoms: C_10  and  C_11
REMARK    5  A    between atoms: C_10  and  C_12
REMARK    6  A    between atoms: C_15  and  O_16
REMARK    7  A    between atoms: O_16  and  C_17
REMARK    8  A    between atoms: C_17  and  C_18
REMARK                            x       y       z     vdW  Elec       q    Type
REMARK                         _______ _______ _______ _____ _____    ______ ____
ROOT
ATOM      1  C   UNL     1      35.200  23.825  16.079  0.00  0.00    +0.102 C 
ATOM      2  C   UNL     1      35.658  24.841  15.023  0.00  0.00    +0.033 C 
ENDROOT
BRANCH   1   9
ATOM      3  N   UNL     1      33.957  26.726  21.638  0.00  0.00    -0.299 N 
ATOM      4  C   UNL     1      35.310  26.177  21.544  0.00  0.00    +0.127 C 
ATOM      5  C   UNL     1      35.313  24.763  20.954  0.00  0.00    +0.129 C 
ATOM      6  N   UNL     1      34.700  24.792  19.630  0.00  0.00    -0.275 N 
ATOM      7  C   UNL     1      35.370  24.250  18.542  0.00  0.00    +0.303 C 
ATOM      8  O   UNL     1      36.457  23.696  18.635  0.00  0.00    -0.253 OA
ATOM      9  N   UNL     1      34.733  24.415  17.336  0.00  0.00    -0.293 N 
ATOM     10  C   UNL     1      33.388  25.439  19.574  0.00  0.00    +0.205 C 
ATOM     11  C   UNL     1      32.950  26.292  20.779  0.00  0.00    +0.233 C 
ATOM     12  O   UNL     1      31.784  26.676  20.879  0.00  0.00    -0.274 OA
ATOM     13  H   UNL     1      33.731  24.468  17.402  0.00  0.00    +0.151 HD
BRANCH   3  15
ATOM     14  C   UNL     1      34.921  28.275  23.303  0.00  0.00    +0.024 C 
ATOM     15  C   UNL     1      33.749  27.968  22.380  0.00  0.00    +0.104 C 
ENDBRANCH   3  15
ENDBRANCH   1   9
BRANCH   1  16
ATOM     16  C   UNL     1      34.064  22.978  15.517  0.00  0.00    -0.024 A 
ATOM     17  C   UNL     1      34.106  22.560  14.173  0.00  0.00    +0.009 A 
ATOM     18  C   UNL     1      33.048  21.859  13.603  0.00  0.00    +0.049 A 
ATOM     19  C   UNL     1      31.899  21.596  14.349  0.00  0.00    +0.156 A 
ATOM     20  C   UNL     1      31.875  21.949  15.702  0.00  0.00    +0.165 A 
ATOM     21  F   UNL     1      30.803  21.667  16.457  0.00  0.00    -0.202 F 
ATOM     22  C   UNL     1      32.944  22.637  16.287  0.00  0.00    +0.047 A 
BRANCH  19  23
ATOM     23  O   UNL     1      30.769  21.026  13.824  0.00  0.00    -0.489 OA
BRANCH  23  24
ATOM     24  C   UNL     1      30.982  19.754  13.204  0.00  0.00    +0.232 C 
BRANCH  24  25
ATOM     25  C   UNL     1      31.159  18.720  14.268  0.00  0.00    +0.027 C 
ATOM     26  C   UNL     1      32.513  18.107  14.513  0.00  0.00    +0.007 C 
ATOM     27  C   UNL     1      31.415  17.277  13.906  0.00  0.00    +0.007 C 
ENDBRANCH  24  25
ENDBRANCH  23  24
ENDBRANCH  19  23
ENDBRANCH   1  16
TORSDOF 6
ENDMDL
MODEL 4
REMARK VINA RESULT:      -5.7      4.752      9.577
REMARK  Name = ZINC000543478179
REMARK  8 active torsions:
REMARK  status: ('A' for Active; 'I' for Inactive)
REMARK    1  A    between atoms: C_1  and  C_2
REMARK    2  A    between atoms: C_2  and  N_3
REMARK    3  A    between atoms: N_9  and  C_10
REMARK    4  A    between atoms: C_10  and  C_11
REMARK    5  A    between atoms: C_10  and  C_12
REMARK    6  A    between atoms: C_15  and  O_16
REMARK    7  A    between atoms: O_16  and  C_17
REMARK    8  A    between atoms: C_17  and  C_18
REMARK                            x       y       z     vdW  Elec       q    Type
REMARK                         _______ _______ _______ _____ _____    ______ ____
ROOT
ATOM      1  C   UNL     1      33.953  24.113  17.840  0.00  0.00    +0.102 C 
ATOM      2  C   UNL     1      33.129  25.188  18.562  0.00  0.00    +0.033 C 
ENDROOT
BRANCH   1   9
ATOM      3  N   UNL     1      37.193  20.705  22.170  0.00  0.00    -0.299 N 
ATOM      4  C   UNL     1      37.793  22.005  21.867  0.00  0.00    +0.127 C 
ATOM      5  C   UNL     1      37.821  22.284  20.361  0.00  0.00    +0.129 C 
ATOM      6  N   UNL     1      36.459  22.236  19.837  0.00  0.00    -0.275 N 
ATOM      7  C   UNL     1      35.965  23.295  19.088  0.00  0.00    +0.303 C 
ATOM      8  O   UNL     1      36.634  24.277  18.796  0.00  0.00    -0.253 OA
ATOM      9  N   UNL     1      34.646  23.173  18.726  0.00  0.00    -0.293 N 
ATOM     10  C   UNL     1      35.708  21.029  20.188  0.00  0.00    +0.205 C 
ATOM     11  C   UNL     1      36.268  20.128  21.305  0.00  0.00    +0.233 C 
ATOM     12  O   UNL     1      35.800  19.003  21.489  0.00  0.00    -0.274 OA
ATOM     13  H   UNL     1      34.331  22.224  18.621  0.00  0.00    +0.151 HD
BRANCH   3  15
ATOM     14  C   UNL     1      37.294  21.304  24.565  0.00  0.00    +0.024 C 
ATOM     15  C   UNL     1      37.290  20.184  23.532  0.00  0.00    +0.104 C 
ENDBRANCH   3  15
ENDBRANCH   1   9
BRANCH   1  16
ATOM     16  C   UNL     1      33.046  23.300  16.924  0.00  0.00    -0.024 A 
ATOM     17  C   UNL     1      33.428  23.073  15.588  0.00  0.00    +0.009 A 
ATOM     18  C   UNL     1      32.587  22.409  14.701  0.00  0.00    +0.049 A 
ATOM     19  C   UNL     1      31.320  21.996  15.113  0.00  0.00    +0.156 A 
ATOM     20  C   UNL     1      30.958  22.159  16.453  0.00  0.00    +0.165 A 
ATOM     21  F   UNL     1      29.765  21.729  16.890  0.00  0.00    -0.202 F 
ATOM     22  C   UNL     1      31.807  22.808  17.356  0.00  0.00    +0.047 A 
BRANCH  19  23
ATOM     23  O   UNL     1      30.389  21.453  14.267  0.00  0.00    -0.489 OA
BRANCH  23  24
ATOM     24  C   UNL     1      30.860  20.335  13.508  0.00  0.00    +0.232 C 
BRANCH  24  25
ATOM     25  C   UNL     1      31.046  19.170  14.424  0.00  0.00    +0.027 C 
ATOM     26  C   UNL     1      32.425  18.620  14.681  0.00  0.00    +0.007 C 
ATOM     27  C   UNL     1      31.436  17.816  13.881  0.00  0.00    +0.007 C 
ENDBRANCH  24  25
ENDBRANCH  23  24
ENDBRANCH  19  23
ENDBRANCH   1  16
TORSDOF 6
ENDMDL
MODEL 5
REMARK VINA RESULT:      -5.6      4.617      9.550
REMARK  Name = ZINC000543478179
REMARK  8 active torsions:
REMARK  status: ('A' for Active; 'I' for Inactive)
REMARK    1  A    between atoms: C_1  and  C_2
REMARK    2  A    between atoms: C_2  and  N_3
REMARK    3  A    between atoms: N_9  and  C_10
REMARK    4  A    between atoms: C_10  and  C_11
REMARK    5  A    between atoms: C_10  and  C_12
REMARK    6  A    between atoms: C_15  and  O_16
REMARK    7  A    between atoms: O_16  and  C_17
REMARK    8  A    between atoms: C_17  and  C_18
REMARK                            x       y       z     vdW  Elec       q    Type
REMARK                         _______ _______ _______ _____ _____    ______ ____
ROOT
ATOM      1  C   UNL     1      31.635  20.899  14.969  0.00  0.00    +0.102 C 
ATOM      2  C   UNL     1      30.182  20.904  15.463  0.00  0.00    +0.033 C 
ENDROOT
BRANCH   1   9
ATOM      3  N   UNL     1      35.135  23.999  19.328  0.00  0.00    -0.299 N 
ATOM      4  C   UNL     1      33.967  24.748  18.862  0.00  0.00    +0.127 C 
ATOM      5  C   UNL     1      33.815  24.679  17.339  0.00  0.00    +0.129 C 
ATOM      6  N   UNL     1      33.701  23.283  16.929  0.00  0.00    -0.275 N 
ATOM      7  C   UNL     1      32.643  22.878  16.127  0.00  0.00    +0.303 C 
ATOM      8  O   UNL     1      31.797  23.651  15.696  0.00  0.00    -0.253 OA
ATOM      9  N   UNL     1      32.595  21.528  15.881  0.00  0.00    -0.293 N 
ATOM     10  C   UNL     1      34.751  22.403  17.446  0.00  0.00    +0.205 C 
ATOM     11  C   UNL     1      35.634  22.927  18.594  0.00  0.00    +0.233 C 
ATOM     12  O   UNL     1      36.659  22.323  18.916  0.00  0.00    -0.274 OA
ATOM     13  H   UNL     1      33.492  21.074  15.888  0.00  0.00    +0.151 HD
BRANCH   3  15
ATOM     14  C   UNL     1      35.071  25.455  21.323  0.00  0.00    +0.024 C 
ATOM     15  C   UNL     1      35.556  24.143  20.721  0.00  0.00    +0.104 C 
ENDBRANCH   3  15
ENDBRANCH   1   9
BRANCH   1  16
ATOM     16  C   UNL     1      32.093  19.464  14.736  0.00  0.00    -0.024 A 
ATOM     17  C   UNL     1      33.449  19.129  14.909  0.00  0.00    +0.009 A 
ATOM     18  C   UNL     1      33.918  17.850  14.624  0.00  0.00    +0.049 A 
ATOM     19  C   UNL     1      33.052  16.884  14.112  0.00  0.00    +0.156 A 
ATOM     20  C   UNL     1      31.692  17.188  13.999  0.00  0.00    +0.165 A 
ATOM     21  F   UNL     1      30.827  16.265  13.555  0.00  0.00    -0.202 F 
ATOM     22  C   UNL     1      31.210  18.465  14.303  0.00  0.00    +0.047 A 
BRANCH  19  23
ATOM     23  O   UNL     1      33.462  15.648  13.688  0.00  0.00    -0.489 OA
BRANCH  23  24
ATOM     24  C   UNL     1      33.758  15.570  12.290  0.00  0.00    +0.232 C 
BRANCH  24  25
ATOM     25  C   UNL     1      32.954  14.467  11.685  0.00  0.00    +0.027 C 
ATOM     26  C   UNL     1      33.197  14.043  10.260  0.00  0.00    +0.007 C 
ATOM     27  C   UNL     1      31.922  14.757  10.621  0.00  0.00    +0.007 C 
ENDBRANCH  24  25
ENDBRANCH  23  24
ENDBRANCH  19  23
ENDBRANCH   1  16
TORSDOF 6
ENDMDL
MODEL 6
REMARK VINA RESULT:      -5.6      5.123      7.046
REMARK  Name = ZINC000543478179
REMARK  8 active torsions:
REMARK  status: ('A' for Active; 'I' for Inactive)
REMARK    1  A    between atoms: C_1  and  C_2
REMARK    2  A    between atoms: C_2  and  N_3
REMARK    3  A    between atoms: N_9  and  C_10
REMARK    4  A    between atoms: C_10  and  C_11
REMARK    5  A    between atoms: C_10  and  C_12
REMARK    6  A    between atoms: C_15  and  O_16
REMARK    7  A    between atoms: O_16  and  C_17
REMARK    8  A    between atoms: C_17  and  C_18
REMARK                            x       y       z     vdW  Elec       q    Type
REMARK                         _______ _______ _______ _____ _____    ______ ____
ROOT
ATOM      1  C   UNL     1      32.946  15.177  10.882  0.00  0.00    +0.102 C 
ATOM      2  C   UNL     1      31.590  14.593  10.459  0.00  0.00    +0.033 C 
ENDROOT
BRANCH   1   9
ATOM      3  N   UNL     1      36.274  16.934   5.715  0.00  0.00    -0.299 N 
ATOM      4  C   UNL     1      36.459  15.532   6.093  0.00  0.00    +0.127 C 
ATOM      5  C   UNL     1      36.669  15.370   7.602  0.00  0.00    +0.129 C 
ATOM      6  N   UNL     1      35.519  15.923   8.310  0.00  0.00    -0.275 N 
ATOM      7  C   UNL     1      34.850  15.157   9.255  0.00  0.00    +0.303 C 
ATOM      8  O   UNL     1      35.201  14.028   9.570  0.00  0.00    -0.253 OA
ATOM      9  N   UNL     1      33.734  15.753   9.789  0.00  0.00    -0.293 N 
ATOM     10  C   UNL     1      35.154  17.287   7.920  0.00  0.00    +0.205 C 
ATOM     11  C   UNL     1      35.764  17.856   6.625  0.00  0.00    +0.233 C 
ATOM     12  O   UNL     1      35.666  19.056   6.367  0.00  0.00    -0.274 OA
ATOM     13  H   UNL     1      33.773  16.757   9.815  0.00  0.00    +0.151 HD
BRANCH   3  15
ATOM     14  C   UNL     1      35.341  16.410   3.488  0.00  0.00    +0.024 C 
ATOM     15  C   UNL     1      36.285  17.290   4.297  0.00  0.00    +0.104 C 
ENDBRANCH   3  15
ENDBRANCH   1   9
BRANCH   1  16
ATOM     16  C   UNL     1      32.731  16.270  11.922  0.00  0.00    -0.024 A 
ATOM     17  C   UNL     1      33.609  17.369  11.969  0.00  0.00    +0.009 A 
ATOM     18  C   UNL     1      33.495  18.342  12.957  0.00  0.00    +0.049 A 
ATOM     19  C   UNL     1      32.529  18.216  13.955  0.00  0.00    +0.156 A 
ATOM     20  C   UNL     1      31.612  17.164  13.880  0.00  0.00    +0.165 A 
ATOM     21  F   UNL     1      30.642  17.044  14.798  0.00  0.00    -0.202 F 
ATOM     22  C   UNL     1      31.708  16.194  12.877  0.00  0.00    +0.047 A 
BRANCH  19  23
ATOM     23  O   UNL     1      32.437  19.061  15.030  0.00  0.00    -0.489 OA
BRANCH  23  24
ATOM     24  C   UNL     1      32.743  20.428  14.737  0.00  0.00    +0.232 C 
BRANCH  24  25
ATOM     25  C   UNL     1      31.584  21.281  15.135  0.00  0.00    +0.027 C 
ATOM     26  C   UNL     1      30.206  20.683  15.250  0.00  0.00    +0.007 C 
ATOM     27  C   UNL     1      30.514  21.645  14.135  0.00  0.00    +0.007 C 
ENDBRANCH  24  25
ENDBRANCH  23  24
ENDBRANCH  19  23
ENDBRANCH   1  16
TORSDOF 6
ENDMDL
MODEL 7
REMARK VINA RESULT:      -5.5      4.459      6.409
REMARK  Name = ZINC000543478179
REMARK  8 active torsions:
REMARK  status: ('A' for Active; 'I' for Inactive)
REMARK    1  A    between atoms: C_1  and  C_2
REMARK    2  A    between atoms: C_2  and  N_3
REMARK    3  A    between atoms: N_9  and  C_10
REMARK    4  A    between atoms: C_10  and  C_11
REMARK    5  A    between atoms: C_10  and  C_12
REMARK    6  A    between atoms: C_15  and  O_16
REMARK    7  A    between atoms: O_16  and  C_17
REMARK    8  A    between atoms: C_17  and  C_18
REMARK                            x       y       z     vdW  Elec       q    Type
REMARK                         _______ _______ _______ _____ _____    ______ ____
ROOT
ATOM      1  C   UNL     1      34.013  22.622  12.526  0.00  0.00    +0.102 C 
ATOM      2  C   UNL     1      35.300  22.811  13.341  0.00  0.00    +0.033 C 
ENDROOT
BRANCH   1   9
ATOM      3  N   UNL     1      35.145  21.885   6.278  0.00  0.00    -0.299 N 
ATOM      4  C   UNL     1      34.528  23.166   6.623  0.00  0.00    +0.127 C 
ATOM      5  C   UNL     1      33.373  22.996   7.616  0.00  0.00    +0.129 C 
ATOM      6  N   UNL     1      33.870  22.347   8.825  0.00  0.00    -0.275 N 
ATOM      7  C   UNL     1      33.633  22.918  10.068  0.00  0.00    +0.303 C 
ATOM      8  O   UNL     1      32.978  23.940  10.220  0.00  0.00    -0.253 OA
ATOM      9  N   UNL     1      34.224  22.263  11.121  0.00  0.00    -0.293 N 
ATOM     10  C   UNL     1      34.623  21.112   8.595  0.00  0.00    +0.205 C 
ATOM     11  C   UNL     1      35.096  20.809   7.161  0.00  0.00    +0.233 C 
ATOM     12  O   UNL     1      35.537  19.696   6.873  0.00  0.00    -0.274 OA
ATOM     13  H   UNL     1      34.347  21.276  10.977  0.00  0.00    +0.151 HD
BRANCH   3  15
ATOM     14  C   UNL     1      35.485  21.279   3.907  0.00  0.00    +0.024 C 
ATOM     15  C   UNL     1      36.108  21.839   5.179  0.00  0.00    +0.104 C 
ENDBRANCH   3  15
ENDBRANCH   1   9
BRANCH   1  16
ATOM     16  C   UNL     1      33.161  21.528  13.159  0.00  0.00    -0.024 A 
ATOM     17  C   UNL     1      33.727  20.676  14.126  0.00  0.00    +0.009 A 
ATOM     18  C   UNL     1      33.005  19.614  14.662  0.00  0.00    +0.049 A 
ATOM     19  C   UNL     1      31.713  19.346  14.210  0.00  0.00    +0.156 A 
ATOM     20  C   UNL     1      31.120  20.224  13.299  0.00  0.00    +0.165 A 
ATOM     21  F   UNL     1      29.862  20.020  12.882  0.00  0.00    -0.202 F 
ATOM     22  C   UNL     1      31.833  21.306  12.770  0.00  0.00    +0.047 A 
BRANCH  19  23
ATOM     23  O   UNL     1      30.990  18.248  14.594  0.00  0.00    -0.489 OA
BRANCH  23  24
ATOM     24  C   UNL     1      31.639  16.996  14.351  0.00  0.00    +0.232 C 
BRANCH  24  25
ATOM     25  C   UNL     1      31.634  16.724  12.882  0.00  0.00    +0.027 C 
ATOM     26  C   UNL     1      32.286  15.480  12.338  0.00  0.00    +0.007 C 
ATOM     27  C   UNL     1      32.905  16.826  12.074  0.00  0.00    +0.007 C 
ENDBRANCH  24  25
ENDBRANCH  23  24
ENDBRANCH  19  23
ENDBRANCH   1  16
TORSDOF 6
ENDMDL
MODEL 8
REMARK VINA RESULT:      -5.5      3.113      3.754
REMARK  Name = ZINC000543478179
REMARK  8 active torsions:
REMARK  status: ('A' for Active; 'I' for Inactive)
REMARK    1  A    between atoms: C_1  and  C_2
REMARK    2  A    between atoms: C_2  and  N_3
REMARK    3  A    between atoms: N_9  and  C_10
REMARK    4  A    between atoms: C_10  and  C_11
REMARK    5  A    between atoms: C_10  and  C_12
REMARK    6  A    between atoms: C_15  and  O_16
REMARK    7  A    between atoms: O_16  and  C_17
REMARK    8  A    between atoms: C_17  and  C_18
REMARK                            x       y       z     vdW  Elec       q    Type
REMARK                         _______ _______ _______ _____ _____    ______ ____
ROOT
ATOM      1  C   UNL     1      30.944  21.770  14.230  0.00  0.00    +0.102 C 
ATOM      2  C   UNL     1      30.441  22.819  13.228  0.00  0.00    +0.033 C 
ENDROOT
BRANCH   1   9
ATOM      3  N   UNL     1      33.113  16.384  11.554  0.00  0.00    -0.299 N 
ATOM      4  C   UNL     1      32.028  16.176  12.514  0.00  0.00    +0.127 C 
ATOM      5  C   UNL     1      32.232  16.994  13.793  0.00  0.00    +0.129 C 
ATOM      6  N   UNL     1      32.322  18.410  13.451  0.00  0.00    -0.275 N 
ATOM      7  C   UNL     1      31.508  19.333  14.093  0.00  0.00    +0.303 C 
ATOM      8  O   UNL     1      30.726  19.029  14.984  0.00  0.00    -0.253 OA
ATOM      9  N   UNL     1      31.620  20.619  13.624  0.00  0.00    -0.293 N 
ATOM     10  C   UNL     1      33.291  18.728  12.400  0.00  0.00    +0.205 C 
ATOM     11  C   UNL     1      33.847  17.568  11.553  0.00  0.00    +0.233 C 
ATOM     12  O   UNL     1      34.814  17.747  10.812  0.00  0.00    -0.274 OA
ATOM     13  H   UNL     1      32.524  20.844  13.245  0.00  0.00    +0.151 HD
BRANCH   3  15
ATOM     14  C   UNL     1      32.255  14.323  10.497  0.00  0.00    +0.024 C 
ATOM     15  C   UNL     1      33.194  15.517  10.380  0.00  0.00    +0.104 C 
ENDBRANCH   3  15
ENDBRANCH   1   9
BRANCH   1  16
ATOM     16  C   UNL     1      31.920  22.417  15.205  0.00  0.00    -0.024 A 
ATOM     17  C   UNL     1      31.534  22.622  16.543  0.00  0.00    +0.009 A 
ATOM     18  C   UNL     1      32.366  23.286  17.440  0.00  0.00    +0.049 A 
ATOM     19  C   UNL     1      33.586  23.806  17.010  0.00  0.00    +0.156 A 
ATOM     20  C   UNL     1      34.006  23.551  15.701  0.00  0.00    +0.165 A 
ATOM     21  F   UNL     1      35.197  23.997  15.273  0.00  0.00    -0.202 F 
ATOM     22  C   UNL     1      33.184  22.867  14.800  0.00  0.00    +0.047 A 
BRANCH  19  23
ATOM     23  O   UNL     1      34.399  24.579  17.796  0.00  0.00    -0.489 OA
BRANCH  23  24
ATOM     24  C   UNL     1      33.764  25.738  18.344  0.00  0.00    +0.232 C 
BRANCH  24  25
ATOM     25  C   UNL     1      33.725  25.613  19.832  0.00  0.00    +0.027 C 
ATOM     26  C   UNL     1      32.687  26.359  20.629  0.00  0.00    +0.007 C 
ATOM     27  C   UNL     1      34.132  26.768  20.714  0.00  0.00    +0.007 C 
ENDBRANCH  24  25
ENDBRANCH  23  24
ENDBRANCH  19  23
ENDBRANCH   1  16
TORSDOF 6
ENDMDL
MODEL 9
REMARK VINA RESULT:      -5.5      6.857      9.168
REMARK  Name = ZINC000543478179
REMARK  8 active torsions:
REMARK  status: ('A' for Active; 'I' for Inactive)
REMARK    1  A    between atoms: C_1  and  C_2
REMARK    2  A    between atoms: C_2  and  N_3
REMARK    3  A    between atoms: N_9  and  C_10
REMARK    4  A    between atoms: C_10  and  C_11
REMARK    5  A    between atoms: C_10  and  C_12
REMARK    6  A    between atoms: C_15  and  O_16
REMARK    7  A    between atoms: O_16  and  C_17
REMARK    8  A    between atoms: C_17  and  C_18
REMARK                            x       y       z     vdW  Elec       q    Type
REMARK                         _______ _______ _______ _____ _____    ______ ____
ROOT
ATOM      1  C   UNL     1      33.777  15.830  11.268  0.00  0.00    +0.102 C 
ATOM      2  C   UNL     1      34.750  16.632  10.393  0.00  0.00    +0.033 C 
ENDROOT
BRANCH   1   9
ATOM      3  N   UNL     1      36.723  11.089  14.384  0.00  0.00    -0.299 N 
ATOM      4  C   UNL     1      35.940  10.646  13.230  0.00  0.00    +0.127 C 
ATOM      5  C   UNL     1      34.563  11.316  13.182  0.00  0.00    +0.129 C 
ATOM      6  N   UNL     1      34.734  12.765  13.134  0.00  0.00    -0.275 N 
ATOM      7  C   UNL     1      34.106  13.506  12.143  0.00  0.00    +0.303 C 
ATOM      8  O   UNL     1      33.361  13.010  11.308  0.00  0.00    -0.253 OA
ATOM      9  N   UNL     1      34.412  14.845  12.148  0.00  0.00    -0.293 N 
ATOM     10  C   UNL     1      35.610  13.315  14.170  0.00  0.00    +0.205 C 
ATOM     11  C   UNL     1      36.500  12.337  14.960  0.00  0.00    +0.233 C 
ATOM     12  O   UNL     1      37.087  12.712  15.976  0.00  0.00    -0.274 OA
ATOM     13  H   UNL     1      34.644  15.213  13.054  0.00  0.00    +0.151 HD
BRANCH   3  15
ATOM     14  C   UNL     1      37.712   9.178  15.597  0.00  0.00    +0.024 C 
ATOM     15  C   UNL     1      37.965  10.388  14.706  0.00  0.00    +0.104 C 
ENDBRANCH   3  15
ENDBRANCH   1   9
BRANCH   1  16
ATOM     16  C   UNL     1      32.973  16.782  12.147  0.00  0.00    -0.024 A 
ATOM     17  C   UNL     1      33.212  18.167  12.073  0.00  0.00    +0.009 A 
ATOM     18  C   UNL     1      32.559  19.058  12.920  0.00  0.00    +0.049 A 
ATOM     19  C   UNL     1      31.683  18.582  13.896  0.00  0.00    +0.156 A 
ATOM     20  C   UNL     1      31.391  17.216  13.934  0.00  0.00    +0.165 A 
ATOM     21  F   UNL     1      30.516  16.735  14.830  0.00  0.00    -0.202 F 
ATOM     22  C   UNL     1      32.029  16.317  13.072  0.00  0.00    +0.047 A 
BRANCH  19  23
ATOM     23  O   UNL     1      31.103  19.380  14.846  0.00  0.00    -0.489 OA
BRANCH  23  24
ATOM     24  C   UNL     1      31.847  20.561  15.161  0.00  0.00    +0.232 C 
BRANCH  24  25
ATOM     25  C   UNL     1      30.892  21.660  15.498  0.00  0.00    +0.027 C 
ATOM     26  C   UNL     1      31.409  23.004  15.943  0.00  0.00    +0.007 C 
ATOM     27  C   UNL     1      30.704  22.108  16.927  0.00  0.00    +0.007 C 
ENDBRANCH  24  25
ENDBRANCH  23  24
ENDBRANCH  19  23
ENDBRANCH   1  16
TORSDOF 6
ENDMDL
