MODEL 1
REMARK VINA RESULT:      -6.7      0.000      0.000
REMARK  Name = ZINC001228612316
REMARK  5 active torsions:
REMARK  status: ('A' for Active; 'I' for Inactive)
REMARK    1  A    between atoms: C_2  and  C_4
REMARK    2  A    between atoms: C_8  and  O_9
REMARK    3  A    between atoms: O_9  and  C_10
REMARK    4  A    between atoms: C_10  and  C_11
REMARK    5  A    between atoms: C_10  and  C_17
REMARK                            x       y       z     vdW  Elec       q    Type
REMARK                         _______ _______ _______ _____ _____    ______ ____
ROOT
ATOM      1  C   UNL     1      31.577  14.171  13.179  0.00  0.00    +0.040 A 
ATOM      2  C   UNL     1      32.270  14.474  12.004  0.00  0.00    +0.013 A 
ATOM      3  C   UNL     1      33.056  15.627  11.946  0.00  0.00    +0.004 A 
ATOM      4  C   UNL     1      33.154  16.467  13.060  0.00  0.00    +0.046 A 
ATOM      5  C   UNL     1      32.469  16.162  14.239  0.00  0.00    +0.122 A 
ATOM      6  C   UNL     1      31.660  15.032  14.278  0.00  0.00    +0.058 A 
ENDROOT
BRANCH   1   8
ATOM      7  N   UNL     1      30.455  12.236  12.211  0.00  0.00    -0.325 N 
ATOM      8  C   UNL     1      30.736  12.957  13.336  0.00  0.00    +0.242 C 
ATOM      9  O   UNL     1      30.360  12.574  14.437  0.00  0.00    -0.270 OA
ATOM     10  H   UNL     1      30.008  11.341  12.366  0.00  0.00    +0.145 HD
ATOM     11  H   UNL     1      30.968  12.359  11.351  0.00  0.00    +0.145 HD
ENDBRANCH   1   8
BRANCH   5  12
ATOM     12  O   UNL     1      32.639  17.039  15.275  0.00  0.00    -0.484 OA
BRANCH  12  13
ATOM     13  C   UNL     1      33.444  18.209  15.037  0.00  0.00    +0.208 C 
BRANCH  13  14
ATOM     14  C   UNL     1      32.584  19.442  15.221  0.00  0.00    +0.011 A 
ATOM     15  C   UNL     1      31.982  19.701  16.460  0.00  0.00    +0.010 A 
ATOM     16  C   UNL     1      31.188  20.828  16.628  0.00  0.00    +0.020 A 
ATOM     17  C   UNL     1      31.019  21.672  15.545  0.00  0.00    +0.111 A 
ATOM     18  N   UNL     1      31.575  21.460  14.333  0.00  0.00    -0.263 NA
ATOM     19  C   UNL     1      32.341  20.350  14.197  0.00  0.00    +0.118 A 
ENDBRANCH  13  14
BRANCH  13  20
ATOM     20  C   UNL     1      34.607  18.229  16.003  0.00  0.00    +0.034 C 
ATOM     21  C   UNL     1      35.733  19.235  15.885  0.00  0.00    +0.008 C 
ATOM     22  C   UNL     1      35.991  17.797  15.559  0.00  0.00    +0.008 C 
ENDBRANCH  13  20
ENDBRANCH  12  13
ENDBRANCH   5  12
TORSDOF 5
ENDMDL
MODEL 2
REMARK VINA RESULT:      -6.4      0.616      1.092
REMARK  Name = ZINC001228612316
REMARK  5 active torsions:
REMARK  status: ('A' for Active; 'I' for Inactive)
REMARK    1  A    between atoms: C_2  and  C_4
REMARK    2  A    between atoms: C_8  and  O_9
REMARK    3  A    between atoms: O_9  and  C_10
REMARK    4  A    between atoms: C_10  and  C_11
REMARK    5  A    between atoms: C_10  and  C_17
REMARK                            x       y       z     vdW  Elec       q    Type
REMARK                         _______ _______ _______ _____ _____    ______ ____
ROOT
ATOM      1  C   UNL     1      31.663  14.227  13.111  0.00  0.00    +0.040 A 
ATOM      2  C   UNL     1      32.429  14.538  11.984  0.00  0.00    +0.013 A 
ATOM      3  C   UNL     1      33.225  15.686  11.989  0.00  0.00    +0.004 A 
ATOM      4  C   UNL     1      33.262  16.511  13.117  0.00  0.00    +0.046 A 
ATOM      5  C   UNL     1      32.504  16.198  14.249  0.00  0.00    +0.122 A 
ATOM      6  C   UNL     1      31.686  15.073  14.223  0.00  0.00    +0.058 A 
ENDROOT
BRANCH   1   8
ATOM      7  N   UNL     1      30.215  12.577  12.051  0.00  0.00    -0.325 N 
ATOM      8  C   UNL     1      30.806  13.018  13.200  0.00  0.00    +0.242 C 
ATOM      9  O   UNL     1      30.681  12.395  14.248  0.00  0.00    -0.270 OA
ATOM     10  H   UNL     1      29.760  11.675  12.112  0.00  0.00    +0.145 HD
ATOM     11  H   UNL     1      30.513  12.890  11.139  0.00  0.00    +0.145 HD
ENDBRANCH   1   8
BRANCH   5  12
ATOM     12  O   UNL     1      32.615  17.061  15.304  0.00  0.00    -0.484 OA
BRANCH  12  13
ATOM     13  C   UNL     1      33.437  18.230  15.128  0.00  0.00    +0.208 C 
BRANCH  13  14
ATOM     14  C   UNL     1      32.560  19.462  15.201  0.00  0.00    +0.011 A 
ATOM     15  C   UNL     1      32.378  20.264  14.066  0.00  0.00    +0.010 A 
ATOM     16  C   UNL     1      31.579  21.398  14.133  0.00  0.00    +0.020 A 
ATOM     17  C   UNL     1      30.979  21.699  15.343  0.00  0.00    +0.111 A 
ATOM     18  N   UNL     1      31.129  20.959  16.462  0.00  0.00    -0.263 NA
ATOM     19  C   UNL     1      31.918  19.860  16.367  0.00  0.00    +0.118 A 
ENDBRANCH  13  14
BRANCH  13  20
ATOM     20  C   UNL     1      34.496  18.272  16.208  0.00  0.00    +0.034 C 
ATOM     21  C   UNL     1      35.691  19.199  16.127  0.00  0.00    +0.008 C 
ATOM     22  C   UNL     1      35.886  17.725  15.952  0.00  0.00    +0.008 C 
ENDBRANCH  13  20
ENDBRANCH  12  13
ENDBRANCH   5  12
TORSDOF 5
ENDMDL
MODEL 3
REMARK VINA RESULT:      -6.4      2.393      6.166
REMARK  Name = ZINC001228612316
REMARK  5 active torsions:
REMARK  status: ('A' for Active; 'I' for Inactive)
REMARK    1  A    between atoms: C_2  and  C_4
REMARK    2  A    between atoms: C_8  and  O_9
REMARK    3  A    between atoms: O_9  and  C_10
REMARK    4  A    between atoms: C_10  and  C_11
REMARK    5  A    between atoms: C_10  and  C_17
REMARK                            x       y       z     vdW  Elec       q    Type
REMARK                         _______ _______ _______ _____ _____    ______ ____
ROOT
ATOM      1  C   UNL     1      33.804  18.788  17.292  0.00  0.00    +0.040 A 
ATOM      2  C   UNL     1      33.089  19.979  17.441  0.00  0.00    +0.013 A 
ATOM      3  C   UNL     1      32.248  20.411  16.413  0.00  0.00    +0.004 A 
ATOM      4  C   UNL     1      32.117  19.650  15.247  0.00  0.00    +0.046 A 
ATOM      5  C   UNL     1      32.824  18.454  15.098  0.00  0.00    +0.122 A 
ATOM      6  C   UNL     1      33.687  18.049  16.111  0.00  0.00    +0.058 A 
ENDROOT
BRANCH   1   8
ATOM      7  N   UNL     1      35.943  17.824  17.953  0.00  0.00    -0.325 N 
ATOM      8  C   UNL     1      34.703  18.244  18.341  0.00  0.00    +0.242 C 
ATOM      9  O   UNL     1      34.378  18.229  19.522  0.00  0.00    -0.270 OA
ATOM     10  H   UNL     1      36.583  17.597  18.704  0.00  0.00    +0.145 HD
ATOM     11  H   UNL     1      36.341  18.075  17.060  0.00  0.00    +0.145 HD
ENDBRANCH   1   8
BRANCH   5  12
ATOM     12  O   UNL     1      32.620  17.778  13.927  0.00  0.00    -0.484 OA
BRANCH  12  13
ATOM     13  C   UNL     1      33.160  16.448  13.820  0.00  0.00    +0.208 C 
BRANCH  13  14
ATOM     14  C   UNL     1      32.049  15.496  13.428  0.00  0.00    +0.011 A 
ATOM     15  C   UNL     1      31.697  15.342  12.081  0.00  0.00    +0.010 A 
ATOM     16  C   UNL     1      30.674  14.474  11.721  0.00  0.00    +0.020 A 
ATOM     17  C   UNL     1      30.028  13.778  12.727  0.00  0.00    +0.111 A 
ATOM     18  N   UNL     1      30.331  13.898  14.038  0.00  0.00    -0.263 NA
ATOM     19  C   UNL     1      31.331  14.755  14.359  0.00  0.00    +0.118 A 
ENDBRANCH  13  14
BRANCH  13  20
ATOM     20  C   UNL     1      34.260  16.430  12.780  0.00  0.00    +0.034 C 
ATOM     21  C   UNL     1      35.303  15.333  12.732  0.00  0.00    +0.008 C 
ATOM     22  C   UNL     1      35.698  16.709  13.169  0.00  0.00    +0.008 C 
ENDBRANCH  13  20
ENDBRANCH  12  13
ENDBRANCH   5  12
TORSDOF 5
ENDMDL
MODEL 4
REMARK VINA RESULT:      -6.3      2.035      6.395
REMARK  Name = ZINC001228612316
REMARK  5 active torsions:
REMARK  status: ('A' for Active; 'I' for Inactive)
REMARK    1  A    between atoms: C_2  and  C_4
REMARK    2  A    between atoms: C_8  and  O_9
REMARK    3  A    between atoms: O_9  and  C_10
REMARK    4  A    between atoms: C_10  and  C_11
REMARK    5  A    between atoms: C_10  and  C_17
REMARK                            x       y       z     vdW  Elec       q    Type
REMARK                         _______ _______ _______ _____ _____    ______ ____
ROOT
ATOM      1  C   UNL     1      32.119  20.452  16.233  0.00  0.00    +0.040 A 
ATOM      2  C   UNL     1      32.888  19.974  17.296  0.00  0.00    +0.013 A 
ATOM      3  C   UNL     1      33.651  18.815  17.127  0.00  0.00    +0.004 A 
ATOM      4  C   UNL     1      33.649  18.146  15.899  0.00  0.00    +0.046 A 
ATOM      5  C   UNL     1      32.888  18.627  14.831  0.00  0.00    +0.122 A 
ATOM      6  C   UNL     1      32.103  19.761  15.017  0.00  0.00    +0.058 A 
ENDROOT
BRANCH   1   8
ATOM      7  N   UNL     1      30.019  21.561  16.781  0.00  0.00    -0.325 N 
ATOM      8  C   UNL     1      31.297  21.686  16.317  0.00  0.00    +0.242 C 
ATOM      9  O   UNL     1      31.760  22.787  16.045  0.00  0.00    -0.270 OA
ATOM     10  H   UNL     1      29.534  22.431  16.966  0.00  0.00    +0.145 HD
ATOM     11  H   UNL     1      29.702  20.736  17.269  0.00  0.00    +0.145 HD
ENDBRANCH   1   8
BRANCH   5  12
ATOM     12  O   UNL     1      32.962  17.909  13.669  0.00  0.00    -0.484 OA
BRANCH  12  13
ATOM     13  C   UNL     1      33.472  16.565  13.745  0.00  0.00    +0.208 C 
BRANCH  13  14
ATOM     14  C   UNL     1      32.343  15.595  13.470  0.00  0.00    +0.011 A 
ATOM     15  C   UNL     1      31.836  15.455  12.170  0.00  0.00    +0.010 A 
ATOM     16  C   UNL     1      30.796  14.570  11.918  0.00  0.00    +0.020 A 
ATOM     17  C   UNL     1      30.289  13.843  12.980  0.00  0.00    +0.111 A 
ATOM     18  N   UNL     1      30.742  13.949  14.248  0.00  0.00    -0.263 NA
ATOM     19  C   UNL     1      31.755  14.823  14.465  0.00  0.00    +0.118 A 
ENDBRANCH  13  14
BRANCH  13  20
ATOM     20  C   UNL     1      34.580  16.386  12.730  0.00  0.00    +0.034 C 
ATOM     21  C   UNL     1      35.397  15.113  12.647  0.00  0.00    +0.008 C 
ATOM     22  C   UNL     1      36.033  16.367  13.164  0.00  0.00    +0.008 C 
ENDBRANCH  13  20
ENDBRANCH  12  13
ENDBRANCH   5  12
TORSDOF 5
ENDMDL
MODEL 5
REMARK VINA RESULT:      -6.0      4.588      6.284
REMARK  Name = ZINC001228612316
REMARK  5 active torsions:
REMARK  status: ('A' for Active; 'I' for Inactive)
REMARK    1  A    between atoms: C_2  and  C_4
REMARK    2  A    between atoms: C_8  and  O_9
REMARK    3  A    between atoms: O_9  and  C_10
REMARK    4  A    between atoms: C_10  and  C_11
REMARK    5  A    between atoms: C_10  and  C_17
REMARK                            x       y       z     vdW  Elec       q    Type
REMARK                         _______ _______ _______ _____ _____    ______ ____
ROOT
ATOM      1  C   UNL     1      31.252  21.664  15.816  0.00  0.00    +0.040 A 
ATOM      2  C   UNL     1      31.280  21.659  14.419  0.00  0.00    +0.013 A 
ATOM      3  C   UNL     1      32.009  20.674  13.748  0.00  0.00    +0.004 A 
ATOM      4  C   UNL     1      32.697  19.695  14.471  0.00  0.00    +0.046 A 
ATOM      5  C   UNL     1      32.664  19.692  15.868  0.00  0.00    +0.122 A 
ATOM      6  C   UNL     1      31.966  20.697  16.530  0.00  0.00    +0.058 A 
ENDROOT
BRANCH   1   8
ATOM      7  N   UNL     1      30.946  23.944  16.619  0.00  0.00    -0.325 N 
ATOM      8  C   UNL     1      30.487  22.659  16.609  0.00  0.00    +0.242 C 
ATOM      9  O   UNL     1      29.445  22.361  17.182  0.00  0.00    -0.270 OA
ATOM     10  H   UNL     1      30.329  24.626  17.044  0.00  0.00    +0.145 HD
ATOM     11  H   UNL     1      31.623  24.279  15.949  0.00  0.00    +0.145 HD
ENDBRANCH   1   8
BRANCH   5  12
ATOM     12  O   UNL     1      33.360  18.688  16.483  0.00  0.00    -0.484 OA
BRANCH  12  13
ATOM     13  C   UNL     1      34.781  18.859  16.644  0.00  0.00    +0.208 C 
BRANCH  13  14
ATOM     14  C   UNL     1      35.068  19.249  18.078  0.00  0.00    +0.011 A 
ATOM     15  C   UNL     1      34.448  18.563  19.131  0.00  0.00    +0.010 A 
ATOM     16  C   UNL     1      34.706  18.924  20.448  0.00  0.00    +0.020 A 
ATOM     17  C   UNL     1      35.586  19.968  20.675  0.00  0.00    +0.111 A 
ATOM     18  N   UNL     1      36.202  20.659  19.693  0.00  0.00    -0.263 NA
ATOM     19  C   UNL     1      35.928  20.287  18.418  0.00  0.00    +0.118 A 
ENDBRANCH  13  14
BRANCH  13  20
ATOM     20  C   UNL     1      35.490  17.569  16.296  0.00  0.00    +0.034 C 
ATOM     21  C   UNL     1      36.996  17.431  16.383  0.00  0.00    +0.008 C 
ATOM     22  C   UNL     1      36.333  17.463  15.040  0.00  0.00    +0.008 C 
ENDBRANCH  13  20
ENDBRANCH  12  13
ENDBRANCH   5  12
TORSDOF 5
ENDMDL
MODEL 6
REMARK VINA RESULT:      -5.9      2.609      6.245
REMARK  Name = ZINC001228612316
REMARK  5 active torsions:
REMARK  status: ('A' for Active; 'I' for Inactive)
REMARK    1  A    between atoms: C_2  and  C_4
REMARK    2  A    between atoms: C_8  and  O_9
REMARK    3  A    between atoms: O_9  and  C_10
REMARK    4  A    between atoms: C_10  and  C_11
REMARK    5  A    between atoms: C_10  and  C_17
REMARK                            x       y       z     vdW  Elec       q    Type
REMARK                         _______ _______ _______ _____ _____    ______ ____
ROOT
ATOM      1  C   UNL     1      32.491  19.667  16.563  0.00  0.00    +0.040 A 
ATOM      2  C   UNL     1      33.279  19.690  17.716  0.00  0.00    +0.013 A 
ATOM      3  C   UNL     1      34.273  18.723  17.891  0.00  0.00    +0.004 A 
ATOM      4  C   UNL     1      34.482  17.746  16.912  0.00  0.00    +0.046 A 
ATOM      5  C   UNL     1      33.701  17.726  15.754  0.00  0.00    +0.122 A 
ATOM      6  C   UNL     1      32.690  18.669  15.603  0.00  0.00    +0.058 A 
ENDROOT
BRANCH   1   8
ATOM      7  N   UNL     1      30.373  20.719  17.149  0.00  0.00    -0.325 N 
ATOM      8  C   UNL     1      31.429  20.666  16.285  0.00  0.00    +0.242 C 
ATOM      9  O   UNL     1      31.519  21.460  15.357  0.00  0.00    -0.270 OA
ATOM     10  H   UNL     1      29.742  21.501  17.021  0.00  0.00    +0.145 HD
ATOM     11  H   UNL     1      30.400  20.284  18.060  0.00  0.00    +0.145 HD
ENDBRANCH   1   8
BRANCH   5  12
ATOM     12  O   UNL     1      33.990  16.738  14.853  0.00  0.00    -0.484 OA
BRANCH  12  13
ATOM     13  C   UNL     1      33.143  16.620  13.695  0.00  0.00    +0.208 C 
BRANCH  13  14
ATOM     14  C   UNL     1      33.942  16.990  12.463  0.00  0.00    +0.011 A 
ATOM     15  C   UNL     1      34.002  16.111  11.373  0.00  0.00    +0.010 A 
ATOM     16  C   UNL     1      34.740  16.446  10.245  0.00  0.00    +0.020 A 
ATOM     17  C   UNL     1      35.400  17.662  10.238  0.00  0.00    +0.111 A 
ATOM     18  N   UNL     1      35.375  18.537  11.266  0.00  0.00    -0.263 NA
ATOM     19  C   UNL     1      34.650  18.182  12.355  0.00  0.00    +0.118 A 
ENDBRANCH  13  14
BRANCH  13  20
ATOM     20  C   UNL     1      32.630  15.202  13.583  0.00  0.00    +0.034 C 
ATOM     21  C   UNL     1      31.273  14.881  12.992  0.00  0.00    +0.008 C 
ATOM     22  C   UNL     1      31.496  14.716  14.464  0.00  0.00    +0.008 C 
ENDBRANCH  13  20
ENDBRANCH  12  13
ENDBRANCH   5  12
TORSDOF 5
ENDMDL
MODEL 7
REMARK VINA RESULT:      -5.8      2.259      3.273
REMARK  Name = ZINC001228612316
REMARK  5 active torsions:
REMARK  status: ('A' for Active; 'I' for Inactive)
REMARK    1  A    between atoms: C_2  and  C_4
REMARK    2  A    between atoms: C_8  and  O_9
REMARK    3  A    between atoms: O_9  and  C_10
REMARK    4  A    between atoms: C_10  and  C_11
REMARK    5  A    between atoms: C_10  and  C_17
REMARK                            x       y       z     vdW  Elec       q    Type
REMARK                         _______ _______ _______ _____ _____    ______ ____
ROOT
ATOM      1  C   UNL     1      31.742  14.754  13.480  0.00  0.00    +0.040 A 
ATOM      2  C   UNL     1      31.989  14.889  12.112  0.00  0.00    +0.013 A 
ATOM      3  C   UNL     1      32.990  15.760  11.675  0.00  0.00    +0.004 A 
ATOM      4  C   UNL     1      33.746  16.483  12.605  0.00  0.00    +0.046 A 
ATOM      5  C   UNL     1      33.507  16.343  13.974  0.00  0.00    +0.122 A 
ATOM      6  C   UNL     1      32.484  15.502  14.399  0.00  0.00    +0.058 A 
ENDROOT
BRANCH   1   8
ATOM      7  N   UNL     1      31.136  12.841  14.864  0.00  0.00    -0.325 N 
ATOM      8  C   UNL     1      30.712  13.838  14.033  0.00  0.00    +0.242 C 
ATOM      9  O   UNL     1      29.519  14.001  13.808  0.00  0.00    -0.270 OA
ATOM     10  H   UNL     1      30.405  12.327  15.339  0.00  0.00    +0.145 HD
ATOM     11  H   UNL     1      32.053  12.847  15.286  0.00  0.00    +0.145 HD
ENDBRANCH   1   8
BRANCH   5  12
ATOM     12  O   UNL     1      34.306  17.084  14.801  0.00  0.00    -0.484 OA
BRANCH  12  13
ATOM     13  C   UNL     1      33.671  18.071  15.636  0.00  0.00    +0.208 C 
BRANCH  13  14
ATOM     14  C   UNL     1      34.474  18.225  16.911  0.00  0.00    +0.011 A 
ATOM     15  C   UNL     1      33.840  18.616  18.098  0.00  0.00    +0.010 A 
ATOM     16  C   UNL     1      34.576  18.765  19.266  0.00  0.00    +0.020 A 
ATOM     17  C   UNL     1      35.935  18.514  19.214  0.00  0.00    +0.111 A 
ATOM     18  N   UNL     1      36.589  18.140  18.093  0.00  0.00    -0.263 NA
ATOM     19  C   UNL     1      35.845  18.008  16.967  0.00  0.00    +0.118 A 
ENDBRANCH  13  14
BRANCH  13  20
ATOM     20  C   UNL     1      33.598  19.389  14.896  0.00  0.00    +0.034 C 
ATOM     21  C   UNL     1      32.705  20.521  15.357  0.00  0.00    +0.008 C 
ATOM     22  C   UNL     1      32.359  19.769  14.110  0.00  0.00    +0.008 C 
ENDBRANCH  13  20
ENDBRANCH  12  13
ENDBRANCH   5  12
TORSDOF 5
ENDMDL
MODEL 8
REMARK VINA RESULT:      -5.7      1.669      2.233
REMARK  Name = ZINC001228612316
REMARK  5 active torsions:
REMARK  status: ('A' for Active; 'I' for Inactive)
REMARK    1  A    between atoms: C_2  and  C_4
REMARK    2  A    between atoms: C_8  and  O_9
REMARK    3  A    between atoms: O_9  and  C_10
REMARK    4  A    between atoms: C_10  and  C_11
REMARK    5  A    between atoms: C_10  and  C_17
REMARK                            x       y       z     vdW  Elec       q    Type
REMARK                         _______ _______ _______ _____ _____    ______ ____
ROOT
ATOM      1  C   UNL     1      32.836  15.349  12.577  0.00  0.00    +0.040 A 
ATOM      2  C   UNL     1      34.208  15.434  12.329  0.00  0.00    +0.013 A 
ATOM      3  C   UNL     1      34.987  16.331  13.064  0.00  0.00    +0.004 A 
ATOM      4  C   UNL     1      34.395  17.131  14.047  0.00  0.00    +0.046 A 
ATOM      5  C   UNL     1      33.025  17.043  14.303  0.00  0.00    +0.122 A 
ATOM      6  C   UNL     1      32.250  16.173  13.543  0.00  0.00    +0.058 A 
ENDROOT
BRANCH   1   8
ATOM      7  N   UNL     1      32.289  13.090  11.843  0.00  0.00    -0.325 N 
ATOM      8  C   UNL     1      31.938  14.410  11.858  0.00  0.00    +0.242 C 
ATOM      9  O   UNL     1      30.887  14.785  11.352  0.00  0.00    -0.270 OA
ATOM     10  H   UNL     1      31.589  12.456  11.476  0.00  0.00    +0.145 HD
ATOM     11  H   UNL     1      32.980  12.710  12.472  0.00  0.00    +0.145 HD
ENDBRANCH   1   8
BRANCH   5  12
ATOM     12  O   UNL     1      32.545  17.859  15.290  0.00  0.00    -0.484 OA
BRANCH  12  13
ATOM     13  C   UNL     1      33.324  19.018  15.639  0.00  0.00    +0.208 C 
BRANCH  13  14
ATOM     14  C   UNL     1      32.734  20.231  14.951  0.00  0.00    +0.011 A 
ATOM     15  C   UNL     1      33.348  20.760  13.808  0.00  0.00    +0.010 A 
ATOM     16  C   UNL     1      32.812  21.877  13.180  0.00  0.00    +0.020 A 
ATOM     17  C   UNL     1      31.666  22.437  13.718  0.00  0.00    +0.111 A 
ATOM     18  N   UNL     1      31.044  21.965  14.819  0.00  0.00    -0.263 NA
ATOM     19  C   UNL     1      31.593  20.876  15.412  0.00  0.00    +0.118 A 
ENDBRANCH  13  14
BRANCH  13  20
ATOM     20  C   UNL     1      33.312  19.205  17.140  0.00  0.00    +0.034 C 
ATOM     21  C   UNL     1      34.296  20.115  17.845  0.00  0.00    +0.008 C 
ATOM     22  C   UNL     1      34.419  18.631  18.001  0.00  0.00    +0.008 C 
ENDBRANCH  13  20
ENDBRANCH  12  13
ENDBRANCH   5  12
TORSDOF 5
ENDMDL
MODEL 9
REMARK VINA RESULT:      -5.7      1.790      2.525
REMARK  Name = ZINC001228612316
REMARK  5 active torsions:
REMARK  status: ('A' for Active; 'I' for Inactive)
REMARK    1  A    between atoms: C_2  and  C_4
REMARK    2  A    between atoms: C_8  and  O_9
REMARK    3  A    between atoms: O_9  and  C_10
REMARK    4  A    between atoms: C_10  and  C_11
REMARK    5  A    between atoms: C_10  and  C_17
REMARK                            x       y       z     vdW  Elec       q    Type
REMARK                         _______ _______ _______ _____ _____    ______ ____
ROOT
ATOM      1  C   UNL     1      33.306  15.378  12.028  0.00  0.00    +0.040 A 
ATOM      2  C   UNL     1      32.514  14.239  12.196  0.00  0.00    +0.013 A 
ATOM      3  C   UNL     1      31.753  14.095  13.359  0.00  0.00    +0.004 A 
ATOM      4  C   UNL     1      31.778  15.090  14.342  0.00  0.00    +0.046 A 
ATOM      5  C   UNL     1      32.562  16.234  14.173  0.00  0.00    +0.122 A 
ATOM      6  C   UNL     1      33.344  16.353  13.029  0.00  0.00    +0.058 A 
ENDROOT
BRANCH   1   8
ATOM      7  N   UNL     1      35.177  14.779  10.586  0.00  0.00    -0.325 N 
ATOM      8  C   UNL     1      34.129  15.622  10.816  0.00  0.00    +0.242 C 
ATOM      9  O   UNL     1      33.846  16.504  10.014  0.00  0.00    -0.270 OA
ATOM     10  H   UNL     1      35.627  14.877   9.684  0.00  0.00    +0.145 HD
ATOM     11  H   UNL     1      35.269  13.892  11.060  0.00  0.00    +0.145 HD
ENDBRANCH   1   8
BRANCH   5  12
ATOM     12  O   UNL     1      32.510  17.153  15.184  0.00  0.00    -0.484 OA
BRANCH  12  13
ATOM     13  C   UNL     1      33.333  18.328  15.064  0.00  0.00    +0.208 C 
BRANCH  13  14
ATOM     14  C   UNL     1      32.469  19.555  15.265  0.00  0.00    +0.011 A 
ATOM     15  C   UNL     1      31.851  19.785  16.501  0.00  0.00    +0.010 A 
ATOM     16  C   UNL     1      31.053  20.907  16.685  0.00  0.00    +0.020 A 
ATOM     17  C   UNL     1      30.896  21.775  15.619  0.00  0.00    +0.111 A 
ATOM     18  N   UNL     1      31.468  21.591  14.409  0.00  0.00    -0.263 NA
ATOM     19  C   UNL     1      32.238  20.486  14.259  0.00  0.00    +0.118 A 
ENDBRANCH  13  14
BRANCH  13  20
ATOM     20  C   UNL     1      34.434  18.284  16.100  0.00  0.00    +0.034 C 
ATOM     21  C   UNL     1      35.581  19.273  16.097  0.00  0.00    +0.008 C 
ATOM     22  C   UNL     1      35.836  17.846  15.722  0.00  0.00    +0.008 C 
ENDBRANCH  13  20
ENDBRANCH  12  13
ENDBRANCH   5  12
TORSDOF 5
ENDMDL
