MODEL 1
REMARK VINA RESULT:      -5.7      0.000      0.000
REMARK  Name = ZINC000826139982
REMARK  4 active torsions:
REMARK  status: ('A' for Active; 'I' for Inactive)
REMARK    1  A    between atoms: C_2  and  C_4
REMARK    2  A    between atoms: C_8  and  C_10
REMARK    3  A    between atoms: C_14  and  S_15
REMARK    4  A    between atoms: S_15  and  C_16
REMARK                            x       y       z     vdW  Elec       q    Type
REMARK                         _______ _______ _______ _____ _____    ______ ____
ROOT
ATOM      1  C   UNL     1      31.899  20.796  14.383  0.00  0.00    +0.093 C 
ATOM      2  C   UNL     1      32.309  20.643  12.919  0.00  0.00    +0.033 C 
ATOM      3  C   UNL     1      31.579  19.370  12.516  0.00  0.00    +0.109 C 
ATOM      4  N   UNL     1      31.799  18.511  13.671  0.00  0.00    -0.297 N 
ATOM      5  C   UNL     1      31.859  17.128  13.789  0.00  0.00    +0.247 C 
ATOM      6  O   UNL     1      31.926  16.591  14.898  0.00  0.00    -0.270 OA
ATOM      7  C   UNL     1      31.822  19.344  14.876  0.00  0.00    +0.120 C 
ENDROOT
BRANCH   5   8
ATOM      8  C   UNL     1      31.820  16.231  12.594  0.00  0.00    +0.038 A 
ATOM      9  C   UNL     1      30.659  15.610  12.132  0.00  0.00    +0.013 A 
ATOM     10  C   UNL     1      30.703  14.710  11.065  0.00  0.00    +0.002 A 
ATOM     11  C   UNL     1      31.887  14.530  10.356  0.00  0.00    +0.015 A 
ATOM     12  C   UNL     1      33.020  15.279  10.687  0.00  0.00    +0.017 A 
ATOM     13  C   UNL     1      32.994  16.092  11.830  0.00  0.00    +0.028 A 
BRANCH  12  14
ATOM     14  S   UNL     1      34.492  15.196   9.689  0.00  0.00    -0.016 S 
BRANCH  14  15
ATOM     15  C   UNL     1      34.427  16.785   8.833  0.00  0.00    +0.448 C 
ATOM     16  F   UNL     1      35.038  16.785   7.623  0.00  0.00    -0.160 F 
ATOM     17  F   UNL     1      33.146  17.173   8.629  0.00  0.00    -0.160 F 
ATOM     18  F   UNL     1      35.024  17.751   9.574  0.00  0.00    -0.160 F 
ENDBRANCH  14  15
ENDBRANCH  12  14
ENDBRANCH   5   8
BRANCH   1  20
ATOM     19  N   UNL     1      29.810  21.258  15.575  0.00  0.00    -0.329 N 
ATOM     20  C   UNL     1      30.578  21.543  14.488  0.00  0.00    +0.215 C 
ATOM     21  O   UNL     1      30.205  22.395  13.687  0.00  0.00    -0.276 OA
ATOM     22  H   UNL     1      28.975  21.816  15.695  0.00  0.00    +0.145 HD
ATOM     23  H   UNL     1      30.128  20.691  16.348  0.00  0.00    +0.145 HD
ENDBRANCH   1  20
TORSDOF 4
ENDMDL
MODEL 2
REMARK VINA RESULT:      -5.7      7.715     10.358
REMARK  Name = ZINC000826139982
REMARK  4 active torsions:
REMARK  status: ('A' for Active; 'I' for Inactive)
REMARK    1  A    between atoms: C_2  and  C_4
REMARK    2  A    between atoms: C_8  and  C_10
REMARK    3  A    between atoms: C_14  and  S_15
REMARK    4  A    between atoms: S_15  and  C_16
REMARK                            x       y       z     vdW  Elec       q    Type
REMARK                         _______ _______ _______ _____ _____    ______ ____
ROOT
ATOM      1  C   UNL     1      31.271  20.427  14.881  0.00  0.00    +0.093 C 
ATOM      2  C   UNL     1      30.549  21.551  15.623  0.00  0.00    +0.033 C 
ATOM      3  C   UNL     1      31.550  22.692  15.522  0.00  0.00    +0.109 C 
ATOM      4  N   UNL     1      32.812  22.018  15.792  0.00  0.00    -0.297 N 
ATOM      5  C   UNL     1      34.004  22.484  16.334  0.00  0.00    +0.247 C 
ATOM      6  O   UNL     1      35.009  21.768  16.356  0.00  0.00    -0.270 OA
ATOM      7  C   UNL     1      32.744  20.661  15.245  0.00  0.00    +0.120 C 
ENDROOT
BRANCH   5   8
ATOM      8  C   UNL     1      34.133  23.866  16.889  0.00  0.00    +0.038 A 
ATOM      9  C   UNL     1      34.956  24.846  16.334  0.00  0.00    +0.013 A 
ATOM     10  C   UNL     1      35.105  26.091  16.950  0.00  0.00    +0.002 A 
ATOM     11  C   UNL     1      34.321  26.418  18.052  0.00  0.00    +0.015 A 
ATOM     12  C   UNL     1      33.359  25.518  18.517  0.00  0.00    +0.017 A 
ATOM     13  C   UNL     1      33.299  24.231  17.962  0.00  0.00    +0.028 A 
BRANCH  12  14
ATOM     14  S   UNL     1      32.228  25.980  19.812  0.00  0.00    -0.016 S 
BRANCH  14  15
ATOM     15  C   UNL     1      33.371  26.426  21.137  0.00  0.00    +0.448 C 
ATOM     16  F   UNL     1      33.907  27.664  21.009  0.00  0.00    -0.160 F 
ATOM     17  F   UNL     1      32.756  26.385  22.343  0.00  0.00    -0.160 F 
ATOM     18  F   UNL     1      34.407  25.553  21.188  0.00  0.00    -0.160 F 
ENDBRANCH  14  15
ENDBRANCH  12  14
ENDBRANCH   5   8
BRANCH   1  20
ATOM     19  N   UNL     1      32.078  20.431  12.569  0.00  0.00    -0.329 N 
ATOM     20  C   UNL     1      30.994  20.513  13.388  0.00  0.00    +0.215 C 
ATOM     21  O   UNL     1      29.871  20.607  12.902  0.00  0.00    -0.276 OA
ATOM     22  H   UNL     1      31.891  20.398  11.576  0.00  0.00    +0.145 HD
ATOM     23  H   UNL     1      33.005  20.194  12.894  0.00  0.00    +0.145 HD
ENDBRANCH   1  20
TORSDOF 4
ENDMDL
MODEL 3
REMARK VINA RESULT:      -5.4      2.809      3.705
REMARK  Name = ZINC000826139982
REMARK  4 active torsions:
REMARK  status: ('A' for Active; 'I' for Inactive)
REMARK    1  A    between atoms: C_2  and  C_4
REMARK    2  A    between atoms: C_8  and  C_10
REMARK    3  A    between atoms: C_14  and  S_15
REMARK    4  A    between atoms: S_15  and  C_16
REMARK                            x       y       z     vdW  Elec       q    Type
REMARK                         _______ _______ _______ _____ _____    ______ ____
ROOT
ATOM      1  C   UNL     1      30.662  21.868  15.026  0.00  0.00    +0.093 C 
ATOM      2  C   UNL     1      30.341  20.374  14.996  0.00  0.00    +0.033 C 
ATOM      3  C   UNL     1      31.726  19.753  14.889  0.00  0.00    +0.109 C 
ATOM      4  N   UNL     1      32.375  20.616  13.913  0.00  0.00    -0.297 N 
ATOM      5  C   UNL     1      33.401  20.370  13.008  0.00  0.00    +0.247 C 
ATOM      6  O   UNL     1      33.898  21.290  12.353  0.00  0.00    -0.270 OA
ATOM      7  C   UNL     1      31.873  21.982  14.088  0.00  0.00    +0.120 C 
ENDROOT
BRANCH   5   8
ATOM      8  C   UNL     1      33.964  19.001  12.805  0.00  0.00    +0.038 A 
ATOM      9  C   UNL     1      34.830  18.380  13.705  0.00  0.00    +0.013 A 
ATOM     10  C   UNL     1      35.394  17.136  13.416  0.00  0.00    +0.002 A 
ATOM     11  C   UNL     1      34.987  16.434  12.285  0.00  0.00    +0.015 A 
ATOM     12  C   UNL     1      33.986  16.956  11.463  0.00  0.00    +0.017 A 
ATOM     13  C   UNL     1      33.510  18.255  11.700  0.00  0.00    +0.028 A 
BRANCH  12  14
ATOM     14  S   UNL     1      33.325  16.003  10.112  0.00  0.00    -0.016 S 
BRANCH  14  15
ATOM     15  C   UNL     1      32.270  14.830  10.991  0.00  0.00    +0.448 C 
ATOM     16  F   UNL     1      31.237  14.356  10.254  0.00  0.00    -0.160 F 
ATOM     17  F   UNL     1      32.983  13.756  11.409  0.00  0.00    -0.160 F 
ATOM     18  F   UNL     1      31.733  15.406  12.095  0.00  0.00    -0.160 F 
ENDBRANCH  14  15
ENDBRANCH  12  14
ENDBRANCH   5   8
BRANCH   1  20
ATOM     19  N   UNL     1      31.827  23.354  16.585  0.00  0.00    -0.329 N 
ATOM     20  C   UNL     1      30.954  22.319  16.449  0.00  0.00    +0.215 C 
ATOM     21  O   UNL     1      30.421  21.838  17.445  0.00  0.00    -0.276 OA
ATOM     22  H   UNL     1      31.955  23.716  17.521  0.00  0.00    +0.145 HD
ATOM     23  H   UNL     1      32.175  23.896  15.806  0.00  0.00    +0.145 HD
ENDBRANCH   1  20
TORSDOF 4
ENDMDL
MODEL 4
REMARK VINA RESULT:      -5.3      4.428      7.111
REMARK  Name = ZINC000826139982
REMARK  4 active torsions:
REMARK  status: ('A' for Active; 'I' for Inactive)
REMARK    1  A    between atoms: C_2  and  C_4
REMARK    2  A    between atoms: C_8  and  C_10
REMARK    3  A    between atoms: C_14  and  S_15
REMARK    4  A    between atoms: S_15  and  C_16
REMARK                            x       y       z     vdW  Elec       q    Type
REMARK                         _______ _______ _______ _____ _____    ______ ____
ROOT
ATOM      1  C   UNL     1      32.547  14.745  10.368  0.00  0.00    +0.093 C 
ATOM      2  C   UNL     1      33.469  15.938  10.117  0.00  0.00    +0.033 C 
ATOM      3  C   UNL     1      33.882  16.322  11.530  0.00  0.00    +0.109 C 
ATOM      4  N   UNL     1      32.626  16.213  12.259  0.00  0.00    -0.297 N 
ATOM      5  C   UNL     1      32.168  16.861  13.399  0.00  0.00    +0.247 C 
ATOM      6  O   UNL     1      31.109  16.523  13.934  0.00  0.00    -0.270 OA
ATOM      7  C   UNL     1      31.843  15.119  11.680  0.00  0.00    +0.120 C 
ENDROOT
BRANCH   5   8
ATOM      8  C   UNL     1      32.937  17.971  14.041  0.00  0.00    +0.038 A 
ATOM      9  C   UNL     1      34.106  17.775  14.776  0.00  0.00    +0.013 A 
ATOM     10  C   UNL     1      34.729  18.841  15.429  0.00  0.00    +0.002 A 
ATOM     11  C   UNL     1      34.269  20.139  15.236  0.00  0.00    +0.015 A 
ATOM     12  C   UNL     1      33.208  20.381  14.358  0.00  0.00    +0.017 A 
ATOM     13  C   UNL     1      32.519  19.294  13.799  0.00  0.00    +0.028 A 
BRANCH  12  14
ATOM     14  S   UNL     1      32.714  22.044  13.960  0.00  0.00    -0.016 S 
BRANCH  14  15
ATOM     15  C   UNL     1      31.226  22.221  14.968  0.00  0.00    +0.448 C 
ATOM     16  F   UNL     1      31.215  21.444  16.078  0.00  0.00    -0.160 F 
ATOM     17  F   UNL     1      31.068  23.501  15.380  0.00  0.00    -0.160 F 
ATOM     18  F   UNL     1      30.122  21.894  14.250  0.00  0.00    -0.160 F 
ENDBRANCH  14  15
ENDBRANCH  12  14
ENDBRANCH   5   8
BRANCH   1  20
ATOM     19  N   UNL     1      34.178  13.191   9.409  0.00  0.00    -0.329 N 
ATOM     20  C   UNL     1      33.356  13.460  10.459  0.00  0.00    +0.215 C 
ATOM     21  O   UNL     1      33.335  12.703  11.425  0.00  0.00    -0.276 OA
ATOM     22  H   UNL     1      34.784  12.386   9.506  0.00  0.00    +0.145 HD
ATOM     23  H   UNL     1      34.362  13.846   8.663  0.00  0.00    +0.145 HD
ENDBRANCH   1  20
TORSDOF 4
ENDMDL
MODEL 5
REMARK VINA RESULT:      -5.3      5.371      7.422
REMARK  Name = ZINC000826139982
REMARK  4 active torsions:
REMARK  status: ('A' for Active; 'I' for Inactive)
REMARK    1  A    between atoms: C_2  and  C_4
REMARK    2  A    between atoms: C_8  and  C_10
REMARK    3  A    between atoms: C_14  and  S_15
REMARK    4  A    between atoms: S_15  and  C_16
REMARK                            x       y       z     vdW  Elec       q    Type
REMARK                         _______ _______ _______ _____ _____    ______ ____
ROOT
ATOM      1  C   UNL     1      34.806  26.196  18.156  0.00  0.00    +0.093 C 
ATOM      2  C   UNL     1      33.345  25.952  18.532  0.00  0.00    +0.033 C 
ATOM      3  C   UNL     1      33.165  24.485  18.171  0.00  0.00    +0.109 C 
ATOM      4  N   UNL     1      33.857  24.396  16.893  0.00  0.00    -0.297 N 
ATOM      5  C   UNL     1      33.675  23.547  15.808  0.00  0.00    +0.247 C 
ATOM      6  O   UNL     1      34.466  23.555  14.861  0.00  0.00    -0.270 OA
ATOM      7  C   UNL     1      34.997  25.316  16.912  0.00  0.00    +0.120 C 
ENDROOT
BRANCH   5   8
ATOM      8  C   UNL     1      32.541  22.575  15.746  0.00  0.00    +0.038 A 
ATOM      9  C   UNL     1      31.419  22.645  16.572  0.00  0.00    +0.013 A 
ATOM     10  C   UNL     1      30.434  21.655  16.529  0.00  0.00    +0.002 A 
ATOM     11  C   UNL     1      30.491  20.660  15.558  0.00  0.00    +0.015 A 
ATOM     12  C   UNL     1      31.511  20.674  14.602  0.00  0.00    +0.017 A 
ATOM     13  C   UNL     1      32.554  21.604  14.726  0.00  0.00    +0.028 A 
BRANCH  12  14
ATOM     14  S   UNL     1      31.509  19.518  13.248  0.00  0.00    -0.016 S 
BRANCH  14  15
ATOM     15  C   UNL     1      31.921  17.979  14.098  0.00  0.00    +0.448 C 
ATOM     16  F   UNL     1      32.488  17.043  13.300  0.00  0.00    -0.160 F 
ATOM     17  F   UNL     1      32.783  18.205  15.118  0.00  0.00    -0.160 F 
ATOM     18  F   UNL     1      30.809  17.416  14.633  0.00  0.00    -0.160 F 
ENDBRANCH  14  15
ENDBRANCH  12  14
ENDBRANCH   5   8
BRANCH   1  20
ATOM     19  N   UNL     1      35.369  26.294  20.537  0.00  0.00    -0.329 N 
ATOM     20  C   UNL     1      35.721  25.819  19.311  0.00  0.00    +0.215 C 
ATOM     21  O   UNL     1      36.705  25.095  19.199  0.00  0.00    -0.276 OA
ATOM     22  H   UNL     1      35.922  25.972  21.320  0.00  0.00    +0.145 HD
ATOM     23  H   UNL     1      34.491  26.757  20.724  0.00  0.00    +0.145 HD
ENDBRANCH   1  20
TORSDOF 4
ENDMDL
MODEL 6
REMARK VINA RESULT:      -5.3      4.780      6.394
REMARK  Name = ZINC000826139982
REMARK  4 active torsions:
REMARK  status: ('A' for Active; 'I' for Inactive)
REMARK    1  A    between atoms: C_2  and  C_4
REMARK    2  A    between atoms: C_8  and  C_10
REMARK    3  A    between atoms: C_14  and  S_15
REMARK    4  A    between atoms: S_15  and  C_16
REMARK                            x       y       z     vdW  Elec       q    Type
REMARK                         _______ _______ _______ _____ _____    ______ ____
ROOT
ATOM      1  C   UNL     1      35.498  24.296   9.793  0.00  0.00    +0.093 C 
ATOM      2  C   UNL     1      34.753  23.096   9.208  0.00  0.00    +0.033 C 
ATOM      3  C   UNL     1      33.614  22.915  10.201  0.00  0.00    +0.109 C 
ATOM      4  N   UNL     1      34.289  23.098  11.479  0.00  0.00    -0.297 N 
ATOM      5  C   UNL     1      34.006  22.601  12.745  0.00  0.00    +0.247 C 
ATOM      6  O   UNL     1      34.638  22.990  13.731  0.00  0.00    -0.270 OA
ATOM      7  C   UNL     1      35.353  24.089  11.308  0.00  0.00    +0.120 C 
ENDROOT
BRANCH   5   8
ATOM      8  C   UNL     1      32.918  21.603  12.978  0.00  0.00    +0.038 A 
ATOM      9  C   UNL     1      31.593  21.952  13.238  0.00  0.00    +0.013 A 
ATOM     10  C   UNL     1      30.640  20.976  13.538  0.00  0.00    +0.002 A 
ATOM     11  C   UNL     1      30.971  19.628  13.441  0.00  0.00    +0.015 A 
ATOM     12  C   UNL     1      32.245  19.252  13.006  0.00  0.00    +0.017 A 
ATOM     13  C   UNL     1      33.225  20.238  12.819  0.00  0.00    +0.028 A 
BRANCH  12  14
ATOM     14  S   UNL     1      32.639  17.541  12.708  0.00  0.00    -0.016 S 
BRANCH  14  15
ATOM     15  C   UNL     1      32.475  16.847  14.367  0.00  0.00    +0.448 C 
ATOM     16  F   UNL     1      31.196  16.600  14.738  0.00  0.00    -0.160 F 
ATOM     17  F   UNL     1      33.150  15.677  14.471  0.00  0.00    -0.160 F 
ATOM     18  F   UNL     1      32.996  17.691  15.291  0.00  0.00    -0.160 F 
ENDBRANCH  14  15
ENDBRANCH  12  14
ENDBRANCH   5   8
BRANCH   1  20
ATOM     19  N   UNL     1      35.117  25.913   7.995  0.00  0.00    -0.329 N 
ATOM     20  C   UNL     1      34.883  25.596   9.297  0.00  0.00    +0.215 C 
ATOM     21  O   UNL     1      34.172  26.324   9.983  0.00  0.00    -0.276 OA
ATOM     22  H   UNL     1      34.636  26.728   7.637  0.00  0.00    +0.145 HD
ATOM     23  H   UNL     1      35.555  25.283   7.338  0.00  0.00    +0.145 HD
ENDBRANCH   1  20
TORSDOF 4
ENDMDL
MODEL 7
REMARK VINA RESULT:      -5.2      5.262      7.269
REMARK  Name = ZINC000826139982
REMARK  4 active torsions:
REMARK  status: ('A' for Active; 'I' for Inactive)
REMARK    1  A    between atoms: C_2  and  C_4
REMARK    2  A    between atoms: C_8  and  C_10
REMARK    3  A    between atoms: C_14  and  S_15
REMARK    4  A    between atoms: S_15  and  C_16
REMARK                            x       y       z     vdW  Elec       q    Type
REMARK                         _______ _______ _______ _____ _____    ______ ____
ROOT
ATOM      1  C   UNL     1      35.384  16.189  13.920  0.00  0.00    +0.093 C 
ATOM      2  C   UNL     1      35.506  17.555  13.244  0.00  0.00    +0.033 C 
ATOM      3  C   UNL     1      34.523  18.395  14.045  0.00  0.00    +0.109 C 
ATOM      4  N   UNL     1      33.390  17.490  14.188  0.00  0.00    -0.297 N 
ATOM      5  C   UNL     1      32.032  17.738  14.346  0.00  0.00    +0.247 C 
ATOM      6  O   UNL     1      31.246  16.816  14.583  0.00  0.00    -0.270 OA
ATOM      7  C   UNL     1      33.897  16.120  14.297  0.00  0.00    +0.120 C 
ENDROOT
BRANCH   5   8
ATOM      8  C   UNL     1      31.465  19.118  14.263  0.00  0.00    +0.038 A 
ATOM      9  C   UNL     1      30.903  19.654  13.104  0.00  0.00    +0.013 A 
ATOM     10  C   UNL     1      30.473  20.982  13.063  0.00  0.00    +0.002 A 
ATOM     11  C   UNL     1      30.469  21.747  14.225  0.00  0.00    +0.015 A 
ATOM     12  C   UNL     1      30.859  21.175  15.439  0.00  0.00    +0.017 A 
ATOM     13  C   UNL     1      31.396  19.879  15.446  0.00  0.00    +0.028 A 
BRANCH  12  14
ATOM     14  S   UNL     1      30.699  22.077  16.966  0.00  0.00    -0.016 S 
BRANCH  14  15
ATOM     15  C   UNL     1      32.226  23.040  16.969  0.00  0.00    +0.448 C 
ATOM     16  F   UNL     1      32.381  23.827  18.061  0.00  0.00    -0.160 F 
ATOM     17  F   UNL     1      33.310  22.230  16.907  0.00  0.00    -0.160 F 
ATOM     18  F   UNL     1      32.277  23.857  15.887  0.00  0.00    -0.160 F 
ENDBRANCH  14  15
ENDBRANCH  12  14
ENDBRANCH   5   8
BRANCH   1  20
ATOM     19  N   UNL     1      35.748  15.748  16.301  0.00  0.00    -0.329 N 
ATOM     20  C   UNL     1      36.318  16.106  15.118  0.00  0.00    +0.215 C 
ATOM     21  O   UNL     1      37.529  16.297  15.059  0.00  0.00    -0.276 OA
ATOM     22  H   UNL     1      36.379  15.604  17.078  0.00  0.00    +0.145 HD
ATOM     23  H   UNL     1      34.795  15.423  16.385  0.00  0.00    +0.145 HD
ENDBRANCH   1  20
TORSDOF 4
ENDMDL
MODEL 8
REMARK VINA RESULT:      -5.1      5.873      7.852
REMARK  Name = ZINC000826139982
REMARK  4 active torsions:
REMARK  status: ('A' for Active; 'I' for Inactive)
REMARK    1  A    between atoms: C_2  and  C_4
REMARK    2  A    between atoms: C_8  and  C_10
REMARK    3  A    between atoms: C_14  and  S_15
REMARK    4  A    between atoms: S_15  and  C_16
REMARK                            x       y       z     vdW  Elec       q    Type
REMARK                         _______ _______ _______ _____ _____    ______ ____
ROOT
ATOM      1  C   UNL     1      33.379  22.769   7.137  0.00  0.00    +0.093 C 
ATOM      2  C   UNL     1      32.963  23.840   8.145  0.00  0.00    +0.033 C 
ATOM      3  C   UNL     1      33.811  23.483   9.357  0.00  0.00    +0.109 C 
ATOM      4  N   UNL     1      33.697  22.032   9.395  0.00  0.00    -0.297 N 
ATOM      5  C   UNL     1      33.780  21.132  10.450  0.00  0.00    +0.247 C 
ATOM      6  O   UNL     1      33.785  19.916  10.243  0.00  0.00    -0.270 OA
ATOM      7  C   UNL     1      33.610  21.534   8.020  0.00  0.00    +0.120 C 
ENDROOT
BRANCH   5   8
ATOM      8  C   UNL     1      33.890  21.587  11.870  0.00  0.00    +0.038 A 
ATOM      9  C   UNL     1      35.095  21.943  12.476  0.00  0.00    +0.013 A 
ATOM     10  C   UNL     1      35.146  22.272  13.832  0.00  0.00    +0.002 A 
ATOM     11  C   UNL     1      33.968  22.387  14.564  0.00  0.00    +0.015 A 
ATOM     12  C   UNL     1      32.734  22.212  13.933  0.00  0.00    +0.017 A 
ATOM     13  C   UNL     1      32.700  21.771  12.601  0.00  0.00    +0.028 A 
BRANCH  12  14
ATOM     14  S   UNL     1      31.212  22.524  14.803  0.00  0.00    -0.016 S 
BRANCH  14  15
ATOM     15  C   UNL     1      30.398  20.917  14.676  0.00  0.00    +0.448 C 
ATOM     16  F   UNL     1      29.362  20.754  15.533  0.00  0.00    -0.160 F 
ATOM     17  F   UNL     1      29.913  20.717  13.427  0.00  0.00    -0.160 F 
ATOM     18  F   UNL     1      31.277  19.915  14.928  0.00  0.00    -0.160 F 
ENDBRANCH  14  15
ENDBRANCH  12  14
ENDBRANCH   5   8
BRANCH   1  20
ATOM     19  N   UNL     1      34.421  24.105   5.370  0.00  0.00    -0.329 N 
ATOM     20  C   UNL     1      34.620  23.211   6.376  0.00  0.00    +0.215 C 
ATOM     21  O   UNL     1      35.759  22.843   6.647  0.00  0.00    -0.276 OA
ATOM     22  H   UNL     1      35.251  24.470   4.921  0.00  0.00    +0.145 HD
ATOM     23  H   UNL     1      33.538  24.567   5.201  0.00  0.00    +0.145 HD
ENDBRANCH   1  20
TORSDOF 4
ENDMDL
MODEL 9
REMARK VINA RESULT:      -5.1      5.366      6.711
REMARK  Name = ZINC000826139982
REMARK  4 active torsions:
REMARK  status: ('A' for Active; 'I' for Inactive)
REMARK    1  A    between atoms: C_2  and  C_4
REMARK    2  A    between atoms: C_8  and  C_10
REMARK    3  A    between atoms: C_14  and  S_15
REMARK    4  A    between atoms: S_15  and  C_16
REMARK                            x       y       z     vdW  Elec       q    Type
REMARK                         _______ _______ _______ _____ _____    ______ ____
ROOT
ATOM      1  C   UNL     1      33.137  24.171   8.679  0.00  0.00    +0.093 C 
ATOM      2  C   UNL     1      32.630  24.156  10.121  0.00  0.00    +0.033 C 
ATOM      3  C   UNL     1      33.589  23.180  10.785  0.00  0.00    +0.109 C 
ATOM      4  N   UNL     1      33.688  22.121   9.790  0.00  0.00    -0.297 N 
ATOM      5  C   UNL     1      33.960  20.765   9.917  0.00  0.00    +0.247 C 
ATOM      6  O   UNL     1      34.129  20.059   8.918  0.00  0.00    -0.270 OA
ATOM      7  C   UNL     1      33.595  22.722   8.457  0.00  0.00    +0.120 C 
ENDROOT
BRANCH   5   8
ATOM      8  C   UNL     1      34.085  20.105  11.252  0.00  0.00    +0.038 A 
ATOM      9  C   UNL     1      35.295  19.959  11.931  0.00  0.00    +0.013 A 
ATOM     10  C   UNL     1      35.362  19.253  13.133  0.00  0.00    +0.002 A 
ATOM     11  C   UNL     1      34.194  18.806  13.743  0.00  0.00    +0.015 A 
ATOM     12  C   UNL     1      32.952  19.099  13.172  0.00  0.00    +0.017 A 
ATOM     13  C   UNL     1      32.905  19.708  11.909  0.00  0.00    +0.028 A 
BRANCH  12  14
ATOM     14  S   UNL     1      31.440  18.692  14.018  0.00  0.00    -0.016 S 
BRANCH  14  15
ATOM     15  C   UNL     1      30.796  20.336  14.400  0.00  0.00    +0.448 C 
ATOM     16  F   UNL     1      30.047  20.879  13.410  0.00  0.00    -0.160 F 
ATOM     17  F   UNL     1      30.022  20.307  15.511  0.00  0.00    -0.160 F 
ATOM     18  F   UNL     1      31.811  21.201  14.644  0.00  0.00    -0.160 F 
ENDBRANCH  14  15
ENDBRANCH  12  14
ENDBRANCH   5   8
BRANCH   1  20
ATOM     19  N   UNL     1      35.220  24.888   7.610  0.00  0.00    -0.329 N 
ATOM     20  C   UNL     1      34.255  25.190   8.520  0.00  0.00    +0.215 C 
ATOM     21  O   UNL     1      34.301  26.258   9.125  0.00  0.00    -0.276 OA
ATOM     22  H   UNL     1      35.915  25.603   7.437  0.00  0.00    +0.145 HD
ATOM     23  H   UNL     1      35.158  24.110   6.969  0.00  0.00    +0.145 HD
ENDBRANCH   1  20
TORSDOF 4
ENDMDL
