MODEL 1
REMARK VINA RESULT:      -6.8      0.000      0.000
REMARK  Name = ZINC001228612316
REMARK  5 active torsions:
REMARK  status: ('A' for Active; 'I' for Inactive)
REMARK    1  A    between atoms: C_2  and  C_4
REMARK    2  A    between atoms: C_8  and  O_9
REMARK    3  A    between atoms: O_9  and  C_10
REMARK    4  A    between atoms: C_10  and  C_11
REMARK    5  A    between atoms: C_10  and  C_17
REMARK                            x       y       z     vdW  Elec       q    Type
REMARK                         _______ _______ _______ _____ _____    ______ ____
ROOT
ATOM      1  C   UNL     1      27.152  22.417  17.444  0.00  0.00    +0.040 A 
ATOM      2  C   UNL     1      26.523  21.223  17.072  0.00  0.00    +0.013 A 
ATOM      3  C   UNL     1      27.146  20.356  16.173  0.00  0.00    +0.004 A 
ATOM      4  C   UNL     1      28.399  20.674  15.642  0.00  0.00    +0.046 A 
ATOM      5  C   UNL     1      29.033  21.863  16.003  0.00  0.00    +0.122 A 
ATOM      6  C   UNL     1      28.406  22.730  16.907  0.00  0.00    +0.058 A 
ENDROOT
BRANCH   1   8
ATOM      7  N   UNL     1      27.112  24.427  18.832  0.00  0.00    -0.325 N 
ATOM      8  C   UNL     1      26.455  23.299  18.419  0.00  0.00    +0.242 C 
ATOM      9  O   UNL     1      25.321  23.055  18.813  0.00  0.00    -0.270 OA
ATOM     10  H   UNL     1      26.580  25.065  19.410  0.00  0.00    +0.145 HD
ATOM     11  H   UNL     1      27.927  24.788  18.362  0.00  0.00    +0.145 HD
ENDBRANCH   1   8
BRANCH   5  12
ATOM     12  O   UNL     1      30.221  22.317  15.498  0.00  0.00    -0.484 OA
BRANCH  12  13
ATOM     13  C   UNL     1      30.403  23.731  15.320  0.00  0.00    +0.208 C 
BRANCH  13  14
ATOM     14  C   UNL     1      31.608  24.279  16.060  0.00  0.00    +0.011 A 
ATOM     15  C   UNL     1      31.526  24.894  17.312  0.00  0.00    +0.010 A 
ATOM     16  C   UNL     1      32.692  25.290  17.964  0.00  0.00    +0.020 A 
ATOM     17  C   UNL     1      33.908  25.056  17.342  0.00  0.00    +0.111 A 
ATOM     18  N   UNL     1      34.029  24.475  16.131  0.00  0.00    -0.263 NA
ATOM     19  C   UNL     1      32.883  24.099  15.523  0.00  0.00    +0.118 A 
ENDBRANCH  13  14
BRANCH  13  20
ATOM     20  C   UNL     1      30.606  24.031  13.839  0.00  0.00    +0.034 C 
ATOM     21  C   UNL     1      29.879  25.180  13.183  0.00  0.00    +0.008 C 
ATOM     22  C   UNL     1      29.549  23.766  12.790  0.00  0.00    +0.008 C 
ENDBRANCH  13  20
ENDBRANCH  12  13
ENDBRANCH   5  12
TORSDOF 5
ENDMDL
MODEL 2
REMARK VINA RESULT:      -6.7      2.643      6.766
REMARK  Name = ZINC001228612316
REMARK  5 active torsions:
REMARK  status: ('A' for Active; 'I' for Inactive)
REMARK    1  A    between atoms: C_2  and  C_4
REMARK    2  A    between atoms: C_8  and  O_9
REMARK    3  A    between atoms: O_9  and  C_10
REMARK    4  A    between atoms: C_10  and  C_11
REMARK    5  A    between atoms: C_10  and  C_17
REMARK                            x       y       z     vdW  Elec       q    Type
REMARK                         _______ _______ _______ _____ _____    ______ ____
ROOT
ATOM      1  C   UNL     1      31.876  24.107  11.768  0.00  0.00    +0.040 A 
ATOM      2  C   UNL     1      30.959  25.144  11.563  0.00  0.00    +0.013 A 
ATOM      3  C   UNL     1      29.804  25.221  12.342  0.00  0.00    +0.004 A 
ATOM      4  C   UNL     1      29.557  24.264  13.331  0.00  0.00    +0.046 A 
ATOM      5  C   UNL     1      30.462  23.224  13.541  0.00  0.00    +0.122 A 
ATOM      6  C   UNL     1      31.621  23.151  12.759  0.00  0.00    +0.058 A 
ENDROOT
BRANCH   1   8
ATOM      7  N   UNL     1      33.304  25.131  10.072  0.00  0.00    -0.325 N 
ATOM      8  C   UNL     1      33.100  24.080  10.924  0.00  0.00    +0.242 C 
ATOM      9  O   UNL     1      33.920  23.173  11.008  0.00  0.00    -0.270 OA
ATOM     10  H   UNL     1      34.193  25.144   9.586  0.00  0.00    +0.145 HD
ATOM     11  H   UNL     1      32.794  25.998  10.141  0.00  0.00    +0.145 HD
ENDBRANCH   1   8
BRANCH   5  12
ATOM     12  O   UNL     1      30.297  22.191  14.424  0.00  0.00    -0.484 OA
BRANCH  12  13
ATOM     13  C   UNL     1      30.055  22.495  15.808  0.00  0.00    +0.208 C 
BRANCH  13  14
ATOM     14  C   UNL     1      28.651  22.143  16.262  0.00  0.00    +0.011 A 
ATOM     15  C   UNL     1      28.049  20.908  16.008  0.00  0.00    +0.010 A 
ATOM     16  C   UNL     1      26.790  20.633  16.537  0.00  0.00    +0.020 A 
ATOM     17  C   UNL     1      26.171  21.604  17.308  0.00  0.00    +0.111 A 
ATOM     18  N   UNL     1      26.713  22.810  17.568  0.00  0.00    -0.263 NA
ATOM     19  C   UNL     1      27.935  23.049  17.044  0.00  0.00    +0.118 A 
ENDBRANCH  13  14
BRANCH  13  20
ATOM     20  C   UNL     1      31.024  21.699  16.676  0.00  0.00    +0.034 C 
ATOM     21  C   UNL     1      31.502  22.253  17.997  0.00  0.00    +0.008 C 
ATOM     22  C   UNL     1      32.475  22.086  16.862  0.00  0.00    +0.008 C 
ENDBRANCH  13  20
ENDBRANCH  12  13
ENDBRANCH   5  12
TORSDOF 5
ENDMDL
MODEL 3
REMARK VINA RESULT:      -6.7      1.878      3.292
REMARK  Name = ZINC001228612316
REMARK  5 active torsions:
REMARK  status: ('A' for Active; 'I' for Inactive)
REMARK    1  A    between atoms: C_2  and  C_4
REMARK    2  A    between atoms: C_8  and  O_9
REMARK    3  A    between atoms: O_9  and  C_10
REMARK    4  A    between atoms: C_10  and  C_11
REMARK    5  A    between atoms: C_10  and  C_17
REMARK                            x       y       z     vdW  Elec       q    Type
REMARK                         _______ _______ _______ _____ _____    ______ ____
ROOT
ATOM      1  C   UNL     1      26.603  22.201  17.332  0.00  0.00    +0.040 A 
ATOM      2  C   UNL     1      26.476  20.851  16.987  0.00  0.00    +0.013 A 
ATOM      3  C   UNL     1      27.482  20.218  16.257  0.00  0.00    +0.004 A 
ATOM      4  C   UNL     1      28.621  20.927  15.867  0.00  0.00    +0.046 A 
ATOM      5  C   UNL     1      28.758  22.274  16.201  0.00  0.00    +0.122 A 
ATOM      6  C   UNL     1      27.747  22.906  16.936  0.00  0.00    +0.058 A 
ENDROOT
BRANCH   1   8
ATOM      7  N   UNL     1      25.869  23.735  19.085  0.00  0.00    -0.325 N 
ATOM      8  C   UNL     1      25.512  22.826  18.126  0.00  0.00    +0.242 C 
ATOM      9  O   UNL     1      24.333  22.572  17.913  0.00  0.00    -0.270 OA
ATOM     10  H   UNL     1      25.108  24.225  19.539  0.00  0.00    +0.145 HD
ATOM     11  H   UNL     1      26.788  24.148  19.132  0.00  0.00    +0.145 HD
ENDBRANCH   1   8
BRANCH   5  12
ATOM     12  O   UNL     1      29.786  23.090  15.816  0.00  0.00    -0.484 OA
BRANCH  12  13
ATOM     13  C   UNL     1      30.792  22.568  14.932  0.00  0.00    +0.208 C 
BRANCH  13  14
ATOM     14  C   UNL     1      30.935  23.366  13.650  0.00  0.00    +0.011 A 
ATOM     15  C   UNL     1      29.885  24.083  13.070  0.00  0.00    +0.010 A 
ATOM     16  C   UNL     1      30.123  24.862  11.940  0.00  0.00    +0.020 A 
ATOM     17  C   UNL     1      31.408  24.901  11.424  0.00  0.00    +0.111 A 
ATOM     18  N   UNL     1      32.446  24.218  11.948  0.00  0.00    -0.263 NA
ATOM     19  C   UNL     1      32.187  23.472  13.044  0.00  0.00    +0.118 A 
ENDBRANCH  13  14
BRANCH  13  20
ATOM     20  C   UNL     1      32.145  22.594  15.635  0.00  0.00    +0.034 C 
ATOM     21  C   UNL     1      32.979  21.340  15.738  0.00  0.00    +0.008 C 
ATOM     22  C   UNL     1      32.389  21.948  16.981  0.00  0.00    +0.008 C 
ENDBRANCH  13  20
ENDBRANCH  12  13
ENDBRANCH   5  12
TORSDOF 5
ENDMDL
MODEL 4
REMARK VINA RESULT:      -6.6      2.636      5.760
REMARK  Name = ZINC001228612316
REMARK  5 active torsions:
REMARK  status: ('A' for Active; 'I' for Inactive)
REMARK    1  A    between atoms: C_2  and  C_4
REMARK    2  A    between atoms: C_8  and  O_9
REMARK    3  A    between atoms: O_9  and  C_10
REMARK    4  A    between atoms: C_10  and  C_11
REMARK    5  A    between atoms: C_10  and  C_17
REMARK                            x       y       z     vdW  Elec       q    Type
REMARK                         _______ _______ _______ _____ _____    ______ ____
ROOT
ATOM      1  C   UNL     1      31.741  23.546  12.247  0.00  0.00    +0.040 A 
ATOM      2  C   UNL     1      31.126  24.417  11.342  0.00  0.00    +0.013 A 
ATOM      3  C   UNL     1      30.048  25.203  11.750  0.00  0.00    +0.004 A 
ATOM      4  C   UNL     1      29.577  25.125  13.063  0.00  0.00    +0.046 A 
ATOM      5  C   UNL     1      30.180  24.257  13.974  0.00  0.00    +0.122 A 
ATOM      6  C   UNL     1      31.264  23.471  13.561  0.00  0.00    +0.058 A 
ENDROOT
BRANCH   1   8
ATOM      7  N   UNL     1      32.788  22.144  10.542  0.00  0.00    -0.325 N 
ATOM      8  C   UNL     1      32.898  22.743  11.768  0.00  0.00    +0.242 C 
ATOM      9  O   UNL     1      33.930  22.645  12.422  0.00  0.00    -0.270 OA
ATOM     10  H   UNL     1      33.624  21.693  10.191  0.00  0.00    +0.145 HD
ATOM     11  H   UNL     1      32.072  22.389   9.877  0.00  0.00    +0.145 HD
ENDBRANCH   1   8
BRANCH   5  12
ATOM     12  O   UNL     1      29.766  24.038  15.260  0.00  0.00    -0.484 OA
BRANCH  12  13
ATOM     13  C   UNL     1      29.994  22.749  15.851  0.00  0.00    +0.208 C 
BRANCH  13  14
ATOM     14  C   UNL     1      30.835  22.807  17.111  0.00  0.00    +0.011 A 
ATOM     15  C   UNL     1      31.995  22.050  17.295  0.00  0.00    +0.010 A 
ATOM     16  C   UNL     1      32.759  22.228  18.447  0.00  0.00    +0.020 A 
ATOM     17  C   UNL     1      32.339  23.162  19.380  0.00  0.00    +0.111 A 
ATOM     18  N   UNL     1      31.222  23.904  19.245  0.00  0.00    -0.263 NA
ATOM     19  C   UNL     1      30.501  23.712  18.119  0.00  0.00    +0.118 A 
ENDBRANCH  13  14
BRANCH  13  20
ATOM     20  C   UNL     1      28.654  22.124  16.229  0.00  0.00    +0.034 C 
ATOM     21  C   UNL     1      28.597  20.743  16.838  0.00  0.00    +0.008 C 
ATOM     22  C   UNL     1      28.033  20.977  15.463  0.00  0.00    +0.008 C 
ENDBRANCH  13  20
ENDBRANCH  12  13
ENDBRANCH   5  12
TORSDOF 5
ENDMDL
MODEL 5
REMARK VINA RESULT:      -6.3      2.574      4.017
REMARK  Name = ZINC001228612316
REMARK  5 active torsions:
REMARK  status: ('A' for Active; 'I' for Inactive)
REMARK    1  A    between atoms: C_2  and  C_4
REMARK    2  A    between atoms: C_8  and  O_9
REMARK    3  A    between atoms: O_9  and  C_10
REMARK    4  A    between atoms: C_10  and  C_11
REMARK    5  A    between atoms: C_10  and  C_17
REMARK                            x       y       z     vdW  Elec       q    Type
REMARK                         _______ _______ _______ _____ _____    ______ ____
ROOT
ATOM      1  C   UNL     1      27.584  20.387  17.076  0.00  0.00    +0.040 A 
ATOM      2  C   UNL     1      26.356  20.988  17.373  0.00  0.00    +0.013 A 
ATOM      3  C   UNL     1      26.225  22.376  17.317  0.00  0.00    +0.004 A 
ATOM      4  C   UNL     1      27.319  23.172  16.965  0.00  0.00    +0.046 A 
ATOM      5  C   UNL     1      28.549  22.584  16.671  0.00  0.00    +0.122 A 
ATOM      6  C   UNL     1      28.676  21.190  16.725  0.00  0.00    +0.058 A 
ENDROOT
BRANCH   1   8
ATOM      7  N   UNL     1      27.834  18.325  18.362  0.00  0.00    -0.325 N 
ATOM      8  C   UNL     1      27.667  18.902  17.132  0.00  0.00    +0.242 C 
ATOM      9  O   UNL     1      27.553  18.212  16.126  0.00  0.00    -0.270 OA
ATOM     10  H   UNL     1      27.781  17.314  18.389  0.00  0.00    +0.145 HD
ATOM     11  H   UNL     1      27.693  18.826  19.225  0.00  0.00    +0.145 HD
ENDBRANCH   1   8
BRANCH   5  12
ATOM     12  O   UNL     1      29.706  23.257  16.385  0.00  0.00    -0.484 OA
BRANCH  12  13
ATOM     13  C   UNL     1      30.596  22.715  15.397  0.00  0.00    +0.208 C 
BRANCH  13  14
ATOM     14  C   UNL     1      30.580  23.483  14.089  0.00  0.00    +0.011 A 
ATOM     15  C   UNL     1      29.732  24.567  13.846  0.00  0.00    +0.010 A 
ATOM     16  C   UNL     1      29.842  25.274  12.650  0.00  0.00    +0.020 A 
ATOM     17  C   UNL     1      30.801  24.875  11.734  0.00  0.00    +0.111 A 
ATOM     18  N   UNL     1      31.631  23.830  11.926  0.00  0.00    -0.263 NA
ATOM     19  C   UNL     1      31.504  23.164  13.094  0.00  0.00    +0.118 A 
ENDBRANCH  13  14
BRANCH  13  20
ATOM     20  C   UNL     1      32.025  22.757  15.928  0.00  0.00    +0.034 C 
ATOM     21  C   UNL     1      32.874  21.508  15.944  0.00  0.00    +0.008 C 
ATOM     22  C   UNL     1      32.437  22.130  17.242  0.00  0.00    +0.008 C 
ENDBRANCH  13  20
ENDBRANCH  12  13
ENDBRANCH   5  12
TORSDOF 5
ENDMDL
MODEL 6
REMARK VINA RESULT:      -6.3      3.278      6.032
REMARK  Name = ZINC001228612316
REMARK  5 active torsions:
REMARK  status: ('A' for Active; 'I' for Inactive)
REMARK    1  A    between atoms: C_2  and  C_4
REMARK    2  A    between atoms: C_8  and  O_9
REMARK    3  A    between atoms: O_9  and  C_10
REMARK    4  A    between atoms: C_10  and  C_11
REMARK    5  A    between atoms: C_10  and  C_17
REMARK                            x       y       z     vdW  Elec       q    Type
REMARK                         _______ _______ _______ _____ _____    ______ ____
ROOT
ATOM      1  C   UNL     1      31.569  24.591  11.662  0.00  0.00    +0.040 A 
ATOM      2  C   UNL     1      30.433  25.401  11.771  0.00  0.00    +0.013 A 
ATOM      3  C   UNL     1      29.575  25.260  12.862  0.00  0.00    +0.004 A 
ATOM      4  C   UNL     1      29.846  24.311  13.852  0.00  0.00    +0.046 A 
ATOM      5  C   UNL     1      30.973  23.495  13.753  0.00  0.00    +0.122 A 
ATOM      6  C   UNL     1      31.833  23.641  12.657  0.00  0.00    +0.058 A 
ENDROOT
BRANCH   1   8
ATOM      7  N   UNL     1      32.435  23.842   9.504  0.00  0.00    -0.325 N 
ATOM      8  C   UNL     1      32.462  24.792  10.489  0.00  0.00    +0.242 C 
ATOM      9  O   UNL     1      33.170  25.786  10.381  0.00  0.00    -0.270 OA
ATOM     10  H   UNL     1      32.968  24.051   8.670  0.00  0.00    +0.145 HD
ATOM     11  H   UNL     1      31.708  23.147   9.435  0.00  0.00    +0.145 HD
ENDBRANCH   1   8
BRANCH   5  12
ATOM     12  O   UNL     1      31.304  22.486  14.615  0.00  0.00    -0.484 OA
BRANCH  12  13
ATOM     13  C   UNL     1      32.380  22.694  15.544  0.00  0.00    +0.208 C 
BRANCH  13  14
ATOM     14  C   UNL     1      31.974  23.504  16.760  0.00  0.00    +0.011 A 
ATOM     15  C   UNL     1      32.469  24.783  17.030  0.00  0.00    +0.010 A 
ATOM     16  C   UNL     1      31.977  25.496  18.122  0.00  0.00    +0.020 A 
ATOM     17  C   UNL     1      31.002  24.907  18.910  0.00  0.00    +0.111 A 
ATOM     18  N   UNL     1      30.506  23.673  18.689  0.00  0.00    -0.263 NA
ATOM     19  C   UNL     1      30.999  23.005  17.623  0.00  0.00    +0.118 A 
ENDBRANCH  13  14
BRANCH  13  20
ATOM     20  C   UNL     1      32.881  21.343  16.047  0.00  0.00    +0.034 C 
ATOM     21  C   UNL     1      34.218  21.230  16.739  0.00  0.00    +0.008 C 
ATOM     22  C   UNL     1      34.017  20.588  15.393  0.00  0.00    +0.008 C 
ENDBRANCH  13  20
ENDBRANCH  12  13
ENDBRANCH   5  12
TORSDOF 5
ENDMDL
MODEL 7
REMARK VINA RESULT:      -6.2      2.017      3.027
REMARK  Name = ZINC001228612316
REMARK  5 active torsions:
REMARK  status: ('A' for Active; 'I' for Inactive)
REMARK    1  A    between atoms: C_2  and  C_4
REMARK    2  A    between atoms: C_8  and  O_9
REMARK    3  A    between atoms: O_9  and  C_10
REMARK    4  A    between atoms: C_10  and  C_11
REMARK    5  A    between atoms: C_10  and  C_17
REMARK                            x       y       z     vdW  Elec       q    Type
REMARK                         _______ _______ _______ _____ _____    ______ ____
ROOT
ATOM      1  C   UNL     1      26.735  22.148  17.223  0.00  0.00    +0.040 A 
ATOM      2  C   UNL     1      26.620  20.786  16.924  0.00  0.00    +0.013 A 
ATOM      3  C   UNL     1      27.617  20.145  16.188  0.00  0.00    +0.004 A 
ATOM      4  C   UNL     1      28.735  20.858  15.746  0.00  0.00    +0.046 A 
ATOM      5  C   UNL     1      28.859  22.217  16.034  0.00  0.00    +0.122 A 
ATOM      6  C   UNL     1      27.857  22.858  16.776  0.00  0.00    +0.058 A 
ENDROOT
BRANCH   1   8
ATOM      7  N   UNL     1      24.387  22.755  17.511  0.00  0.00    -0.325 N 
ATOM      8  C   UNL     1      25.655  22.782  18.025  0.00  0.00    +0.242 C 
ATOM      9  O   UNL     1      25.874  23.278  19.124  0.00  0.00    -0.270 OA
ATOM     10  H   UNL     1      23.653  23.096  18.119  0.00  0.00    +0.145 HD
ATOM     11  H   UNL     1      24.121  22.159  16.742  0.00  0.00    +0.145 HD
ENDBRANCH   1   8
BRANCH   5  12
ATOM     12  O   UNL     1      29.865  23.035  15.598  0.00  0.00    -0.484 OA
BRANCH  12  13
ATOM     13  C   UNL     1      31.119  23.027  16.300  0.00  0.00    +0.208 C 
BRANCH  13  14
ATOM     14  C   UNL     1      32.191  22.212  15.604  0.00  0.00    +0.011 A 
ATOM     15  C   UNL     1      33.014  21.299  16.269  0.00  0.00    +0.010 A 
ATOM     16  C   UNL     1      33.915  20.525  15.541  0.00  0.00    +0.020 A 
ATOM     17  C   UNL     1      33.962  20.686  14.165  0.00  0.00    +0.111 A 
ATOM     18  N   UNL     1      33.192  21.562  13.488  0.00  0.00    -0.263 NA
ATOM     19  C   UNL     1      32.328  22.298  14.218  0.00  0.00    +0.118 A 
ENDBRANCH  13  14
BRANCH  13  20
ATOM     20  C   UNL     1      31.640  24.456  16.418  0.00  0.00    +0.034 C 
ATOM     21  C   UNL     1      32.999  24.729  17.018  0.00  0.00    +0.008 C 
ATOM     22  C   UNL     1      31.759  25.186  17.737  0.00  0.00    +0.008 C 
ENDBRANCH  13  20
ENDBRANCH  12  13
ENDBRANCH   5  12
TORSDOF 5
ENDMDL
MODEL 8
REMARK VINA RESULT:      -6.2      2.565      6.196
REMARK  Name = ZINC001228612316
REMARK  5 active torsions:
REMARK  status: ('A' for Active; 'I' for Inactive)
REMARK    1  A    between atoms: C_2  and  C_4
REMARK    2  A    between atoms: C_8  and  O_9
REMARK    3  A    between atoms: O_9  and  C_10
REMARK    4  A    between atoms: C_10  and  C_11
REMARK    5  A    between atoms: C_10  and  C_17
REMARK                            x       y       z     vdW  Elec       q    Type
REMARK                         _______ _______ _______ _____ _____    ______ ____
ROOT
ATOM      1  C   UNL     1      33.085  25.180  19.142  0.00  0.00    +0.040 A 
ATOM      2  C   UNL     1      33.874  24.064  19.443  0.00  0.00    +0.013 A 
ATOM      3  C   UNL     1      33.366  22.778  19.257  0.00  0.00    +0.004 A 
ATOM      4  C   UNL     1      32.069  22.597  18.769  0.00  0.00    +0.046 A 
ATOM      5  C   UNL     1      31.272  23.702  18.469  0.00  0.00    +0.122 A 
ATOM      6  C   UNL     1      31.785  24.992  18.655  0.00  0.00    +0.058 A 
ENDROOT
BRANCH   1   8
ATOM      7  N   UNL     1      32.896  27.482  19.938  0.00  0.00    -0.325 N 
ATOM      8  C   UNL     1      33.678  26.530  19.340  0.00  0.00    +0.242 C 
ATOM      9  O   UNL     1      34.833  26.780  19.020  0.00  0.00    -0.270 OA
ATOM     10  H   UNL     1      33.353  28.358  20.159  0.00  0.00    +0.145 HD
ATOM     11  H   UNL     1      32.043  27.260  20.428  0.00  0.00    +0.145 HD
ENDBRANCH   1   8
BRANCH   5  12
ATOM     12  O   UNL     1      29.968  23.654  18.056  0.00  0.00    -0.484 OA
BRANCH  12  13
ATOM     13  C   UNL     1      29.626  22.821  16.937  0.00  0.00    +0.208 C 
BRANCH  13  14
ATOM     14  C   UNL     1      28.196  22.316  16.980  0.00  0.00    +0.011 A 
ATOM     15  C   UNL     1      27.825  21.028  16.586  0.00  0.00    +0.010 A 
ATOM     16  C   UNL     1      26.504  20.613  16.741  0.00  0.00    +0.020 A 
ATOM     17  C   UNL     1      25.593  21.502  17.289  0.00  0.00    +0.111 A 
ATOM     18  N   UNL     1      25.908  22.756  17.672  0.00  0.00    -0.263 NA
ATOM     19  C   UNL     1      27.196  23.131  17.512  0.00  0.00    +0.118 A 
ENDBRANCH  13  14
BRANCH  13  20
ATOM     20  C   UNL     1      29.785  23.619  15.647  0.00  0.00    +0.034 C 
ATOM     21  C   UNL     1      29.967  22.911  14.325  0.00  0.00    +0.008 C 
ATOM     22  C   UNL     1      31.095  23.725  14.898  0.00  0.00    +0.008 C 
ENDBRANCH  13  20
ENDBRANCH  12  13
ENDBRANCH   5  12
TORSDOF 5
ENDMDL
MODEL 9
REMARK VINA RESULT:      -6.2      2.648      3.564
REMARK  Name = ZINC001228612316
REMARK  5 active torsions:
REMARK  status: ('A' for Active; 'I' for Inactive)
REMARK    1  A    between atoms: C_2  and  C_4
REMARK    2  A    between atoms: C_8  and  O_9
REMARK    3  A    between atoms: O_9  and  C_10
REMARK    4  A    between atoms: C_10  and  C_11
REMARK    5  A    between atoms: C_10  and  C_17
REMARK                            x       y       z     vdW  Elec       q    Type
REMARK                         _______ _______ _______ _____ _____    ______ ____
ROOT
ATOM      1  C   UNL     1      29.527  22.737  16.953  0.00  0.00    +0.040 A 
ATOM      2  C   UNL     1      28.309  22.057  16.844  0.00  0.00    +0.013 A 
ATOM      3  C   UNL     1      27.993  21.372  15.670  0.00  0.00    +0.004 A 
ATOM      4  C   UNL     1      28.890  21.360  14.599  0.00  0.00    +0.046 A 
ATOM      5  C   UNL     1      30.106  22.037  14.694  0.00  0.00    +0.122 A 
ATOM      6  C   UNL     1      30.421  22.722  15.875  0.00  0.00    +0.058 A 
ENDROOT
BRANCH   1   8
ATOM      7  N   UNL     1      28.846  24.236  18.757  0.00  0.00    -0.325 N 
ATOM      8  C   UNL     1      29.826  23.438  18.231  0.00  0.00    +0.242 C 
ATOM      9  O   UNL     1      30.890  23.283  18.817  0.00  0.00    -0.270 OA
ATOM     10  H   UNL     1      29.030  24.617  19.677  0.00  0.00    +0.145 HD
ATOM     11  H   UNL     1      27.888  24.204  18.445  0.00  0.00    +0.145 HD
ENDBRANCH   1   8
BRANCH   5  12
ATOM     12  O   UNL     1      31.031  22.159  13.693  0.00  0.00    -0.484 OA
BRANCH  12  13
ATOM     13  C   UNL     1      31.444  23.474  13.288  0.00  0.00    +0.208 C 
BRANCH  13  14
ATOM     14  C   UNL     1      32.775  23.487  12.561  0.00  0.00    +0.011 A 
ATOM     15  C   UNL     1      33.842  24.312  12.928  0.00  0.00    +0.010 A 
ATOM     16  C   UNL     1      35.062  24.199  12.264  0.00  0.00    +0.020 A 
ATOM     17  C   UNL     1      35.177  23.260  11.252  0.00  0.00    +0.111 A 
ATOM     18  N   UNL     1      34.170  22.453  10.861  0.00  0.00    -0.263 NA
ATOM     19  C   UNL     1      33.000  22.583  11.523  0.00  0.00    +0.118 A 
ENDBRANCH  13  14
BRANCH  13  20
ATOM     20  C   UNL     1      30.404  24.060  12.338  0.00  0.00    +0.034 C 
ATOM     21  C   UNL     1      30.593  25.438  11.750  0.00  0.00    +0.008 C 
ATOM     22  C   UNL     1      29.475  25.189  12.726  0.00  0.00    +0.008 C 
ENDBRANCH  13  20
ENDBRANCH  12  13
ENDBRANCH   5  12
TORSDOF 5
ENDMDL
