MODEL 1
REMARK VINA RESULT:      -7.1      0.000      0.000
REMARK  Name = ZINC000870248439
REMARK  2 active torsions:
REMARK  status: ('A' for Active; 'I' for Inactive)
REMARK    1  A    between atoms: C_2  and  C_4
REMARK    2  A    between atoms: C_7  and  C_8
REMARK                            x       y       z     vdW  Elec       q    Type
REMARK                         _______ _______ _______ _____ _____    ______ ____
ROOT
ATOM      1  C   UNL     1      29.604  17.291  14.093  0.00  0.00    +0.247 C 
ATOM      2  O   UNL     1      28.966  16.277  13.810  0.00  0.00    -0.270 OA
ATOM      3  N   UNL     1      30.972  17.436  13.825  0.00  0.00    -0.297 N 
ATOM      4  C   UNL     1      31.779  18.616  14.121  0.00  0.00    +0.108 C 
ATOM      5  C   UNL     1      32.712  19.009  12.993  0.00  0.00    +0.026 C 
ATOM      6  C   UNL     1      33.575  17.834  12.502  0.00  0.00    -0.025 C 
ATOM      7  C   UNL     1      34.303  18.300  11.220  0.00  0.00    +0.017 C 
ATOM      8  C   UNL     1      35.255  17.272  10.624  0.00  0.00    +0.069 C 
ATOM      9  S   UNL     1      36.572  16.793  11.778  0.00  0.00    -0.161 S 
ATOM     10  C   UNL     1      35.565  16.356  13.219  0.00  0.00    +0.069 C 
ATOM     11  C   UNL     1      34.617  17.485  13.596  0.00  0.00    +0.017 C 
ATOM     12  C   UNL     1      32.618  16.651  12.183  0.00  0.00    +0.026 C 
ATOM     13  C   UNL     1      31.719  16.274  13.359  0.00  0.00    +0.108 C 
ENDROOT
BRANCH   1  17
ATOM     14  C   UNL     1      27.748  20.614  16.030  0.00  0.00    +0.037 A 
ATOM     15  C   UNL     1      27.409  19.318  16.419  0.00  0.00    +0.014 A 
ATOM     16  C   UNL     1      27.921  18.235  15.715  0.00  0.00    +0.014 A 
ATOM     17  C   UNL     1      28.860  18.430  14.694  0.00  0.00    +0.037 A 
ATOM     18  C   UNL     1      29.149  19.727  14.260  0.00  0.00    +0.014 A 
ATOM     19  C   UNL     1      28.582  20.820  14.923  0.00  0.00    +0.014 A 
BRANCH  14  21
ATOM     20  N   UNL     1      28.086  22.435  17.602  0.00  0.00    -0.325 N 
ATOM     21  C   UNL     1      27.213  21.776  16.776  0.00  0.00    +0.242 C 
ATOM     22  O   UNL     1      26.055  22.148  16.636  0.00  0.00    -0.270 OA
ATOM     23  H   UNL     1      27.726  23.284  18.029  0.00  0.00    +0.145 HD
ATOM     24  H   UNL     1      29.084  22.331  17.531  0.00  0.00    +0.145 HD
ENDBRANCH  14  21
ENDBRANCH   1  17
TORSDOF 2
ENDMDL
MODEL 2
REMARK VINA RESULT:      -6.9      5.036      6.158
REMARK  Name = ZINC000870248439
REMARK  2 active torsions:
REMARK  status: ('A' for Active; 'I' for Inactive)
REMARK    1  A    between atoms: C_2  and  C_4
REMARK    2  A    between atoms: C_7  and  C_8
REMARK                            x       y       z     vdW  Elec       q    Type
REMARK                         _______ _______ _______ _____ _____    ______ ____
ROOT
ATOM      1  C   UNL     1      30.840  22.584  14.472  0.00  0.00    +0.247 C 
ATOM      2  O   UNL     1      30.696  23.238  13.439  0.00  0.00    -0.270 OA
ATOM      3  N   UNL     1      31.970  22.687  15.294  0.00  0.00    -0.297 N 
ATOM      4  C   UNL     1      32.192  21.951  16.536  0.00  0.00    +0.108 C 
ATOM      5  C   UNL     1      32.747  22.809  17.655  0.00  0.00    +0.026 C 
ATOM      6  C   UNL     1      33.994  23.604  17.230  0.00  0.00    -0.025 C 
ATOM      7  C   UNL     1      34.319  24.596  18.370  0.00  0.00    +0.017 C 
ATOM      8  C   UNL     1      35.571  25.434  18.141  0.00  0.00    +0.069 C 
ATOM      9  S   UNL     1      37.062  24.416  17.949  0.00  0.00    -0.161 S 
ATOM     10  C   UNL     1      36.488  23.285  16.655  0.00  0.00    +0.069 C 
ATOM     11  C   UNL     1      35.176  22.619  17.042  0.00  0.00    +0.017 C 
ATOM     12  C   UNL     1      33.637  24.373  15.927  0.00  0.00    +0.026 C 
ATOM     13  C   UNL     1      33.110  23.462  14.819  0.00  0.00    +0.108 C 
ENDROOT
BRANCH   1  17
ATOM     14  C   UNL     1      27.828  19.938  15.945  0.00  0.00    +0.037 A 
ATOM     15  C   UNL     1      28.716  19.488  14.968  0.00  0.00    +0.014 A 
ATOM     16  C   UNL     1      29.620  20.378  14.403  0.00  0.00    +0.014 A 
ATOM     17  C   UNL     1      29.725  21.690  14.884  0.00  0.00    +0.037 A 
ATOM     18  C   UNL     1      28.793  22.160  15.814  0.00  0.00    +0.014 A 
ATOM     19  C   UNL     1      27.836  21.284  16.336  0.00  0.00    +0.014 A 
BRANCH  14  21
ATOM     20  N   UNL     1      27.330  18.212  17.580  0.00  0.00    -0.325 N 
ATOM     21  C   UNL     1      26.862  18.998  16.560  0.00  0.00    +0.242 C 
ATOM     22  O   UNL     1      25.696  18.949  16.192  0.00  0.00    -0.270 OA
ATOM     23  H   UNL     1      26.630  17.645  18.051  0.00  0.00    +0.145 HD
ATOM     24  H   UNL     1      28.179  18.417  18.078  0.00  0.00    +0.145 HD
ENDBRANCH  14  21
ENDBRANCH   1  17
TORSDOF 2
ENDMDL
MODEL 3
REMARK VINA RESULT:      -6.8      1.664      2.170
REMARK  Name = ZINC000870248439
REMARK  2 active torsions:
REMARK  status: ('A' for Active; 'I' for Inactive)
REMARK    1  A    between atoms: C_2  and  C_4
REMARK    2  A    between atoms: C_7  and  C_8
REMARK                            x       y       z     vdW  Elec       q    Type
REMARK                         _______ _______ _______ _____ _____    ______ ____
ROOT
ATOM      1  C   UNL     1      30.729  16.679  13.527  0.00  0.00    +0.247 C 
ATOM      2  O   UNL     1      30.209  16.035  12.616  0.00  0.00    -0.270 OA
ATOM      3  N   UNL     1      32.113  16.715  13.747  0.00  0.00    -0.297 N 
ATOM      4  C   UNL     1      32.791  17.470  14.798  0.00  0.00    +0.108 C 
ATOM      5  C   UNL     1      34.030  18.197  14.316  0.00  0.00    +0.026 C 
ATOM      6  C   UNL     1      35.000  17.275  13.557  0.00  0.00    -0.025 C 
ATOM      7  C   UNL     1      36.093  18.170  12.930  0.00  0.00    +0.017 C 
ATOM      8  C   UNL     1      37.181  17.410  12.182  0.00  0.00    +0.069 C 
ATOM      9  S   UNL     1      38.070  16.240  13.248  0.00  0.00    -0.161 S 
ATOM     10  C   UNL     1      36.662  15.339  13.946  0.00  0.00    +0.069 C 
ATOM     11  C   UNL     1      35.647  16.289  14.565  0.00  0.00    +0.017 C 
ATOM     12  C   UNL     1      34.187  16.552  12.446  0.00  0.00    +0.026 C 
ATOM     13  C   UNL     1      32.964  15.811  12.984  0.00  0.00    +0.108 C 
ENDROOT
BRANCH   1  17
ATOM     14  C   UNL     1      27.910  18.971  15.772  0.00  0.00    +0.037 A 
ATOM     15  C   UNL     1      28.811  19.626  14.931  0.00  0.00    +0.014 A 
ATOM     16  C   UNL     1      29.804  18.896  14.290  0.00  0.00    +0.014 A 
ATOM     17  C   UNL     1      29.838  17.499  14.390  0.00  0.00    +0.037 A 
ATOM     18  C   UNL     1      28.980  16.850  15.283  0.00  0.00    +0.014 A 
ATOM     19  C   UNL     1      28.023  17.591  15.983  0.00  0.00    +0.014 A 
BRANCH  14  21
ATOM     20  N   UNL     1      26.000  19.027  17.271  0.00  0.00    -0.325 N 
ATOM     21  C   UNL     1      26.844  19.737  16.457  0.00  0.00    +0.242 C 
ATOM     22  O   UNL     1      26.741  20.950  16.325  0.00  0.00    -0.270 OA
ATOM     23  H   UNL     1      25.338  19.584  17.805  0.00  0.00    +0.145 HD
ATOM     24  H   UNL     1      26.219  18.106  17.610  0.00  0.00    +0.145 HD
ENDBRANCH  14  21
ENDBRANCH   1  17
TORSDOF 2
ENDMDL
MODEL 4
REMARK VINA RESULT:      -6.7      4.376      5.922
REMARK  Name = ZINC000870248439
REMARK  2 active torsions:
REMARK  status: ('A' for Active; 'I' for Inactive)
REMARK    1  A    between atoms: C_2  and  C_4
REMARK    2  A    between atoms: C_7  and  C_8
REMARK                            x       y       z     vdW  Elec       q    Type
REMARK                         _______ _______ _______ _____ _____    ______ ____
ROOT
ATOM      1  C   UNL     1      31.546  22.003  14.603  0.00  0.00    +0.247 C 
ATOM      2  O   UNL     1      31.541  22.601  15.678  0.00  0.00    -0.270 OA
ATOM      3  N   UNL     1      32.178  22.498  13.454  0.00  0.00    -0.297 N 
ATOM      4  C   UNL     1      32.233  21.831  12.156  0.00  0.00    +0.108 C 
ATOM      5  C   UNL     1      33.602  21.883  11.507  0.00  0.00    +0.026 C 
ATOM      6  C   UNL     1      34.173  23.310  11.442  0.00  0.00    -0.025 C 
ATOM      7  C   UNL     1      35.643  23.198  10.978  0.00  0.00    +0.017 C 
ATOM      8  C   UNL     1      36.353  24.534  10.800  0.00  0.00    +0.069 C 
ATOM      9  S   UNL     1      35.541  25.596   9.573  0.00  0.00    -0.161 S 
ATOM     10  C   UNL     1      33.847  25.556  10.215  0.00  0.00    +0.069 C 
ATOM     11  C   UNL     1      33.359  24.128  10.406  0.00  0.00    +0.017 C 
ATOM     12  C   UNL     1      34.100  23.910  12.874  0.00  0.00    +0.026 C 
ATOM     13  C   UNL     1      32.695  23.861  13.474  0.00  0.00    +0.108 C 
ENDROOT
BRANCH   1  17
ATOM     14  C   UNL     1      29.646  18.184  14.811  0.00  0.00    +0.037 A 
ATOM     15  C   UNL     1      31.038  18.253  14.733  0.00  0.00    +0.014 A 
ATOM     16  C   UNL     1      31.652  19.485  14.548  0.00  0.00    +0.014 A 
ATOM     17  C   UNL     1      30.898  20.666  14.552  0.00  0.00    +0.037 A 
ATOM     18  C   UNL     1      29.502  20.593  14.563  0.00  0.00    +0.014 A 
ATOM     19  C   UNL     1      28.876  19.348  14.680  0.00  0.00    +0.014 A 
BRANCH  14  21
ATOM     20  N   UNL     1      28.661  16.166  13.886  0.00  0.00    -0.325 N 
ATOM     21  C   UNL     1      28.979  16.877  15.013  0.00  0.00    +0.242 C 
ATOM     22  O   UNL     1      28.750  16.443  16.135  0.00  0.00    -0.270 OA
ATOM     23  H   UNL     1      28.292  15.232  14.049  0.00  0.00    +0.145 HD
ATOM     24  H   UNL     1      29.071  16.358  12.988  0.00  0.00    +0.145 HD
ENDBRANCH  14  21
ENDBRANCH   1  17
TORSDOF 2
ENDMDL
MODEL 5
REMARK VINA RESULT:      -6.6      4.890      5.726
REMARK  Name = ZINC000870248439
REMARK  2 active torsions:
REMARK  status: ('A' for Active; 'I' for Inactive)
REMARK    1  A    between atoms: C_2  and  C_4
REMARK    2  A    between atoms: C_7  and  C_8
REMARK                            x       y       z     vdW  Elec       q    Type
REMARK                         _______ _______ _______ _____ _____    ______ ____
ROOT
ATOM      1  C   UNL     1      32.483  21.488  13.222  0.00  0.00    +0.247 C 
ATOM      2  O   UNL     1      32.980  20.363  13.265  0.00  0.00    -0.270 OA
ATOM      3  N   UNL     1      32.952  22.502  12.376  0.00  0.00    -0.297 N 
ATOM      4  C   UNL     1      32.397  23.849  12.268  0.00  0.00    +0.108 C 
ATOM      5  C   UNL     1      32.260  24.333  10.839  0.00  0.00    +0.026 C 
ATOM      6  C   UNL     1      33.563  24.185  10.035  0.00  0.00    -0.025 C 
ATOM      7  C   UNL     1      33.232  24.493   8.557  0.00  0.00    +0.017 C 
ATOM      8  C   UNL     1      34.431  24.450   7.618  0.00  0.00    +0.069 C 
ATOM      9  S   UNL     1      35.719  25.642   8.081  0.00  0.00    -0.161 S 
ATOM     10  C   UNL     1      35.927  25.198   9.825  0.00  0.00    +0.069 C 
ATOM     11  C   UNL     1      34.597  25.213  10.564  0.00  0.00    +0.017 C 
ATOM     12  C   UNL     1      34.044  22.715  10.189  0.00  0.00    +0.026 C 
ATOM     13  C   UNL     1      34.195  22.282  11.647  0.00  0.00    +0.108 C 
ENDROOT
BRANCH   1  17
ATOM     14  C   UNL     1      29.157  21.960  15.859  0.00  0.00    +0.037 A 
ATOM     15  C   UNL     1      28.975  21.313  14.637  0.00  0.00    +0.014 A 
ATOM     16  C   UNL     1      30.024  21.260  13.727  0.00  0.00    +0.014 A 
ATOM     17  C   UNL     1      31.290  21.749  14.071  0.00  0.00    +0.037 A 
ATOM     18  C   UNL     1      31.456  22.456  15.267  0.00  0.00    +0.014 A 
ATOM     19  C   UNL     1      30.383  22.571  16.155  0.00  0.00    +0.014 A 
BRANCH  14  21
ATOM     20  N   UNL     1      28.347  22.521  18.079  0.00  0.00    -0.325 N 
ATOM     21  C   UNL     1      28.048  22.019  16.840  0.00  0.00    +0.242 C 
ATOM     22  O   UNL     1      26.914  21.663  16.545  0.00  0.00    -0.270 OA
ATOM     23  H   UNL     1      27.554  22.642  18.704  0.00  0.00    +0.145 HD
ATOM     24  H   UNL     1      29.174  23.064  18.261  0.00  0.00    +0.145 HD
ENDBRANCH  14  21
ENDBRANCH   1  17
TORSDOF 2
ENDMDL
MODEL 6
REMARK VINA RESULT:      -6.6      2.912      3.871
REMARK  Name = ZINC000870248439
REMARK  2 active torsions:
REMARK  status: ('A' for Active; 'I' for Inactive)
REMARK    1  A    between atoms: C_2  and  C_4
REMARK    2  A    between atoms: C_7  and  C_8
REMARK                            x       y       z     vdW  Elec       q    Type
REMARK                         _______ _______ _______ _____ _____    ______ ____
ROOT
ATOM      1  C   UNL     1      33.124  16.824  14.355  0.00  0.00    +0.247 C 
ATOM      2  O   UNL     1      33.734  16.675  15.414  0.00  0.00    -0.270 OA
ATOM      3  N   UNL     1      33.426  16.106  13.190  0.00  0.00    -0.297 N 
ATOM      4  C   UNL     1      32.732  16.225  11.910  0.00  0.00    +0.108 C 
ATOM      5  C   UNL     1      32.442  14.891  11.254  0.00  0.00    +0.026 C 
ATOM      6  C   UNL     1      33.692  13.999  11.146  0.00  0.00    -0.025 C 
ATOM      7  C   UNL     1      33.223  12.602  10.678  0.00  0.00    +0.017 C 
ATOM      8  C   UNL     1      34.347  11.598  10.461  0.00  0.00    +0.069 C 
ATOM      9  S   UNL     1      35.541  12.150   9.209  0.00  0.00    -0.161 S 
ATOM     10  C   UNL     1      35.920  13.798   9.861  0.00  0.00    +0.069 C 
ATOM     11  C   UNL     1      34.653  14.608  10.093  0.00  0.00    +0.017 C 
ATOM     12  C   UNL     1      34.327  13.912  12.562  0.00  0.00    +0.026 C 
ATOM     13  C   UNL     1      34.628  15.281  13.170  0.00  0.00    +0.108 C 
ENDROOT
BRANCH   1  17
ATOM     14  C   UNL     1      29.900  19.607  14.667  0.00  0.00    +0.037 A 
ATOM     15  C   UNL     1      29.634  18.239  14.742  0.00  0.00    +0.014 A 
ATOM     16  C   UNL     1      30.661  17.329  14.525  0.00  0.00    +0.014 A 
ATOM     17  C   UNL     1      31.978  17.770  14.344  0.00  0.00    +0.037 A 
ATOM     18  C   UNL     1      32.234  19.138  14.203  0.00  0.00    +0.014 A 
ATOM     19  C   UNL     1      31.190  20.056  14.353  0.00  0.00    +0.014 A 
BRANCH  14  21
ATOM     20  N   UNL     1      29.036  21.868  14.467  0.00  0.00    -0.325 N 
ATOM     21  C   UNL     1      28.815  20.588  14.902  0.00  0.00    +0.242 C 
ATOM     22  O   UNL     1      27.761  20.261  15.433  0.00  0.00    -0.270 OA
ATOM     23  H   UNL     1      28.245  22.500  14.551  0.00  0.00    +0.145 HD
ATOM     24  H   UNL     1      29.752  22.099  13.800  0.00  0.00    +0.145 HD
ENDBRANCH  14  21
ENDBRANCH   1  17
TORSDOF 2
ENDMDL
MODEL 7
REMARK VINA RESULT:      -6.5      1.737      2.312
REMARK  Name = ZINC000870248439
REMARK  2 active torsions:
REMARK  status: ('A' for Active; 'I' for Inactive)
REMARK    1  A    between atoms: C_2  and  C_4
REMARK    2  A    between atoms: C_7  and  C_8
REMARK                            x       y       z     vdW  Elec       q    Type
REMARK                         _______ _______ _______ _____ _____    ______ ____
ROOT
ATOM      1  C   UNL     1      30.998  16.987  13.363  0.00  0.00    +0.247 C 
ATOM      2  O   UNL     1      30.699  15.847  13.008  0.00  0.00    -0.270 OA
ATOM      3  N   UNL     1      32.147  17.653  12.916  0.00  0.00    -0.297 N 
ATOM      4  C   UNL     1      32.548  19.007  13.287  0.00  0.00    +0.108 C 
ATOM      5  C   UNL     1      33.035  19.836  12.116  0.00  0.00    +0.026 C 
ATOM      6  C   UNL     1      34.124  19.122  11.296  0.00  0.00    -0.025 C 
ATOM      7  C   UNL     1      34.365  19.959  10.019  0.00  0.00    +0.017 C 
ATOM      8  C   UNL     1      35.464  19.424   9.110  0.00  0.00    +0.069 C 
ATOM      9  S   UNL     1      37.075  19.339   9.943  0.00  0.00    -0.161 S 
ATOM     10  C   UNL     1      36.600  18.409  11.423  0.00  0.00    +0.069 C 
ATOM     11  C   UNL     1      35.426  19.062  12.136  0.00  0.00    +0.017 C 
ATOM     12  C   UNL     1      33.581  17.712  10.925  0.00  0.00    +0.026 C 
ATOM     13  C   UNL     1      33.130  16.905  12.141  0.00  0.00    +0.108 C 
ENDROOT
BRANCH   1  17
ATOM     14  C   UNL     1      28.035  18.982  15.705  0.00  0.00    +0.037 A 
ATOM     15  C   UNL     1      28.933  19.737  14.948  0.00  0.00    +0.014 A 
ATOM     16  C   UNL     1      29.969  19.099  14.279  0.00  0.00    +0.014 A 
ATOM     17  C   UNL     1      30.054  17.700  14.264  0.00  0.00    +0.037 A 
ATOM     18  C   UNL     1      29.198  16.948  15.074  0.00  0.00    +0.014 A 
ATOM     19  C   UNL     1      28.195  17.593  15.805  0.00  0.00    +0.014 A 
BRANCH  14  21
ATOM     20  N   UNL     1      26.151  18.862  17.232  0.00  0.00    -0.325 N 
ATOM     21  C   UNL     1      26.923  19.650  16.419  0.00  0.00    +0.242 C 
ATOM     22  O   UNL     1      26.722  20.852  16.310  0.00  0.00    -0.270 OA
ATOM     23  H   UNL     1      25.455  19.355  17.786  0.00  0.00    +0.145 HD
ATOM     24  H   UNL     1      26.448  17.956  17.552  0.00  0.00    +0.145 HD
ENDBRANCH  14  21
ENDBRANCH   1  17
TORSDOF 2
ENDMDL
MODEL 8
REMARK VINA RESULT:      -6.5      5.226      6.885
REMARK  Name = ZINC000870248439
REMARK  2 active torsions:
REMARK  status: ('A' for Active; 'I' for Inactive)
REMARK    1  A    between atoms: C_2  and  C_4
REMARK    2  A    between atoms: C_7  and  C_8
REMARK                            x       y       z     vdW  Elec       q    Type
REMARK                         _______ _______ _______ _____ _____    ______ ____
ROOT
ATOM      1  C   UNL     1      31.592  22.095  14.449  0.00  0.00    +0.247 C 
ATOM      2  O   UNL     1      31.302  22.906  13.569  0.00  0.00    -0.270 OA
ATOM      3  N   UNL     1      32.487  22.380  15.488  0.00  0.00    -0.297 N 
ATOM      4  C   UNL     1      32.860  21.469  16.568  0.00  0.00    +0.108 C 
ATOM      5  C   UNL     1      32.893  22.130  17.931  0.00  0.00    +0.026 C 
ATOM      6  C   UNL     1      33.741  23.413  17.948  0.00  0.00    -0.025 C 
ATOM      7  C   UNL     1      33.509  24.103  19.312  0.00  0.00    +0.017 C 
ATOM      8  C   UNL     1      34.323  25.372  19.526  0.00  0.00    +0.069 C 
ATOM      9  S   UNL     1      36.112  25.074  19.436  0.00  0.00    -0.161 S 
ATOM     10  C   UNL     1      36.192  24.211  17.844  0.00  0.00    +0.069 C 
ATOM     11  C   UNL     1      35.236  23.029  17.805  0.00  0.00    +0.017 C 
ATOM     12  C   UNL     1      33.240  24.321  16.789  0.00  0.00    +0.026 C 
ATOM     13  C   UNL     1      33.252  23.621  15.431  0.00  0.00    +0.108 C 
ENDROOT
BRANCH   1  17
ATOM     14  C   UNL     1      29.657  18.299  14.738  0.00  0.00    +0.037 A 
ATOM     15  C   UNL     1      31.003  18.356  14.375  0.00  0.00    +0.014 A 
ATOM     16  C   UNL     1      31.604  19.591  14.166  0.00  0.00    +0.014 A 
ATOM     17  C   UNL     1      30.906  20.777  14.426  0.00  0.00    +0.037 A 
ATOM     18  C   UNL     1      29.541  20.722  14.725  0.00  0.00    +0.014 A 
ATOM     19  C   UNL     1      28.914  19.480  14.869  0.00  0.00    +0.014 A 
BRANCH  14  21
ATOM     20  N   UNL     1      28.747  16.225  13.861  0.00  0.00    -0.325 N 
ATOM     21  C   UNL     1      29.005  16.990  14.969  0.00  0.00    +0.242 C 
ATOM     22  O   UNL     1      28.738  16.598  16.097  0.00  0.00    -0.270 OA
ATOM     23  H   UNL     1      28.388  15.293  14.048  0.00  0.00    +0.145 HD
ATOM     24  H   UNL     1      29.190  16.388  12.973  0.00  0.00    +0.145 HD
ENDBRANCH  14  21
ENDBRANCH   1  17
TORSDOF 2
ENDMDL
MODEL 9
REMARK VINA RESULT:      -6.4      5.699      8.274
REMARK  Name = ZINC000870248439
REMARK  2 active torsions:
REMARK  status: ('A' for Active; 'I' for Inactive)
REMARK    1  A    between atoms: C_2  and  C_4
REMARK    2  A    between atoms: C_7  and  C_8
REMARK                            x       y       z     vdW  Elec       q    Type
REMARK                         _______ _______ _______ _____ _____    ______ ____
ROOT
ATOM      1  C   UNL     1      30.530  22.697  16.242  0.00  0.00    +0.247 C 
ATOM      2  O   UNL     1      29.326  22.951  16.291  0.00  0.00    -0.270 OA
ATOM      3  N   UNL     1      31.387  22.834  17.342  0.00  0.00    -0.297 N 
ATOM      4  C   UNL     1      32.817  22.535  17.352  0.00  0.00    +0.108 C 
ATOM      5  C   UNL     1      33.267  21.775  18.582  0.00  0.00    +0.026 C 
ATOM      6  C   UNL     1      32.814  22.444  19.892  0.00  0.00    -0.025 C 
ATOM      7  C   UNL     1      33.132  21.465  21.045  0.00  0.00    +0.017 C 
ATOM      8  C   UNL     1      32.798  21.993  22.433  0.00  0.00    +0.069 C 
ATOM      9  S   UNL     1      33.701  23.517  22.833  0.00  0.00    -0.161 S 
ATOM     10  C   UNL     1      33.286  24.504  21.371  0.00  0.00    +0.069 C 
ATOM     11  C   UNL     1      33.613  23.757  20.087  0.00  0.00    +0.017 C 
ATOM     12  C   UNL     1      31.281  22.682  19.789  0.00  0.00    +0.026 C 
ATOM     13  C   UNL     1      30.879  23.477  18.548  0.00  0.00    +0.108 C 
ENDROOT
BRANCH   1  17
ATOM     14  C   UNL     1      32.394  21.114  12.741  0.00  0.00    +0.037 A 
ATOM     15  C   UNL     1      32.290  22.497  12.896  0.00  0.00    +0.014 A 
ATOM     16  C   UNL     1      31.582  23.014  13.974  0.00  0.00    +0.014 A 
ATOM     17  C   UNL     1      31.072  22.165  14.964  0.00  0.00    +0.037 A 
ATOM     18  C   UNL     1      31.117  20.780  14.777  0.00  0.00    +0.014 A 
ATOM     19  C   UNL     1      31.770  20.255  13.656  0.00  0.00    +0.014 A 
BRANCH  14  21
ATOM     20  N   UNL     1      32.683  20.843  10.345  0.00  0.00    -0.325 N 
ATOM     21  C   UNL     1      33.150  20.550  11.599  0.00  0.00    +0.242 C 
ATOM     22  O   UNL     1      34.160  19.879  11.769  0.00  0.00    -0.270 OA
ATOM     23  H   UNL     1      33.268  20.527   9.576  0.00  0.00    +0.145 HD
ATOM     24  H   UNL     1      32.040  21.595  10.167  0.00  0.00    +0.145 HD
ENDBRANCH  14  21
ENDBRANCH   1  17
TORSDOF 2
ENDMDL
