MODEL 1
REMARK VINA RESULT:      -6.9      0.000      0.000
REMARK  Name = ZINC000583127796
REMARK  2 active torsions:
REMARK  status: ('A' for Active; 'I' for Inactive)
REMARK    1  A    between atoms: C_2  and  C_4
REMARK    2  A    between atoms: C_7  and  C_8
REMARK                            x       y       z     vdW  Elec       q    Type
REMARK                         _______ _______ _______ _____ _____    ______ ____
ROOT
ATOM      1  C   UNL     1      30.289  17.293  14.135  0.00  0.00    +0.247 C 
ATOM      2  O   UNL     1      29.773  16.441  13.413  0.00  0.00    -0.270 OA
ATOM      3  N   UNL     1      31.666  17.324  14.406  0.00  0.00    -0.297 N 
ATOM      4  C   UNL     1      32.367  18.300  15.245  0.00  0.00    +0.108 C 
ATOM      5  C   UNL     1      33.514  18.974  14.513  0.00  0.00    +0.020 C 
ATOM      6  C   UNL     1      34.432  17.958  13.859  0.00  0.00    +0.011 C 
ATOM      7  C   UNL     1      33.674  16.947  12.964  0.00  0.00    -0.004 C 
ATOM      8  C   UNL     1      34.708  15.908  12.480  0.00  0.00    +0.020 C 
ATOM      9  C   UNL     1      34.230  15.268  11.195  0.00  0.00    +0.070 C 
ATOM     10  S   UNL     1      33.526  16.635  10.260  0.00  0.00    -0.160 S 
ATOM     11  C   UNL     1      33.091  17.637  11.709  0.00  0.00    +0.077 C 
ATOM     12  C   UNL     1      32.533  16.301  13.798  0.00  0.00    +0.115 C 
ENDROOT
BRANCH   1  16
ATOM     13  C   UNL     1      28.018  20.485  15.854  0.00  0.00    +0.037 A 
ATOM     14  C   UNL     1      27.591  19.166  16.041  0.00  0.00    +0.014 A 
ATOM     15  C   UNL     1      28.253  18.121  15.391  0.00  0.00    +0.014 A 
ATOM     16  C   UNL     1      29.403  18.380  14.639  0.00  0.00    +0.037 A 
ATOM     17  C   UNL     1      29.766  19.707  14.369  0.00  0.00    +0.014 A 
ATOM     18  C   UNL     1      29.065  20.758  14.967  0.00  0.00    +0.014 A 
BRANCH  13  20
ATOM     19  N   UNL     1      28.207  22.421  17.312  0.00  0.00    -0.325 N 
ATOM     20  C   UNL     1      27.381  21.611  16.584  0.00  0.00    +0.242 C 
ATOM     21  O   UNL     1      26.184  21.833  16.495  0.00  0.00    -0.270 OA
ATOM     22  H   UNL     1      27.779  23.256  17.697  0.00  0.00    +0.145 HD
ATOM     23  H   UNL     1      29.208  22.431  17.178  0.00  0.00    +0.145 HD
ENDBRANCH  13  20
ENDBRANCH   1  16
TORSDOF 2
ENDMDL
MODEL 2
REMARK VINA RESULT:      -6.7      1.333      1.745
REMARK  Name = ZINC000583127796
REMARK  2 active torsions:
REMARK  status: ('A' for Active; 'I' for Inactive)
REMARK    1  A    between atoms: C_2  and  C_4
REMARK    2  A    between atoms: C_7  and  C_8
REMARK                            x       y       z     vdW  Elec       q    Type
REMARK                         _______ _______ _______ _____ _____    ______ ____
ROOT
ATOM      1  C   UNL     1      30.865  16.741  13.766  0.00  0.00    +0.247 C 
ATOM      2  O   UNL     1      30.403  16.186  12.770  0.00  0.00    -0.270 OA
ATOM      3  N   UNL     1      32.229  16.687  14.099  0.00  0.00    -0.297 N 
ATOM      4  C   UNL     1      32.868  17.320  15.256  0.00  0.00    +0.108 C 
ATOM      5  C   UNL     1      34.029  18.214  14.859  0.00  0.00    +0.020 C 
ATOM      6  C   UNL     1      34.999  17.492  13.943  0.00  0.00    +0.011 C 
ATOM      7  C   UNL     1      34.306  16.847  12.717  0.00  0.00    -0.004 C 
ATOM      8  C   UNL     1      35.386  16.046  11.958  0.00  0.00    +0.020 C 
ATOM      9  C   UNL     1      34.980  15.884  10.509  0.00  0.00    +0.070 C 
ATOM     10  S   UNL     1      34.286  17.484  10.067  0.00  0.00    -0.160 S 
ATOM     11  C   UNL     1      33.762  17.922  11.748  0.00  0.00    +0.077 C 
ATOM     12  C   UNL     1      33.146  15.943  13.220  0.00  0.00    +0.115 C 
ENDROOT
BRANCH   1  16
ATOM     13  C   UNL     1      27.901  19.034  15.828  0.00  0.00    +0.037 A 
ATOM     14  C   UNL     1      28.851  19.695  15.042  0.00  0.00    +0.014 A 
ATOM     15  C   UNL     1      29.894  18.974  14.456  0.00  0.00    +0.014 A 
ATOM     16  C   UNL     1      29.932  17.580  14.568  0.00  0.00    +0.037 A 
ATOM     17  C   UNL     1      29.044  16.934  15.439  0.00  0.00    +0.014 A 
ATOM     18  C   UNL     1      28.037  17.664  16.078  0.00  0.00    +0.014 A 
BRANCH  13  20
ATOM     19  N   UNL     1      25.856  19.023  17.143  0.00  0.00    -0.325 N 
ATOM     20  C   UNL     1      26.741  19.759  16.407  0.00  0.00    +0.242 C 
ATOM     21  O   UNL     1      26.614  20.967  16.275  0.00  0.00    -0.270 OA
ATOM     22  H   UNL     1      25.145  19.551  17.636  0.00  0.00    +0.145 HD
ATOM     23  H   UNL     1      26.083  18.104  17.497  0.00  0.00    +0.145 HD
ENDBRANCH  13  20
ENDBRANCH   1  16
TORSDOF 2
ENDMDL
MODEL 3
REMARK VINA RESULT:      -6.5      4.549      5.552
REMARK  Name = ZINC000583127796
REMARK  2 active torsions:
REMARK  status: ('A' for Active; 'I' for Inactive)
REMARK    1  A    between atoms: C_2  and  C_4
REMARK    2  A    between atoms: C_7  and  C_8
REMARK                            x       y       z     vdW  Elec       q    Type
REMARK                         _______ _______ _______ _____ _____    ______ ____
ROOT
ATOM      1  C   UNL     1      32.175  22.547  14.071  0.00  0.00    +0.247 C 
ATOM      2  O   UNL     1      33.071  21.766  14.388  0.00  0.00    -0.270 OA
ATOM      3  N   UNL     1      32.394  23.651  13.231  0.00  0.00    -0.297 N 
ATOM      4  C   UNL     1      31.391  24.627  12.796  0.00  0.00    +0.108 C 
ATOM      5  C   UNL     1      31.329  24.759  11.285  0.00  0.00    +0.020 C 
ATOM      6  C   UNL     1      32.705  24.989  10.689  0.00  0.00    +0.011 C 
ATOM      7  C   UNL     1      33.745  23.936  11.147  0.00  0.00    -0.004 C 
ATOM      8  C   UNL     1      35.111  24.372  10.573  0.00  0.00    +0.020 C 
ATOM      9  C   UNL     1      36.025  23.172  10.457  0.00  0.00    +0.070 C 
ATOM     10  S   UNL     1      34.950  21.859   9.857  0.00  0.00    -0.160 S 
ATOM     11  C   UNL     1      33.424  22.540  10.565  0.00  0.00    +0.077 C 
ATOM     12  C   UNL     1      33.747  23.881  12.700  0.00  0.00    +0.115 C 
ENDROOT
BRANCH   1  16
ATOM     13  C   UNL     1      28.381  21.382  15.665  0.00  0.00    +0.037 A 
ATOM     14  C   UNL     1      28.790  20.866  14.431  0.00  0.00    +0.014 A 
ATOM     15  C   UNL     1      29.971  21.324  13.842  0.00  0.00    +0.014 A 
ATOM     16  C   UNL     1      30.797  22.219  14.530  0.00  0.00    +0.037 A 
ATOM     17  C   UNL     1      30.335  22.811  15.715  0.00  0.00    +0.014 A 
ATOM     18  C   UNL     1      29.122  22.401  16.275  0.00  0.00    +0.014 A 
BRANCH  13  20
ATOM     19  N   UNL     1      27.148  19.533  16.654  0.00  0.00    -0.325 N 
ATOM     20  C   UNL     1      27.168  20.866  16.352  0.00  0.00    +0.242 C 
ATOM     21  O   UNL     1      26.255  21.609  16.678  0.00  0.00    -0.270 OA
ATOM     22  H   UNL     1      26.377  19.224  17.234  0.00  0.00    +0.145 HD
ATOM     23  H   UNL     1      27.986  18.968  16.652  0.00  0.00    +0.145 HD
ENDBRANCH  13  20
ENDBRANCH   1  16
TORSDOF 2
ENDMDL
MODEL 4
REMARK VINA RESULT:      -6.4      4.702      5.696
REMARK  Name = ZINC000583127796
REMARK  2 active torsions:
REMARK  status: ('A' for Active; 'I' for Inactive)
REMARK    1  A    between atoms: C_2  and  C_4
REMARK    2  A    between atoms: C_7  and  C_8
REMARK                            x       y       z     vdW  Elec       q    Type
REMARK                         _______ _______ _______ _____ _____    ______ ____
ROOT
ATOM      1  C   UNL     1      32.712  22.452  13.836  0.00  0.00    +0.247 C 
ATOM      2  O   UNL     1      33.688  21.709  13.918  0.00  0.00    -0.270 OA
ATOM      3  N   UNL     1      32.701  23.603  13.032  0.00  0.00    -0.297 N 
ATOM      4  C   UNL     1      31.586  24.540  12.867  0.00  0.00    +0.108 C 
ATOM      5  C   UNL     1      31.207  24.737  11.410  0.00  0.00    +0.020 C 
ATOM      6  C   UNL     1      32.418  25.071  10.559  0.00  0.00    +0.011 C 
ATOM      7  C   UNL     1      33.577  24.059  10.735  0.00  0.00    -0.004 C 
ATOM      8  C   UNL     1      34.773  24.597   9.920  0.00  0.00    +0.020 C 
ATOM      9  C   UNL     1      35.697  23.457   9.552  0.00  0.00    +0.070 C 
ATOM     10  S   UNL     1      34.583  22.114   9.112  0.00  0.00    -0.160 S 
ATOM     11  C   UNL     1      33.207  22.675  10.153  0.00  0.00    +0.077 C 
ATOM     12  C   UNL     1      33.903  23.934  12.249  0.00  0.00    +0.115 C 
ENDROOT
BRANCH   1  16
ATOM     13  C   UNL     1      28.958  21.446  15.623  0.00  0.00    +0.037 A 
ATOM     14  C   UNL     1      29.823  22.314  16.297  0.00  0.00    +0.014 A 
ATOM     15  C   UNL     1      31.099  22.562  15.784  0.00  0.00    +0.014 A 
ATOM     16  C   UNL     1      31.474  22.026  14.548  0.00  0.00    +0.037 A 
ATOM     17  C   UNL     1      30.648  21.077  13.929  0.00  0.00    +0.014 A 
ATOM     18  C   UNL     1      29.396  20.779  14.474  0.00  0.00    +0.014 A 
BRANCH  13  20
ATOM     19  N   UNL     1      26.960  22.253  16.751  0.00  0.00    -0.325 N 
ATOM     20  C   UNL     1      27.571  21.216  16.103  0.00  0.00    +0.242 C 
ATOM     21  O   UNL     1      26.985  20.168  15.881  0.00  0.00    -0.270 OA
ATOM     22  H   UNL     1      25.976  22.127  16.956  0.00  0.00    +0.145 HD
ATOM     23  H   UNL     1      27.308  23.200  16.699  0.00  0.00    +0.145 HD
ENDBRANCH  13  20
ENDBRANCH   1  16
TORSDOF 2
ENDMDL
MODEL 5
REMARK VINA RESULT:      -6.1      6.973      8.002
REMARK  Name = ZINC000583127796
REMARK  2 active torsions:
REMARK  status: ('A' for Active; 'I' for Inactive)
REMARK    1  A    between atoms: C_2  and  C_4
REMARK    2  A    between atoms: C_7  and  C_8
REMARK                            x       y       z     vdW  Elec       q    Type
REMARK                         _______ _______ _______ _____ _____    ______ ____
ROOT
ATOM      1  C   UNL     1      33.254  24.907   9.674  0.00  0.00    +0.247 C 
ATOM      2  O   UNL     1      33.672  26.053   9.522  0.00  0.00    -0.270 OA
ATOM      3  N   UNL     1      33.374  23.918   8.684  0.00  0.00    -0.297 N 
ATOM      4  C   UNL     1      32.914  22.530   8.779  0.00  0.00    +0.108 C 
ATOM      5  C   UNL     1      34.022  21.532   8.495  0.00  0.00    +0.020 C 
ATOM      6  C   UNL     1      34.740  21.851   7.197  0.00  0.00    +0.011 C 
ATOM      7  C   UNL     1      35.234  23.317   7.125  0.00  0.00    -0.004 C 
ATOM      8  C   UNL     1      35.819  23.527   5.712  0.00  0.00    +0.020 C 
ATOM      9  C   UNL     1      36.815  24.667   5.733  0.00  0.00    +0.070 C 
ATOM     10  S   UNL     1      37.718  24.431   7.272  0.00  0.00    -0.160 S 
ATOM     11  C   UNL     1      36.373  23.576   8.139  0.00  0.00    +0.077 C 
ATOM     12  C   UNL     1      34.035  24.262   7.414  0.00  0.00    +0.115 C 
ENDROOT
BRANCH   1  16
ATOM     13  C   UNL     1      31.635  23.543  13.391  0.00  0.00    +0.037 A 
ATOM     14  C   UNL     1      30.830  24.300  12.534  0.00  0.00    +0.014 A 
ATOM     15  C   UNL     1      31.377  24.851  11.372  0.00  0.00    +0.014 A 
ATOM     16  C   UNL     1      32.697  24.561  11.012  0.00  0.00    +0.037 A 
ATOM     17  C   UNL     1      33.528  23.892  11.921  0.00  0.00    +0.014 A 
ATOM     18  C   UNL     1      32.999  23.394  13.116  0.00  0.00    +0.014 A 
BRANCH  13  20
ATOM     19  N   UNL     1      29.867  23.351  15.049  0.00  0.00    -0.325 N 
ATOM     20  C   UNL     1      31.070  22.885  14.597  0.00  0.00    +0.242 C 
ATOM     21  O   UNL     1      31.628  21.937  15.128  0.00  0.00    -0.270 OA
ATOM     22  H   UNL     1      29.435  22.811  15.790  0.00  0.00    +0.145 HD
ATOM     23  H   UNL     1      29.263  23.927  14.479  0.00  0.00    +0.145 HD
ENDBRANCH  13  20
ENDBRANCH   1  16
TORSDOF 2
ENDMDL
MODEL 6
REMARK VINA RESULT:      -6.0      1.662      1.884
REMARK  Name = ZINC000583127796
REMARK  2 active torsions:
REMARK  status: ('A' for Active; 'I' for Inactive)
REMARK    1  A    between atoms: C_2  and  C_4
REMARK    2  A    between atoms: C_7  and  C_8
REMARK                            x       y       z     vdW  Elec       q    Type
REMARK                         _______ _______ _______ _____ _____    ______ ____
ROOT
ATOM      1  C   UNL     1      31.736  16.958  13.839  0.00  0.00    +0.247 C 
ATOM      2  O   UNL     1      31.681  16.406  12.742  0.00  0.00    -0.270 OA
ATOM      3  N   UNL     1      32.848  16.846  14.690  0.00  0.00    -0.297 N 
ATOM      4  C   UNL     1      33.005  17.471  16.006  0.00  0.00    +0.108 C 
ATOM      5  C   UNL     1      34.273  18.299  16.105  0.00  0.00    +0.020 C 
ATOM      6  C   UNL     1      35.489  17.512  15.653  0.00  0.00    +0.011 C 
ATOM      7  C   UNL     1      35.310  16.874  14.253  0.00  0.00    -0.004 C 
ATOM      8  C   UNL     1      36.559  16.006  13.989  0.00  0.00    +0.020 C 
ATOM      9  C   UNL     1      36.757  15.833  12.498  0.00  0.00    +0.070 C 
ATOM     10  S   UNL     1      36.382  17.456  11.815  0.00  0.00    -0.160 S 
ATOM     11  C   UNL     1      35.256  17.954  13.148  0.00  0.00    +0.077 C 
ATOM     12  C   UNL     1      33.999  16.040  14.251  0.00  0.00    +0.115 C 
ENDROOT
BRANCH   1  16
ATOM     13  C   UNL     1      28.680  19.616  15.216  0.00  0.00    +0.037 A 
ATOM     14  C   UNL     1      28.422  18.241  15.176  0.00  0.00    +0.014 A 
ATOM     15  C   UNL     1      29.365  17.372  14.622  0.00  0.00    +0.014 A 
ATOM     16  C   UNL     1      30.606  17.859  14.201  0.00  0.00    +0.037 A 
ATOM     17  C   UNL     1      30.820  19.244  14.146  0.00  0.00    +0.014 A 
ATOM     18  C   UNL     1      29.852  20.121  14.642  0.00  0.00    +0.014 A 
BRANCH  13  20
ATOM     19  N   UNL     1      28.108  21.871  15.923  0.00  0.00    -0.325 N 
ATOM     20  C   UNL     1      27.731  20.559  15.862  0.00  0.00    +0.242 C 
ATOM     21  O   UNL     1      26.641  20.187  16.270  0.00  0.00    -0.270 OA
ATOM     22  H   UNL     1      27.400  22.519  16.247  0.00  0.00    +0.145 HD
ATOM     23  H   UNL     1      28.855  22.244  15.355  0.00  0.00    +0.145 HD
ENDBRANCH  13  20
ENDBRANCH   1  16
TORSDOF 2
ENDMDL
MODEL 7
REMARK VINA RESULT:      -6.0      6.855      9.081
REMARK  Name = ZINC000583127796
REMARK  2 active torsions:
REMARK  status: ('A' for Active; 'I' for Inactive)
REMARK    1  A    between atoms: C_2  and  C_4
REMARK    2  A    between atoms: C_7  and  C_8
REMARK                            x       y       z     vdW  Elec       q    Type
REMARK                         _______ _______ _______ _____ _____    ______ ____
ROOT
ATOM      1  C   UNL     1      32.289  24.530  11.211  0.00  0.00    +0.247 C 
ATOM      2  O   UNL     1      31.151  24.991  11.288  0.00  0.00    -0.270 OA
ATOM      3  N   UNL     1      32.966  23.994  12.319  0.00  0.00    -0.297 N 
ATOM      4  C   UNL     1      34.314  23.420  12.321  0.00  0.00    +0.108 C 
ATOM      5  C   UNL     1      34.342  22.012  12.889  0.00  0.00    +0.020 C 
ATOM      6  C   UNL     1      33.644  21.941  14.235  0.00  0.00    +0.011 C 
ATOM      7  C   UNL     1      32.215  22.537  14.206  0.00  0.00    -0.004 C 
ATOM      8  C   UNL     1      31.688  22.516  15.657  0.00  0.00    +0.020 C 
ATOM      9  C   UNL     1      30.175  22.512  15.654  0.00  0.00    +0.070 C 
ATOM     10  S   UNL     1      29.742  21.394  14.311  0.00  0.00    -0.160 S 
ATOM     11  C   UNL     1      31.261  21.666  13.356  0.00  0.00    +0.077 C 
ATOM     12  C   UNL     1      32.287  23.976  13.625  0.00  0.00    +0.115 C 
ENDROOT
BRANCH   1  16
ATOM     13  C   UNL     1      34.255  24.018   7.447  0.00  0.00    +0.037 A 
ATOM     14  C   UNL     1      34.587  25.117   8.246  0.00  0.00    +0.014 A 
ATOM     15  C   UNL     1      33.874  25.363   9.422  0.00  0.00    +0.014 A 
ATOM     16  C   UNL     1      32.900  24.457   9.855  0.00  0.00    +0.037 A 
ATOM     17  C   UNL     1      32.499  23.418   9.003  0.00  0.00    +0.014 A 
ATOM     18  C   UNL     1      33.168  23.207   7.794  0.00  0.00    +0.014 A 
BRANCH  13  20
ATOM     19  N   UNL     1      35.295  24.713   5.362  0.00  0.00    -0.325 N 
ATOM     20  C   UNL     1      35.038  23.688   6.228  0.00  0.00    +0.242 C 
ATOM     21  O   UNL     1      35.476  22.564   6.037  0.00  0.00    -0.270 OA
ATOM     22  H   UNL     1      35.936  24.501   4.606  0.00  0.00    +0.145 HD
ATOM     23  H   UNL     1      35.192  25.682   5.628  0.00  0.00    +0.145 HD
ENDBRANCH  13  20
ENDBRANCH   1  16
TORSDOF 2
ENDMDL
MODEL 8
REMARK VINA RESULT:      -5.8      4.154      5.598
REMARK  Name = ZINC000583127796
REMARK  2 active torsions:
REMARK  status: ('A' for Active; 'I' for Inactive)
REMARK    1  A    between atoms: C_2  and  C_4
REMARK    2  A    between atoms: C_7  and  C_8
REMARK                            x       y       z     vdW  Elec       q    Type
REMARK                         _______ _______ _______ _____ _____    ______ ____
ROOT
ATOM      1  C   UNL     1      32.954  20.282  12.942  0.00  0.00    +0.247 C 
ATOM      2  O   UNL     1      33.078  20.043  11.742  0.00  0.00    -0.270 OA
ATOM      3  N   UNL     1      33.648  21.321  13.584  0.00  0.00    -0.297 N 
ATOM      4  C   UNL     1      33.559  21.682  15.001  0.00  0.00    +0.108 C 
ATOM      5  C   UNL     1      33.204  23.144  15.204  0.00  0.00    +0.020 C 
ATOM      6  C   UNL     1      34.109  24.055  14.396  0.00  0.00    +0.011 C 
ATOM      7  C   UNL     1      34.175  23.667  12.898  0.00  0.00    -0.004 C 
ATOM      8  C   UNL     1      35.224  24.588  12.239  0.00  0.00    +0.020 C 
ATOM      9  C   UNL     1      34.949  24.700  10.755  0.00  0.00    +0.070 C 
ATOM     10  S   UNL     1      33.156  24.825  10.650  0.00  0.00    -0.160 S 
ATOM     11  C   UNL     1      32.825  23.926  12.191  0.00  0.00    +0.077 C 
ATOM     12  C   UNL     1      34.557  22.164  12.789  0.00  0.00    +0.115 C 
ENDROOT
BRANCH   1  16
ATOM     13  C   UNL     1      29.927  17.857  14.745  0.00  0.00    +0.037 A 
ATOM     14  C   UNL     1      29.753  19.245  14.701  0.00  0.00    +0.014 A 
ATOM     15  C   UNL     1      30.782  20.060  14.221  0.00  0.00    +0.014 A 
ATOM     16  C   UNL     1      31.941  19.486  13.690  0.00  0.00    +0.037 A 
ATOM     17  C   UNL     1      32.155  18.108  13.831  0.00  0.00    +0.014 A 
ATOM     18  C   UNL     1      31.153  17.296  14.370  0.00  0.00    +0.014 A 
BRANCH  13  20
ATOM     19  N   UNL     1      28.363  16.058  14.265  0.00  0.00    -0.325 N 
ATOM     20  C   UNL     1      28.828  16.958  15.182  0.00  0.00    +0.242 C 
ATOM     21  O   UNL     1      28.399  16.985  16.326  0.00  0.00    -0.270 OA
ATOM     22  H   UNL     1      27.708  15.369  14.615  0.00  0.00    +0.145 HD
ATOM     23  H   UNL     1      28.878  15.828  13.427  0.00  0.00    +0.145 HD
ENDBRANCH  13  20
ENDBRANCH   1  16
TORSDOF 2
ENDMDL
MODEL 9
REMARK VINA RESULT:      -5.7      6.689      7.696
REMARK  Name = ZINC000583127796
REMARK  2 active torsions:
REMARK  status: ('A' for Active; 'I' for Inactive)
REMARK    1  A    between atoms: C_2  and  C_4
REMARK    2  A    between atoms: C_7  and  C_8
REMARK                            x       y       z     vdW  Elec       q    Type
REMARK                         _______ _______ _______ _____ _____    ______ ____
ROOT
ATOM      1  C   UNL     1      33.849  24.469  10.966  0.00  0.00    +0.247 C 
ATOM      2  O   UNL     1      34.871  24.856  11.530  0.00  0.00    -0.270 OA
ATOM      3  N   UNL     1      33.674  24.549   9.574  0.00  0.00    -0.297 N 
ATOM      4  C   UNL     1      32.499  24.109   8.818  0.00  0.00    +0.108 C 
ATOM      5  C   UNL     1      32.856  23.135   7.709  0.00  0.00    +0.020 C 
ATOM      6  C   UNL     1      33.979  23.668   6.839  0.00  0.00    +0.011 C 
ATOM      7  C   UNL     1      35.218  24.111   7.657  0.00  0.00    -0.004 C 
ATOM      8  C   UNL     1      36.212  24.746   6.661  0.00  0.00    +0.020 C 
ATOM      9  C   UNL     1      37.617  24.668   7.219  0.00  0.00    +0.070 C 
ATOM     10  S   UNL     1      37.702  23.031   7.963  0.00  0.00    -0.160 S 
ATOM     11  C   UNL     1      35.925  22.898   8.305  0.00  0.00    +0.077 C 
ATOM     12  C   UNL     1      34.759  25.112   8.754  0.00  0.00    +0.115 C 
ENDROOT
BRANCH   1  16
ATOM     13  C   UNL     1      31.037  22.753  13.694  0.00  0.00    +0.037 A 
ATOM     14  C   UNL     1      32.095  21.969  13.221  0.00  0.00    +0.014 A 
ATOM     15  C   UNL     1      32.954  22.476  12.243  0.00  0.00    +0.014 A 
ATOM     16  C   UNL     1      32.822  23.799  11.811  0.00  0.00    +0.037 A 
ATOM     17  C   UNL     1      31.702  24.545  12.207  0.00  0.00    +0.014 A 
ATOM     18  C   UNL     1      30.805  24.017  13.139  0.00  0.00    +0.014 A 
BRANCH  13  20
ATOM     19  N   UNL     1      29.536  23.224  15.548  0.00  0.00    -0.325 N 
ATOM     20  C   UNL     1      30.149  22.272  14.784  0.00  0.00    +0.242 C 
ATOM     21  O   UNL     1      29.936  21.081  14.953  0.00  0.00    -0.270 OA
ATOM     22  H   UNL     1      28.837  22.885  16.199  0.00  0.00    +0.145 HD
ATOM     23  H   UNL     1      29.472  24.190  15.258  0.00  0.00    +0.145 HD
ENDBRANCH  13  20
ENDBRANCH   1  16
TORSDOF 2
ENDMDL
