MODEL 1
REMARK VINA RESULT:      -6.3      0.000      0.000
REMARK  Name = ZINC000826139982
REMARK  4 active torsions:
REMARK  status: ('A' for Active; 'I' for Inactive)
REMARK    1  A    between atoms: C_2  and  C_4
REMARK    2  A    between atoms: C_8  and  C_10
REMARK    3  A    between atoms: C_14  and  S_15
REMARK    4  A    between atoms: S_15  and  C_16
REMARK                            x       y       z     vdW  Elec       q    Type
REMARK                         _______ _______ _______ _____ _____    ______ ____
ROOT
ATOM      1  C   UNL     1      32.495  22.626  16.670  0.00  0.00    +0.093 C 
ATOM      2  C   UNL     1      33.660  23.176  15.846  0.00  0.00    +0.033 C 
ATOM      3  C   UNL     1      32.948  24.094  14.864  0.00  0.00    +0.109 C 
ATOM      4  N   UNL     1      31.791  23.298  14.480  0.00  0.00    -0.297 N 
ATOM      5  C   UNL     1      31.031  23.284  13.318  0.00  0.00    +0.247 C 
ATOM      6  O   UNL     1      29.998  22.613  13.247  0.00  0.00    -0.270 OA
ATOM      7  C   UNL     1      31.366  22.504  15.636  0.00  0.00    +0.120 C 
ENDROOT
BRANCH   5   8
ATOM      8  C   UNL     1      31.409  24.090  12.117  0.00  0.00    +0.038 A 
ATOM      9  C   UNL     1      30.973  25.396  11.894  0.00  0.00    +0.013 A 
ATOM     10  C   UNL     1      31.286  26.065  10.709  0.00  0.00    +0.002 A 
ATOM     11  C   UNL     1      32.159  25.485   9.794  0.00  0.00    +0.015 A 
ATOM     12  C   UNL     1      32.752  24.252  10.079  0.00  0.00    +0.017 A 
ATOM     13  C   UNL     1      32.343  23.540  11.216  0.00  0.00    +0.028 A 
BRANCH  12  14
ATOM     14  S   UNL     1      34.002  23.572   9.008  0.00  0.00    -0.016 S 
BRANCH  14  15
ATOM     15  C   UNL     1      32.999  22.974   7.631  0.00  0.00    +0.448 C 
ATOM     16  F   UNL     1      31.932  22.229   8.007  0.00  0.00    -0.160 F 
ATOM     17  F   UNL     1      32.521  24.007   6.896  0.00  0.00    -0.160 F 
ATOM     18  F   UNL     1      33.742  22.203   6.798  0.00  0.00    -0.160 F 
ENDBRANCH  14  15
ENDBRANCH  12  14
ENDBRANCH   5   8
BRANCH   1  20
ATOM     19  N   UNL     1      30.924  24.124  17.804  0.00  0.00    -0.329 N 
ATOM     20  C   UNL     1      32.167  23.568  17.818  0.00  0.00    +0.215 C 
ATOM     21  O   UNL     1      32.930  23.808  18.749  0.00  0.00    -0.276 OA
ATOM     22  H   UNL     1      30.670  24.679  18.611  0.00  0.00    +0.145 HD
ATOM     23  H   UNL     1      30.197  23.847  17.160  0.00  0.00    +0.145 HD
ENDBRANCH   1  20
TORSDOF 4
ENDMDL
MODEL 2
REMARK VINA RESULT:      -5.9      4.920      7.722
REMARK  Name = ZINC000826139982
REMARK  4 active torsions:
REMARK  status: ('A' for Active; 'I' for Inactive)
REMARK    1  A    between atoms: C_2  and  C_4
REMARK    2  A    between atoms: C_8  and  C_10
REMARK    3  A    between atoms: C_14  and  S_15
REMARK    4  A    between atoms: S_15  and  C_16
REMARK                            x       y       z     vdW  Elec       q    Type
REMARK                         _______ _______ _______ _____ _____    ______ ____
ROOT
ATOM      1  C   UNL     1      35.496  22.996   6.925  0.00  0.00    +0.093 C 
ATOM      2  C   UNL     1      34.109  22.409   7.184  0.00  0.00    +0.033 C 
ATOM      3  C   UNL     1      33.410  23.552   7.905  0.00  0.00    +0.109 C 
ATOM      4  N   UNL     1      34.443  24.015   8.821  0.00  0.00    -0.297 N 
ATOM      5  C   UNL     1      34.360  24.645  10.056  0.00  0.00    +0.247 C 
ATOM      6  O   UNL     1      35.372  25.077  10.614  0.00  0.00    -0.270 OA
ATOM      7  C   UNL     1      35.748  23.855   8.173  0.00  0.00    +0.120 C 
ENDROOT
BRANCH   5   8
ATOM      8  C   UNL     1      33.053  24.851  10.751  0.00  0.00    +0.038 A 
ATOM      9  C   UNL     1      32.146  25.854  10.409  0.00  0.00    +0.013 A 
ATOM     10  C   UNL     1      30.982  26.054  11.155  0.00  0.00    +0.002 A 
ATOM     11  C   UNL     1      30.643  25.161  12.167  0.00  0.00    +0.015 A 
ATOM     12  C   UNL     1      31.446  24.043  12.409  0.00  0.00    +0.017 A 
ATOM     13  C   UNL     1      32.668  23.916  11.731  0.00  0.00    +0.028 A 
BRANCH  12  14
ATOM     14  S   UNL     1      30.944  22.796  13.576  0.00  0.00    -0.016 S 
BRANCH  14  15
ATOM     15  C   UNL     1      32.288  22.878  14.780  0.00  0.00    +0.448 C 
ATOM     16  F   UNL     1      33.358  22.108  14.467  0.00  0.00    -0.160 F 
ATOM     17  F   UNL     1      32.740  24.147  14.914  0.00  0.00    -0.160 F 
ATOM     18  F   UNL     1      31.859  22.476  16.002  0.00  0.00    -0.160 F 
ENDBRANCH  14  15
ENDBRANCH  12  14
ENDBRANCH   5   8
BRANCH   1  20
ATOM     19  N   UNL     1      35.707  25.134   5.749  0.00  0.00    -0.329 N 
ATOM     20  C   UNL     1      35.502  23.793   5.630  0.00  0.00    +0.215 C 
ATOM     21  O   UNL     1      35.379  23.293   4.516  0.00  0.00    -0.276 OA
ATOM     22  H   UNL     1      35.801  25.653   4.886  0.00  0.00    +0.145 HD
ATOM     23  H   UNL     1      35.974  25.582   6.614  0.00  0.00    +0.145 HD
ENDBRANCH   1  20
TORSDOF 4
ENDMDL
MODEL 3
REMARK VINA RESULT:      -5.8      3.014      4.020
REMARK  Name = ZINC000826139982
REMARK  4 active torsions:
REMARK  status: ('A' for Active; 'I' for Inactive)
REMARK    1  A    between atoms: C_2  and  C_4
REMARK    2  A    between atoms: C_8  and  C_10
REMARK    3  A    between atoms: C_14  and  S_15
REMARK    4  A    between atoms: S_15  and  C_16
REMARK                            x       y       z     vdW  Elec       q    Type
REMARK                         _______ _______ _______ _____ _____    ______ ____
ROOT
ATOM      1  C   UNL     1      31.056  18.681  14.739  0.00  0.00    +0.093 C 
ATOM      2  C   UNL     1      29.938  19.670  14.412  0.00  0.00    +0.033 C 
ATOM      3  C   UNL     1      30.504  20.403  13.205  0.00  0.00    +0.109 C 
ATOM      4  N   UNL     1      31.890  20.615  13.597  0.00  0.00    -0.297 N 
ATOM      5  C   UNL     1      32.805  21.598  13.239  0.00  0.00    +0.247 C 
ATOM      6  O   UNL     1      33.985  21.518  13.589  0.00  0.00    -0.270 OA
ATOM      7  C   UNL     1      32.329  19.473  14.403  0.00  0.00    +0.120 C 
ENDROOT
BRANCH   5   8
ATOM      8  C   UNL     1      32.415  22.774  12.403  0.00  0.00    +0.038 A 
ATOM      9  C   UNL     1      31.477  23.727  12.799  0.00  0.00    +0.013 A 
ATOM     10  C   UNL     1      31.088  24.753  11.936  0.00  0.00    +0.002 A 
ATOM     11  C   UNL     1      31.738  24.919  10.717  0.00  0.00    +0.015 A 
ATOM     12  C   UNL     1      32.805  24.085  10.376  0.00  0.00    +0.017 A 
ATOM     13  C   UNL     1      33.111  22.990  11.198  0.00  0.00    +0.028 A 
BRANCH  12  14
ATOM     14  S   UNL     1      33.764  24.385   8.905  0.00  0.00    -0.016 S 
BRANCH  14  15
ATOM     15  C   UNL     1      32.871  23.390   7.692  0.00  0.00    +0.448 C 
ATOM     16  F   UNL     1      32.080  22.434   8.237  0.00  0.00    -0.160 F 
ATOM     17  F   UNL     1      32.077  24.167   6.918  0.00  0.00    -0.160 F 
ATOM     18  F   UNL     1      33.738  22.755   6.864  0.00  0.00    -0.160 F 
ENDBRANCH  14  15
ENDBRANCH  12  14
ENDBRANCH   5   8
BRANCH   1  20
ATOM     19  N   UNL     1      32.008  16.978  13.259  0.00  0.00    -0.329 N 
ATOM     20  C   UNL     1      30.898  17.411  13.917  0.00  0.00    +0.215 C 
ATOM     21  O   UNL     1      29.862  16.757  13.857  0.00  0.00    -0.276 OA
ATOM     22  H   UNL     1      31.932  16.087  12.786  0.00  0.00    +0.145 HD
ATOM     23  H   UNL     1      32.927  17.376  13.394  0.00  0.00    +0.145 HD
ENDBRANCH   1  20
TORSDOF 4
ENDMDL
MODEL 4
REMARK VINA RESULT:      -5.7      1.149      1.421
REMARK  Name = ZINC000826139982
REMARK  4 active torsions:
REMARK  status: ('A' for Active; 'I' for Inactive)
REMARK    1  A    between atoms: C_2  and  C_4
REMARK    2  A    between atoms: C_8  and  C_10
REMARK    3  A    between atoms: C_14  and  S_15
REMARK    4  A    between atoms: S_15  and  C_16
REMARK                            x       y       z     vdW  Elec       q    Type
REMARK                         _______ _______ _______ _____ _____    ______ ____
ROOT
ATOM      1  C   UNL     1      33.401  21.771  16.205  0.00  0.00    +0.093 C 
ATOM      2  C   UNL     1      34.398  22.202  15.130  0.00  0.00    +0.033 C 
ATOM      3  C   UNL     1      33.670  23.364  14.470  0.00  0.00    +0.109 C 
ATOM      4  N   UNL     1      32.309  22.858  14.371  0.00  0.00    -0.297 N 
ATOM      5  C   UNL     1      31.285  23.147  13.477  0.00  0.00    +0.247 C 
ATOM      6  O   UNL     1      30.149  22.697  13.651  0.00  0.00    -0.270 OA
ATOM      7  C   UNL     1      32.040  22.005  15.532  0.00  0.00    +0.120 C 
ENDROOT
BRANCH   5   8
ATOM      8  C   UNL     1      31.499  24.026  12.287  0.00  0.00    +0.038 A 
ATOM      9  C   UNL     1      30.911  25.282  12.139  0.00  0.00    +0.013 A 
ATOM     10  C   UNL     1      31.077  26.018  10.964  0.00  0.00    +0.002 A 
ATOM     11  C   UNL     1      31.949  25.566   9.979  0.00  0.00    +0.015 A 
ATOM     12  C   UNL     1      32.689  24.398  10.183  0.00  0.00    +0.017 A 
ATOM     13  C   UNL     1      32.429  23.611  11.315  0.00  0.00    +0.028 A 
BRANCH  12  14
ATOM     14  S   UNL     1      33.937  23.893   9.017  0.00  0.00    -0.016 S 
BRANCH  14  15
ATOM     15  C   UNL     1      32.924  23.192   7.697  0.00  0.00    +0.448 C 
ATOM     16  F   UNL     1      32.267  24.116   6.955  0.00  0.00    -0.160 F 
ATOM     17  F   UNL     1      33.679  22.462   6.843  0.00  0.00    -0.160 F 
ATOM     18  F   UNL     1      31.983  22.359   8.208  0.00  0.00    -0.160 F 
ENDBRANCH  14  15
ENDBRANCH  12  14
ENDBRANCH   5   8
BRANCH   1  20
ATOM     19  N   UNL     1      34.879  22.700  17.921  0.00  0.00    -0.329 N 
ATOM     20  C   UNL     1      33.599  22.590  17.471  0.00  0.00    +0.215 C 
ATOM     21  O   UNL     1      32.695  23.172  18.061  0.00  0.00    -0.276 OA
ATOM     22  H   UNL     1      35.027  23.317  18.710  0.00  0.00    +0.145 HD
ATOM     23  H   UNL     1      35.683  22.383  17.399  0.00  0.00    +0.145 HD
ENDBRANCH   1  20
TORSDOF 4
ENDMDL
MODEL 5
REMARK VINA RESULT:      -5.7      3.177      4.194
REMARK  Name = ZINC000826139982
REMARK  4 active torsions:
REMARK  status: ('A' for Active; 'I' for Inactive)
REMARK    1  A    between atoms: C_2  and  C_4
REMARK    2  A    between atoms: C_8  and  C_10
REMARK    3  A    between atoms: C_14  and  S_15
REMARK    4  A    between atoms: S_15  and  C_16
REMARK                            x       y       z     vdW  Elec       q    Type
REMARK                         _______ _______ _______ _____ _____    ______ ____
ROOT
ATOM      1  C   UNL     1      31.405  18.391  14.711  0.00  0.00    +0.093 C 
ATOM      2  C   UNL     1      30.251  19.124  14.028  0.00  0.00    +0.033 C 
ATOM      3  C   UNL     1      30.976  19.947  12.974  0.00  0.00    +0.109 C 
ATOM      4  N   UNL     1      32.129  20.445  13.713  0.00  0.00    -0.297 N 
ATOM      5  C   UNL     1      32.895  21.592  13.552  0.00  0.00    +0.247 C 
ATOM      6  O   UNL     1      33.923  21.762  14.214  0.00  0.00    -0.270 OA
ATOM      7  C   UNL     1      32.539  19.426  14.682  0.00  0.00    +0.120 C 
ENDROOT
BRANCH   5   8
ATOM      8  C   UNL     1      32.533  22.654  12.565  0.00  0.00    +0.038 A 
ATOM      9  C   UNL     1      31.583  23.645  12.811  0.00  0.00    +0.013 A 
ATOM     10  C   UNL     1      31.221  24.555  11.816  0.00  0.00    +0.002 A 
ATOM     11  C   UNL     1      31.909  24.573  10.607  0.00  0.00    +0.015 A 
ATOM     12  C   UNL     1      32.987  23.707  10.405  0.00  0.00    +0.017 A 
ATOM     13  C   UNL     1      33.267  22.723  11.365  0.00  0.00    +0.028 A 
BRANCH  12  14
ATOM     14  S   UNL     1      33.992  23.827   8.940  0.00  0.00    -0.016 S 
BRANCH  14  15
ATOM     15  C   UNL     1      32.910  23.074   7.707  0.00  0.00    +0.448 C 
ATOM     16  F   UNL     1      32.180  23.965   6.994  0.00  0.00    -0.160 F 
ATOM     17  F   UNL     1      33.624  22.346   6.816  0.00  0.00    -0.160 F 
ATOM     18  F   UNL     1      32.029  22.228   8.297  0.00  0.00    -0.160 F 
ENDBRANCH  14  15
ENDBRANCH  12  14
ENDBRANCH   5   8
BRANCH   1  20
ATOM     19  N   UNL     1      33.046  16.743  13.944  0.00  0.00    -0.329 N 
ATOM     20  C   UNL     1      31.735  17.108  13.963  0.00  0.00    +0.215 C 
ATOM     21  O   UNL     1      30.895  16.388  13.433  0.00  0.00    -0.276 OA
ATOM     22  H   UNL     1      33.257  15.847  13.526  0.00  0.00    +0.145 HD
ATOM     23  H   UNL     1      33.760  17.201  14.492  0.00  0.00    +0.145 HD
ENDBRANCH   1  20
TORSDOF 4
ENDMDL
MODEL 6
REMARK VINA RESULT:      -5.6      4.961      7.568
REMARK  Name = ZINC000826139982
REMARK  4 active torsions:
REMARK  status: ('A' for Active; 'I' for Inactive)
REMARK    1  A    between atoms: C_2  and  C_4
REMARK    2  A    between atoms: C_8  and  C_10
REMARK    3  A    between atoms: C_14  and  S_15
REMARK    4  A    between atoms: S_15  and  C_16
REMARK                            x       y       z     vdW  Elec       q    Type
REMARK                         _______ _______ _______ _____ _____    ______ ____
ROOT
ATOM      1  C   UNL     1      33.343  25.103   8.895  0.00  0.00    +0.093 C 
ATOM      2  C   UNL     1      34.288  24.263   9.755  0.00  0.00    +0.033 C 
ATOM      3  C   UNL     1      33.318  23.533  10.672  0.00  0.00    +0.109 C 
ATOM      4  N   UNL     1      32.377  24.586  11.026  0.00  0.00    -0.297 N 
ATOM      5  C   UNL     1      31.583  24.768  12.151  0.00  0.00    +0.247 C 
ATOM      6  O   UNL     1      30.747  25.674  12.194  0.00  0.00    -0.270 OA
ATOM      7  C   UNL     1      32.226  25.484   9.877  0.00  0.00    +0.120 C 
ENDROOT
BRANCH   5   8
ATOM      8  C   UNL     1      31.683  23.870  13.342  0.00  0.00    +0.038 A 
ATOM      9  C   UNL     1      32.776  23.855  14.208  0.00  0.00    +0.013 A 
ATOM     10  C   UNL     1      32.852  22.930  15.251  0.00  0.00    +0.002 A 
ATOM     11  C   UNL     1      31.768  22.102  15.526  0.00  0.00    +0.015 A 
ATOM     12  C   UNL     1      30.590  22.225  14.785  0.00  0.00    +0.017 A 
ATOM     13  C   UNL     1      30.567  23.076  13.670  0.00  0.00    +0.028 A 
BRANCH  12  14
ATOM     14  S   UNL     1      29.133  21.303  15.228  0.00  0.00    -0.016 S 
BRANCH  14  15
ATOM     15  C   UNL     1      28.467  22.317  16.565  0.00  0.00    +0.448 C 
ATOM     16  F   UNL     1      27.113  22.345  16.615  0.00  0.00    -0.160 F 
ATOM     17  F   UNL     1      28.898  21.874  17.770  0.00  0.00    -0.160 F 
ATOM     18  F   UNL     1      28.881  23.602  16.441  0.00  0.00    -0.160 F 
ENDBRANCH  14  15
ENDBRANCH  12  14
ENDBRANCH   5   8
BRANCH   1  20
ATOM     19  N   UNL     1      32.871  24.929   6.499  0.00  0.00    -0.329 N 
ATOM     20  C   UNL     1      32.853  24.295   7.703  0.00  0.00    +0.215 C 
ATOM     21  O   UNL     1      32.496  23.123   7.768  0.00  0.00    -0.276 OA
ATOM     22  H   UNL     1      32.632  24.368   5.691  0.00  0.00    +0.145 HD
ATOM     23  H   UNL     1      33.300  25.831   6.350  0.00  0.00    +0.145 HD
ENDBRANCH   1  20
TORSDOF 4
ENDMDL
MODEL 7
REMARK VINA RESULT:      -5.6      5.120      6.090
REMARK  Name = ZINC000826139982
REMARK  4 active torsions:
REMARK  status: ('A' for Active; 'I' for Inactive)
REMARK    1  A    between atoms: C_2  and  C_4
REMARK    2  A    between atoms: C_8  and  C_10
REMARK    3  A    between atoms: C_14  and  S_15
REMARK    4  A    between atoms: S_15  and  C_16
REMARK                            x       y       z     vdW  Elec       q    Type
REMARK                         _______ _______ _______ _____ _____    ______ ____
ROOT
ATOM      1  C   UNL     1      27.536  22.223  17.327  0.00  0.00    +0.093 C 
ATOM      2  C   UNL     1      27.139  20.759  17.142  0.00  0.00    +0.033 C 
ATOM      3  C   UNL     1      28.448  20.130  16.689  0.00  0.00    +0.109 C 
ATOM      4  N   UNL     1      28.953  21.116  15.744  0.00  0.00    -0.297 N 
ATOM      5  C   UNL     1      29.783  20.986  14.638  0.00  0.00    +0.247 C 
ATOM      6  O   UNL     1      30.199  21.983  14.041  0.00  0.00    -0.270 OA
ATOM      7  C   UNL     1      28.560  22.450  16.206  0.00  0.00    +0.120 C 
ENDROOT
BRANCH   5   8
ATOM      8  C   UNL     1      30.229  19.651  14.136  0.00  0.00    +0.038 A 
ATOM      9  C   UNL     1      29.665  18.443  14.549  0.00  0.00    +0.013 A 
ATOM     10  C   UNL     1      30.185  17.223  14.113  0.00  0.00    +0.002 A 
ATOM     11  C   UNL     1      31.187  17.199  13.147  0.00  0.00    +0.015 A 
ATOM     12  C   UNL     1      31.643  18.395  12.585  0.00  0.00    +0.017 A 
ATOM     13  C   UNL     1      31.194  19.615  13.112  0.00  0.00    +0.028 A 
BRANCH  12  14
ATOM     14  S   UNL     1      32.795  18.383  11.228  0.00  0.00    -0.016 S 
BRANCH  14  15
ATOM     15  C   UNL     1      34.268  17.704  12.022  0.00  0.00    +0.448 C 
ATOM     16  F   UNL     1      34.499  18.190  13.265  0.00  0.00    -0.160 F 
ATOM     17  F   UNL     1      34.181  16.357  12.133  0.00  0.00    -0.160 F 
ATOM     18  F   UNL     1      35.375  17.972  11.284  0.00  0.00    -0.160 F 
ENDBRANCH  14  15
ENDBRANCH  12  14
ENDBRANCH   5   8
BRANCH   1  20
ATOM     19  N   UNL     1      28.149  23.736  19.152  0.00  0.00    -0.329 N 
ATOM     20  C   UNL     1      28.104  22.446  18.721  0.00  0.00    +0.215 C 
ATOM     21  O   UNL     1      28.469  21.542  19.466  0.00  0.00    -0.276 OA
ATOM     22  H   UNL     1      28.441  23.880  20.110  0.00  0.00    +0.145 HD
ATOM     23  H   UNL     1      27.719  24.505  18.658  0.00  0.00    +0.145 HD
ENDBRANCH   1  20
TORSDOF 4
ENDMDL
MODEL 8
REMARK VINA RESULT:      -5.4      4.206      6.936
REMARK  Name = ZINC000826139982
REMARK  4 active torsions:
REMARK  status: ('A' for Active; 'I' for Inactive)
REMARK    1  A    between atoms: C_2  and  C_4
REMARK    2  A    between atoms: C_8  and  C_10
REMARK    3  A    between atoms: C_14  and  S_15
REMARK    4  A    between atoms: S_15  and  C_16
REMARK                            x       y       z     vdW  Elec       q    Type
REMARK                         _______ _______ _______ _____ _____    ______ ____
ROOT
ATOM      1  C   UNL     1      33.357  25.221   8.854  0.00  0.00    +0.093 C 
ATOM      2  C   UNL     1      34.344  24.465   9.742  0.00  0.00    +0.033 C 
ATOM      3  C   UNL     1      33.414  23.649  10.628  0.00  0.00    +0.109 C 
ATOM      4  N   UNL     1      32.373  24.614  10.952  0.00  0.00    -0.297 N 
ATOM      5  C   UNL     1      31.531  24.721  12.052  0.00  0.00    +0.247 C 
ATOM      6  O   UNL     1      30.617  25.550  12.069  0.00  0.00    -0.270 OA
ATOM      7  C   UNL     1      32.180  25.499   9.800  0.00  0.00    +0.120 C 
ENDROOT
BRANCH   5   8
ATOM      8  C   UNL     1      31.672  23.831  13.245  0.00  0.00    +0.038 A 
ATOM      9  C   UNL     1      32.616  24.033  14.252  0.00  0.00    +0.013 A 
ATOM     10  C   UNL     1      32.760  23.116  15.295  0.00  0.00    +0.002 A 
ATOM     11  C   UNL     1      31.864  22.059  15.419  0.00  0.00    +0.015 A 
ATOM     12  C   UNL     1      30.797  21.939  14.524  0.00  0.00    +0.017 A 
ATOM     13  C   UNL     1      30.731  22.798  13.417  0.00  0.00    +0.028 A 
BRANCH  12  14
ATOM     14  S   UNL     1      29.540  20.701  14.763  0.00  0.00    -0.016 S 
BRANCH  14  15
ATOM     15  C   UNL     1      30.372  19.227  14.133  0.00  0.00    +0.448 C 
ATOM     16  F   UNL     1      29.579  18.130  14.073  0.00  0.00    -0.160 F 
ATOM     17  F   UNL     1      30.851  19.439  12.884  0.00  0.00    -0.160 F 
ATOM     18  F   UNL     1      31.430  18.904  14.917  0.00  0.00    -0.160 F 
ENDBRANCH  14  15
ENDBRANCH  12  14
ENDBRANCH   5   8
BRANCH   1  20
ATOM     19  N   UNL     1      33.227  24.927   6.426  0.00  0.00    -0.329 N 
ATOM     20  C   UNL     1      32.977  24.378   7.646  0.00  0.00    +0.215 C 
ATOM     21  O   UNL     1      32.511  23.245   7.719  0.00  0.00    -0.276 OA
ATOM     22  H   UNL     1      33.061  24.335   5.623  0.00  0.00    +0.145 HD
ATOM     23  H   UNL     1      33.752  25.780   6.297  0.00  0.00    +0.145 HD
ENDBRANCH   1  20
TORSDOF 4
ENDMDL
MODEL 9
REMARK VINA RESULT:      -5.3      4.521      5.522
REMARK  Name = ZINC000826139982
REMARK  4 active torsions:
REMARK  status: ('A' for Active; 'I' for Inactive)
REMARK    1  A    between atoms: C_2  and  C_4
REMARK    2  A    between atoms: C_8  and  C_10
REMARK    3  A    between atoms: C_14  and  S_15
REMARK    4  A    between atoms: S_15  and  C_16
REMARK                            x       y       z     vdW  Elec       q    Type
REMARK                         _______ _______ _______ _____ _____    ______ ____
ROOT
ATOM      1  C   UNL     1      33.757  24.865  17.499  0.00  0.00    +0.093 C 
ATOM      2  C   UNL     1      32.470  24.212  18.002  0.00  0.00    +0.033 C 
ATOM      3  C   UNL     1      32.470  22.890  17.249  0.00  0.00    +0.109 C 
ATOM      4  N   UNL     1      32.883  23.296  15.914  0.00  0.00    -0.297 N 
ATOM      5  C   UNL     1      32.626  22.744  14.665  0.00  0.00    +0.247 C 
ATOM      6  O   UNL     1      33.188  23.176  13.656  0.00  0.00    -0.270 OA
ATOM      7  C   UNL     1      33.829  24.408  16.035  0.00  0.00    +0.120 C 
ENDROOT
BRANCH   5   8
ATOM      8  C   UNL     1      31.684  21.596  14.487  0.00  0.00    +0.038 A 
ATOM      9  C   UNL     1      30.357  21.742  14.086  0.00  0.00    +0.013 A 
ATOM     10  C   UNL     1      29.501  20.640  14.026  0.00  0.00    +0.002 A 
ATOM     11  C   UNL     1      30.002  19.358  14.230  0.00  0.00    +0.015 A 
ATOM     12  C   UNL     1      31.369  19.171  14.455  0.00  0.00    +0.017 A 
ATOM     13  C   UNL     1      32.196  20.291  14.626  0.00  0.00    +0.028 A 
BRANCH  12  14
ATOM     14  S   UNL     1      32.063  17.534  14.546  0.00  0.00    -0.016 S 
BRANCH  14  15
ATOM     15  C   UNL     1      31.669  16.893  12.904  0.00  0.00    +0.448 C 
ATOM     16  F   UNL     1      32.461  15.867  12.508  0.00  0.00    -0.160 F 
ATOM     17  F   UNL     1      30.390  16.448  12.852  0.00  0.00    -0.160 F 
ATOM     18  F   UNL     1      31.791  17.867  11.969  0.00  0.00    -0.160 F 
ENDBRANCH  14  15
ENDBRANCH  12  14
ENDBRANCH   5   8
BRANCH   1  20
ATOM     19  N   UNL     1      36.032  23.972  17.647  0.00  0.00    -0.329 N 
ATOM     20  C   UNL     1      34.943  24.411  18.336  0.00  0.00    +0.215 C 
ATOM     21  O   UNL     1      34.979  24.461  19.561  0.00  0.00    -0.276 OA
ATOM     22  H   UNL     1      36.854  23.755  18.195  0.00  0.00    +0.145 HD
ATOM     23  H   UNL     1      36.128  24.055  16.645  0.00  0.00    +0.145 HD
ENDBRANCH   1  20
TORSDOF 4
ENDMDL
