MODEL 1
REMARK VINA RESULT:      -6.7      0.000      0.000
REMARK  Name = ZINC000435351830
REMARK  5 active torsions:
REMARK  status: ('A' for Active; 'I' for Inactive)
REMARK    1  A    between atoms: C_2  and  C_3
REMARK    2  A    between atoms: C_7  and  C_8
REMARK    3  A    between atoms: C_8  and  C_9
REMARK    4  A    between atoms: N_11  and  C_12
REMARK    5  A    between atoms: C_12  and  C_13
REMARK                            x       y       z     vdW  Elec       q    Type
REMARK                         _______ _______ _______ _____ _____    ______ ____
ROOT
ATOM      1  C   UNL     1      33.292  21.190  13.943  0.00  0.00    +0.224 C 
ATOM      2  O   UNL     1      33.563  22.215  14.559  0.00  0.00    -0.275 OA
ATOM      3  N   UNL     1      33.800  20.866  12.712  0.00  0.00    -0.309 N 
ATOM      4  H   UNL     1      33.556  19.985  12.283  0.00  0.00    +0.149 HD
ENDROOT
BRANCH   1   5
ATOM      5  C   UNL     1      32.295  20.203  14.495  0.00  0.00    +0.072 C 
ATOM      6  C   UNL     1      31.163  20.727  15.373  0.00  0.00    +0.022 C 
ATOM      7  C   UNL     1      30.856  20.304  13.974  0.00  0.00    +0.022 C 
BRANCH   5  12
ATOM      8  C   UNL     1      32.759  16.443  13.890  0.00  0.00    +0.052 A 
ATOM      9  C   UNL     1      33.562  16.064  14.965  0.00  0.00    +0.019 A 
ATOM     10  C   UNL     1      34.012  17.029  15.867  0.00  0.00    +0.002 A 
ATOM     11  C   UNL     1      33.639  18.367  15.711  0.00  0.00    +0.005 A 
ATOM     12  C   UNL     1      32.803  18.771  14.655  0.00  0.00    -0.031 A 
ATOM     13  C   UNL     1      32.401  17.785  13.734  0.00  0.00    +0.023 A 
BRANCH   8  15
ATOM     14  N   UNL     1      31.862  14.668  12.225  0.00  0.00    -0.191 NA
ATOM     15  C   UNL     1      32.270  15.465  12.966  0.00  0.00    +0.099 C 
ENDBRANCH   8  15
ENDBRANCH   5  12
ENDBRANCH   1   5
BRANCH   3  16
ATOM     16  C   UNL     1      34.650  21.779  11.979  0.00  0.00    +0.159 C 
BRANCH  16  17
ATOM     17  C   UNL     1      33.966  22.404  10.784  0.00  0.00    +0.058 A 
ATOM     18  C   UNL     1      33.123  23.505  10.953  0.00  0.00    +0.028 A 
ATOM     19  C   UNL     1      32.483  24.048   9.840  0.00  0.00    +0.042 A 
ATOM     20  C   UNL     1      32.709  23.479   8.599  0.00  0.00    +0.141 A 
ATOM     21  F   UNL     1      32.106  23.970   7.509  0.00  0.00    -0.204 F 
ATOM     22  C   UNL     1      33.565  22.397   8.505  0.00  0.00    +0.149 A 
ATOM     23  N   UNL     1      34.205  21.848   9.566  0.00  0.00    -0.255 NA
ENDBRANCH  16  17
ENDBRANCH   3  16
TORSDOF 5
ENDMDL
MODEL 2
REMARK VINA RESULT:      -6.5      1.921      2.418
REMARK  Name = ZINC000435351830
REMARK  5 active torsions:
REMARK  status: ('A' for Active; 'I' for Inactive)
REMARK    1  A    between atoms: C_2  and  C_3
REMARK    2  A    between atoms: C_7  and  C_8
REMARK    3  A    between atoms: C_8  and  C_9
REMARK    4  A    between atoms: N_11  and  C_12
REMARK    5  A    between atoms: C_12  and  C_13
REMARK                            x       y       z     vdW  Elec       q    Type
REMARK                         _______ _______ _______ _____ _____    ______ ____
ROOT
ATOM      1  C   UNL     1      31.309  21.597  13.868  0.00  0.00    +0.224 C 
ATOM      2  O   UNL     1      30.802  20.904  12.992  0.00  0.00    -0.275 OA
ATOM      3  N   UNL     1      31.731  22.888  13.689  0.00  0.00    -0.309 N 
ATOM      4  H   UNL     1      32.108  23.407  14.469  0.00  0.00    +0.149 HD
ENDROOT
BRANCH   1   5
ATOM      5  C   UNL     1      31.570  21.030  15.240  0.00  0.00    +0.072 C 
ATOM      6  C   UNL     1      31.469  21.963  16.442  0.00  0.00    +0.022 C 
ATOM      7  C   UNL     1      30.379  20.971  16.204  0.00  0.00    +0.022 C 
BRANCH   5  12
ATOM      8  C   UNL     1      32.917  17.508  14.535  0.00  0.00    +0.052 A 
ATOM      9  C   UNL     1      33.993  17.417  15.419  0.00  0.00    +0.019 A 
ATOM     10  C   UNL     1      34.332  18.513  16.212  0.00  0.00    +0.002 A 
ATOM     11  C   UNL     1      33.582  19.691  16.143  0.00  0.00    +0.005 A 
ATOM     12  C   UNL     1      32.473  19.799  15.285  0.00  0.00    -0.031 A 
ATOM     13  C   UNL     1      32.181  18.694  14.463  0.00  0.00    +0.023 A 
BRANCH   8  15
ATOM     14  N   UNL     1      32.224  15.475  13.082  0.00  0.00    -0.191 NA
ATOM     15  C   UNL     1      32.542  16.387  13.728  0.00  0.00    +0.099 C 
ENDBRANCH   8  15
ENDBRANCH   5  12
ENDBRANCH   1   5
BRANCH   3  16
ATOM     16  C   UNL     1      31.691  23.526  12.391  0.00  0.00    +0.159 C 
BRANCH  16  17
ATOM     17  C   UNL     1      33.023  23.504  11.674  0.00  0.00    +0.058 A 
ATOM     18  C   UNL     1      33.110  23.911  10.340  0.00  0.00    +0.028 A 
ATOM     19  C   UNL     1      34.344  23.857   9.693  0.00  0.00    +0.042 A 
ATOM     20  C   UNL     1      35.446  23.406  10.398  0.00  0.00    +0.141 A 
ATOM     21  F   UNL     1      36.646  23.334   9.807  0.00  0.00    -0.204 F 
ATOM     22  C   UNL     1      35.288  23.031  11.720  0.00  0.00    +0.149 A 
ATOM     23  N   UNL     1      34.104  23.074  12.378  0.00  0.00    -0.255 NA
ENDBRANCH  16  17
ENDBRANCH   3  16
TORSDOF 5
ENDMDL
MODEL 3
REMARK VINA RESULT:      -6.3      2.137      2.564
REMARK  Name = ZINC000435351830
REMARK  5 active torsions:
REMARK  status: ('A' for Active; 'I' for Inactive)
REMARK    1  A    between atoms: C_2  and  C_3
REMARK    2  A    between atoms: C_7  and  C_8
REMARK    3  A    between atoms: C_8  and  C_9
REMARK    4  A    between atoms: N_11  and  C_12
REMARK    5  A    between atoms: C_12  and  C_13
REMARK                            x       y       z     vdW  Elec       q    Type
REMARK                         _______ _______ _______ _____ _____    ______ ____
ROOT
ATOM      1  C   UNL     1      32.064  21.238  13.574  0.00  0.00    +0.224 C 
ATOM      2  O   UNL     1      31.022  21.408  12.951  0.00  0.00    -0.275 OA
ATOM      3  N   UNL     1      33.312  21.551  13.101  0.00  0.00    -0.309 N 
ATOM      4  H   UNL     1      34.121  21.414  13.688  0.00  0.00    +0.149 HD
ENDROOT
BRANCH   1   5
ATOM      5  C   UNL     1      32.048  20.593  14.936  0.00  0.00    +0.072 C 
ATOM      6  C   UNL     1      31.930  21.489  16.164  0.00  0.00    +0.022 C 
ATOM      7  C   UNL     1      30.743  20.691  15.735  0.00  0.00    +0.022 C 
BRANCH   5  12
ATOM      8  C   UNL     1      32.878  16.907  14.269  0.00  0.00    +0.052 A 
ATOM      9  C   UNL     1      33.846  16.639  15.238  0.00  0.00    +0.019 A 
ATOM     10  C   UNL     1      34.284  17.660  16.081  0.00  0.00    +0.002 A 
ATOM     11  C   UNL     1      33.738  18.943  15.975  0.00  0.00    +0.005 A 
ATOM     12  C   UNL     1      32.739  19.233  15.029  0.00  0.00    -0.031 A 
ATOM     13  C   UNL     1      32.347  18.195  14.162  0.00  0.00    +0.023 A 
BRANCH   8  15
ATOM     14  N   UNL     1      32.008  15.033  12.703  0.00  0.00    -0.191 NA
ATOM     15  C   UNL     1      32.401  15.867  13.410  0.00  0.00    +0.099 C 
ENDBRANCH   8  15
ENDBRANCH   5  12
ENDBRANCH   1   5
BRANCH   3  16
ATOM     16  C   UNL     1      33.512  22.036  11.753  0.00  0.00    +0.159 C 
BRANCH  16  17
ATOM     17  C   UNL     1      33.847  20.940  10.767  0.00  0.00    +0.058 A 
ATOM     18  C   UNL     1      34.000  19.622  11.206  0.00  0.00    +0.028 A 
ATOM     19  C   UNL     1      34.335  18.633  10.282  0.00  0.00    +0.042 A 
ATOM     20  C   UNL     1      34.499  18.989   8.955  0.00  0.00    +0.141 A 
ATOM     21  F   UNL     1      34.828  18.067   8.042  0.00  0.00    -0.204 F 
ATOM     22  C   UNL     1      34.320  20.311   8.590  0.00  0.00    +0.149 A 
ATOM     23  N   UNL     1      33.993  21.296   9.462  0.00  0.00    -0.255 NA
ENDBRANCH  16  17
ENDBRANCH   3  16
TORSDOF 5
ENDMDL
MODEL 4
REMARK VINA RESULT:      -6.2      1.901      2.546
REMARK  Name = ZINC000435351830
REMARK  5 active torsions:
REMARK  status: ('A' for Active; 'I' for Inactive)
REMARK    1  A    between atoms: C_2  and  C_3
REMARK    2  A    between atoms: C_7  and  C_8
REMARK    3  A    between atoms: C_8  and  C_9
REMARK    4  A    between atoms: N_11  and  C_12
REMARK    5  A    between atoms: C_12  and  C_13
REMARK                            x       y       z     vdW  Elec       q    Type
REMARK                         _______ _______ _______ _____ _____    ______ ____
ROOT
ATOM      1  C   UNL     1      33.285  20.376  12.816  0.00  0.00    +0.224 C 
ATOM      2  O   UNL     1      33.565  19.555  11.950  0.00  0.00    -0.275 OA
ATOM      3  N   UNL     1      33.701  21.681  12.811  0.00  0.00    -0.309 N 
ATOM      4  H   UNL     1      33.400  22.308  13.544  0.00  0.00    +0.149 HD
ENDROOT
BRANCH   1   5
ATOM      5  C   UNL     1      32.482  19.972  14.026  0.00  0.00    +0.072 C 
ATOM      6  C   UNL     1      31.749  21.058  14.807  0.00  0.00    +0.022 C 
ATOM      7  C   UNL     1      30.960  20.137  13.935  0.00  0.00    +0.022 C 
BRANCH   5  12
ATOM      8  C   UNL     1      34.400  17.601  16.354  0.00  0.00    +0.052 A 
ATOM      9  C   UNL     1      33.945  16.348  15.944  0.00  0.00    +0.019 A 
ATOM     10  C   UNL     1      32.970  16.255  14.950  0.00  0.00    +0.002 A 
ATOM     11  C   UNL     1      32.468  17.413  14.347  0.00  0.00    +0.005 A 
ATOM     12  C   UNL     1      32.932  18.687  14.718  0.00  0.00    -0.031 A 
ATOM     13  C   UNL     1      33.883  18.753  15.754  0.00  0.00    +0.023 A 
BRANCH   8  15
ATOM     14  N   UNL     1      36.230  17.816  18.179  0.00  0.00    -0.191 NA
ATOM     15  C   UNL     1      35.415  17.715  17.356  0.00  0.00    +0.099 C 
ENDBRANCH   8  15
ENDBRANCH   5  12
ENDBRANCH   1   5
BRANCH   3  16
ATOM     16  C   UNL     1      34.604  22.186  11.800  0.00  0.00    +0.159 C 
BRANCH  16  17
ATOM     17  C   UNL     1      33.897  22.659  10.550  0.00  0.00    +0.058 A 
ATOM     18  C   UNL     1      32.996  23.725  10.612  0.00  0.00    +0.028 A 
ATOM     19  C   UNL     1      32.336  24.126   9.451  0.00  0.00    +0.042 A 
ATOM     20  C   UNL     1      32.602  23.455   8.269  0.00  0.00    +0.141 A 
ATOM     21  F   UNL     1      31.981  23.809   7.136  0.00  0.00    -0.204 F 
ATOM     22  C   UNL     1      33.515  22.416   8.280  0.00  0.00    +0.149 A 
ATOM     23  N   UNL     1      34.174  22.004   9.390  0.00  0.00    -0.255 NA
ENDBRANCH  16  17
ENDBRANCH   3  16
TORSDOF 5
ENDMDL
MODEL 5
REMARK VINA RESULT:      -6.2      2.682      3.430
REMARK  Name = ZINC000435351830
REMARK  5 active torsions:
REMARK  status: ('A' for Active; 'I' for Inactive)
REMARK    1  A    between atoms: C_2  and  C_3
REMARK    2  A    between atoms: C_7  and  C_8
REMARK    3  A    between atoms: C_8  and  C_9
REMARK    4  A    between atoms: N_11  and  C_12
REMARK    5  A    between atoms: C_12  and  C_13
REMARK                            x       y       z     vdW  Elec       q    Type
REMARK                         _______ _______ _______ _____ _____    ______ ____
ROOT
ATOM      1  C   UNL     1      31.319  21.593  13.877  0.00  0.00    +0.224 C 
ATOM      2  O   UNL     1      30.813  20.903  12.999  0.00  0.00    -0.275 OA
ATOM      3  N   UNL     1      31.771  22.873  13.693  0.00  0.00    -0.309 N 
ATOM      4  H   UNL     1      32.145  23.392  14.475  0.00  0.00    +0.149 HD
ENDROOT
BRANCH   1   5
ATOM      5  C   UNL     1      31.540  21.036  15.260  0.00  0.00    +0.072 C 
ATOM      6  C   UNL     1      31.472  21.990  16.447  0.00  0.00    +0.022 C 
ATOM      7  C   UNL     1      30.338  21.047  16.213  0.00  0.00    +0.022 C 
BRANCH   5  12
ATOM      8  C   UNL     1      34.358  18.618  16.225  0.00  0.00    +0.052 A 
ATOM      9  C   UNL     1      34.098  17.516  15.409  0.00  0.00    +0.019 A 
ATOM     10  C   UNL     1      32.977  17.518  14.579  0.00  0.00    +0.002 A 
ATOM     11  C   UNL     1      32.129  18.629  14.544  0.00  0.00    +0.005 A 
ATOM     12  C   UNL     1      32.384  19.765  15.331  0.00  0.00    -0.031 A 
ATOM     13  C   UNL     1      33.497  19.719  16.192  0.00  0.00    +0.023 A 
BRANCH   8  15
ATOM     14  N   UNL     1      36.447  18.673  17.760  0.00  0.00    -0.191 NA
ATOM     15  C   UNL     1      35.515  18.643  17.066  0.00  0.00    +0.099 C 
ENDBRANCH   8  15
ENDBRANCH   5  12
ENDBRANCH   1   5
BRANCH   3  16
ATOM     16  C   UNL     1      31.771  23.498  12.388  0.00  0.00    +0.159 C 
BRANCH  16  17
ATOM     17  C   UNL     1      33.122  23.461  11.708  0.00  0.00    +0.058 A 
ATOM     18  C   UNL     1      33.240  23.808  10.360  0.00  0.00    +0.028 A 
ATOM     19  C   UNL     1      34.492  23.741   9.749  0.00  0.00    +0.042 A 
ATOM     20  C   UNL     1      35.580  23.337  10.502  0.00  0.00    +0.141 A 
ATOM     21  F   UNL     1      36.795  23.254   9.947  0.00  0.00    -0.204 F 
ATOM     22  C   UNL     1      35.390  23.020  11.835  0.00  0.00    +0.149 A 
ATOM     23  N   UNL     1      34.189  23.077  12.460  0.00  0.00    -0.255 NA
ENDBRANCH  16  17
ENDBRANCH   3  16
TORSDOF 5
ENDMDL
MODEL 6
REMARK VINA RESULT:      -6.1      3.914      5.014
REMARK  Name = ZINC000435351830
REMARK  5 active torsions:
REMARK  status: ('A' for Active; 'I' for Inactive)
REMARK    1  A    between atoms: C_2  and  C_3
REMARK    2  A    between atoms: C_7  and  C_8
REMARK    3  A    between atoms: C_8  and  C_9
REMARK    4  A    between atoms: N_11  and  C_12
REMARK    5  A    between atoms: C_12  and  C_13
REMARK                            x       y       z     vdW  Elec       q    Type
REMARK                         _______ _______ _______ _____ _____    ______ ____
ROOT
ATOM      1  C   UNL     1      33.466  21.096  14.085  0.00  0.00    +0.224 C 
ATOM      2  O   UNL     1      34.323  20.763  13.274  0.00  0.00    -0.275 OA
ATOM      3  N   UNL     1      33.418  22.317  14.705  0.00  0.00    -0.309 N 
ATOM      4  H   UNL     1      32.659  22.531  15.337  0.00  0.00    +0.149 HD
ENDROOT
BRANCH   1   5
ATOM      5  C   UNL     1      32.397  20.125  14.516  0.00  0.00    +0.072 C 
ATOM      6  C   UNL     1      31.216  20.654  15.322  0.00  0.00    +0.022 C 
ATOM      7  C   UNL     1      31.009  20.296  13.887  0.00  0.00    +0.022 C 
BRANCH   5  12
ATOM      8  C   UNL     1      32.722  16.361  13.848  0.00  0.00    +0.052 A 
ATOM      9  C   UNL     1      33.492  15.931  14.929  0.00  0.00    +0.019 A 
ATOM     10  C   UNL     1      33.963  16.860  15.857  0.00  0.00    +0.002 A 
ATOM     11  C   UNL     1      33.646  18.215  15.719  0.00  0.00    +0.005 A 
ATOM     12  C   UNL     1      32.846  18.671  14.657  0.00  0.00    -0.031 A 
ATOM     13  C   UNL     1      32.420  17.719  13.712  0.00  0.00    +0.023 A 
BRANCH   8  15
ATOM     14  N   UNL     1      31.811  14.649  12.126  0.00  0.00    -0.191 NA
ATOM     15  C   UNL     1      32.212  15.420  12.898  0.00  0.00    +0.099 C 
ENDBRANCH   8  15
ENDBRANCH   5  12
ENDBRANCH   1   5
BRANCH   3  16
ATOM     16  C   UNL     1      34.457  23.306  14.516  0.00  0.00    +0.159 C 
BRANCH  16  17
ATOM     17  C   UNL     1      34.834  24.027  15.790  0.00  0.00    +0.058 A 
ATOM     18  C   UNL     1      34.388  23.552  17.026  0.00  0.00    +0.028 A 
ATOM     19  C   UNL     1      34.728  24.249  18.185  0.00  0.00    +0.042 A 
ATOM     20  C   UNL     1      35.503  25.390  18.072  0.00  0.00    +0.141 A 
ATOM     21  F   UNL     1      35.842  26.088  19.163  0.00  0.00    -0.204 F 
ATOM     22  C   UNL     1      35.919  25.795  16.817  0.00  0.00    +0.149 A 
ATOM     23  N   UNL     1      35.609  25.139  15.672  0.00  0.00    -0.255 NA
ENDBRANCH  16  17
ENDBRANCH   3  16
TORSDOF 5
ENDMDL
MODEL 7
REMARK VINA RESULT:      -6.1      3.602      8.265
REMARK  Name = ZINC000435351830
REMARK  5 active torsions:
REMARK  status: ('A' for Active; 'I' for Inactive)
REMARK    1  A    between atoms: C_2  and  C_3
REMARK    2  A    between atoms: C_7  and  C_8
REMARK    3  A    between atoms: C_8  and  C_9
REMARK    4  A    between atoms: N_11  and  C_12
REMARK    5  A    between atoms: C_12  and  C_13
REMARK                            x       y       z     vdW  Elec       q    Type
REMARK                         _______ _______ _______ _____ _____    ______ ____
ROOT
ATOM      1  C   UNL     1      32.818  23.578  10.317  0.00  0.00    +0.224 C 
ATOM      2  O   UNL     1      32.224  24.607  10.621  0.00  0.00    -0.275 OA
ATOM      3  N   UNL     1      33.068  22.543  11.180  0.00  0.00    -0.309 N 
ATOM      4  H   UNL     1      33.534  21.711  10.845  0.00  0.00    +0.149 HD
ENDROOT
BRANCH   1   5
ATOM      5  C   UNL     1      33.389  23.401   8.933  0.00  0.00    +0.072 C 
ATOM      6  C   UNL     1      32.891  22.236   8.085  0.00  0.00    +0.022 C 
ATOM      7  C   UNL     1      32.432  23.618   7.755  0.00  0.00    +0.022 C 
BRANCH   5  12
ATOM      8  C   UNL     1      36.293  25.907   8.850  0.00  0.00    +0.052 A 
ATOM      9  C   UNL     1      37.297  25.178   8.212  0.00  0.00    +0.019 A 
ATOM     10  C   UNL     1      37.069  23.850   7.854  0.00  0.00    +0.002 A 
ATOM     11  C   UNL     1      35.829  23.256   8.107  0.00  0.00    +0.005 A 
ATOM     12  C   UNL     1      34.788  23.977   8.719  0.00  0.00    -0.031 A 
ATOM     13  C   UNL     1      35.060  25.301   9.111  0.00  0.00    +0.023 A 
BRANCH   8  15
ATOM     14  N   UNL     1      36.666  28.394   9.482  0.00  0.00    -0.191 NA
ATOM     15  C   UNL     1      36.502  27.277   9.206  0.00  0.00    +0.099 C 
ENDBRANCH   8  15
ENDBRANCH   5  12
ENDBRANCH   1   5
BRANCH   3  16
ATOM     16  C   UNL     1      32.720  22.623  12.582  0.00  0.00    +0.159 C 
BRANCH  16  17
ATOM     17  C   UNL     1      32.567  21.268  13.237  0.00  0.00    +0.058 A 
ATOM     18  C   UNL     1      31.297  20.783  13.561  0.00  0.00    +0.028 A 
ATOM     19  C   UNL     1      31.183  19.543  14.188  0.00  0.00    +0.042 A 
ATOM     20  C   UNL     1      32.336  18.829  14.464  0.00  0.00    +0.141 A 
ATOM     21  F   UNL     1      32.265  17.637  15.072  0.00  0.00    -0.204 F 
ATOM     22  C   UNL     1      33.559  19.365  14.105  0.00  0.00    +0.149 A 
ATOM     23  N   UNL     1      33.704  20.566  13.492  0.00  0.00    -0.255 NA
ENDBRANCH  16  17
ENDBRANCH   3  16
TORSDOF 5
ENDMDL
MODEL 8
REMARK VINA RESULT:      -6.1      3.104      4.941
REMARK  Name = ZINC000435351830
REMARK  5 active torsions:
REMARK  status: ('A' for Active; 'I' for Inactive)
REMARK    1  A    between atoms: C_2  and  C_3
REMARK    2  A    between atoms: C_7  and  C_8
REMARK    3  A    between atoms: C_8  and  C_9
REMARK    4  A    between atoms: N_11  and  C_12
REMARK    5  A    between atoms: C_12  and  C_13
REMARK                            x       y       z     vdW  Elec       q    Type
REMARK                         _______ _______ _______ _____ _____    ______ ____
ROOT
ATOM      1  C   UNL     1      33.717  16.774  15.098  0.00  0.00    +0.224 C 
ATOM      2  O   UNL     1      32.637  16.515  15.617  0.00  0.00    -0.275 OA
ATOM      3  N   UNL     1      34.383  17.963  15.243  0.00  0.00    -0.309 N 
ATOM      4  H   UNL     1      35.287  18.089  14.812  0.00  0.00    +0.149 HD
ENDROOT
BRANCH   1   5
ATOM      5  C   UNL     1      34.385  15.784  14.178  0.00  0.00    +0.072 C 
ATOM      6  C   UNL     1      35.845  15.428  14.430  0.00  0.00    +0.022 C 
ATOM      7  C   UNL     1      34.788  14.435  14.786  0.00  0.00    +0.022 C 
BRANCH   5  12
ATOM      8  C   UNL     1      31.967  14.919  11.327  0.00  0.00    +0.052 A 
ATOM      9  C   UNL     1      32.684  15.314  10.198  0.00  0.00    +0.019 A 
ATOM     10  C   UNL     1      33.933  15.917  10.346  0.00  0.00    +0.002 A 
ATOM     11  C   UNL     1      34.478  16.103  11.620  0.00  0.00    +0.005 A 
ATOM     12  C   UNL     1      33.792  15.686  12.773  0.00  0.00    -0.031 A 
ATOM     13  C   UNL     1      32.514  15.120  12.598  0.00  0.00    +0.023 A 
BRANCH   8  15
ATOM     14  N   UNL     1      29.657  13.763  11.100  0.00  0.00    -0.191 NA
ATOM     15  C   UNL     1      30.694  14.279  11.194  0.00  0.00    +0.099 C 
ENDBRANCH   8  15
ENDBRANCH   5  12
ENDBRANCH   1   5
BRANCH   3  16
ATOM     16  C   UNL     1      33.804  19.073  15.969  0.00  0.00    +0.159 C 
BRANCH  16  17
ATOM     17  C   UNL     1      33.086  20.061  15.077  0.00  0.00    +0.058 A 
ATOM     18  C   UNL     1      31.746  19.858  14.738  0.00  0.00    +0.028 A 
ATOM     19  C   UNL     1      31.113  20.768  13.893  0.00  0.00    +0.042 A 
ATOM     20  C   UNL     1      31.836  21.850  13.420  0.00  0.00    +0.141 A 
ATOM     21  F   UNL     1      31.262  22.741  12.601  0.00  0.00    -0.204 F 
ATOM     22  C   UNL     1      33.155  21.994  13.807  0.00  0.00    +0.149 A 
ATOM     23  N   UNL     1      33.798  21.129  14.628  0.00  0.00    -0.255 NA
ENDBRANCH  16  17
ENDBRANCH   3  16
TORSDOF 5
ENDMDL
MODEL 9
REMARK VINA RESULT:      -6.0      3.981      6.741
REMARK  Name = ZINC000435351830
REMARK  5 active torsions:
REMARK  status: ('A' for Active; 'I' for Inactive)
REMARK    1  A    between atoms: C_2  and  C_3
REMARK    2  A    between atoms: C_7  and  C_8
REMARK    3  A    between atoms: C_8  and  C_9
REMARK    4  A    between atoms: N_11  and  C_12
REMARK    5  A    between atoms: C_12  and  C_13
REMARK                            x       y       z     vdW  Elec       q    Type
REMARK                         _______ _______ _______ _____ _____    ______ ____
ROOT
ATOM      1  C   UNL     1      32.277  21.791  15.291  0.00  0.00    +0.224 C 
ATOM      2  O   UNL     1      31.292  22.204  15.893  0.00  0.00    -0.275 OA
ATOM      3  N   UNL     1      33.558  21.832  15.777  0.00  0.00    -0.309 N 
ATOM      4  H   UNL     1      34.314  21.439  15.235  0.00  0.00    +0.149 HD
ENDROOT
BRANCH   1   5
ATOM      5  C   UNL     1      32.148  21.241  13.893  0.00  0.00    +0.072 C 
ATOM      6  C   UNL     1      32.487  19.774  13.655  0.00  0.00    +0.022 C 
ATOM      7  C   UNL     1      31.054  20.193  13.658  0.00  0.00    +0.022 C 
BRANCH   5  12
ATOM      8  C   UNL     1      33.541  23.065  10.819  0.00  0.00    +0.052 A 
ATOM      9  C   UNL     1      32.724  24.193  10.746  0.00  0.00    +0.019 A 
ATOM     10  C   UNL     1      31.677  24.351  11.653  0.00  0.00    +0.002 A 
ATOM     11  C   UNL     1      31.460  23.395  12.650  0.00  0.00    +0.005 A 
ATOM     12  C   UNL     1      32.288  22.264  12.767  0.00  0.00    -0.031 A 
ATOM     13  C   UNL     1      33.310  22.108  11.811  0.00  0.00    +0.023 A 
BRANCH   8  15
ATOM     14  N   UNL     1      35.530  22.758   9.183  0.00  0.00    -0.191 NA
ATOM     15  C   UNL     1      34.634  22.897   9.910  0.00  0.00    +0.099 C 
ENDBRANCH   8  15
ENDBRANCH   5  12
ENDBRANCH   1   5
BRANCH   3  16
ATOM     16  C   UNL     1      33.870  22.468  17.039  0.00  0.00    +0.159 C 
BRANCH  16  17
ATOM     17  C   UNL     1      34.696  23.725  16.885  0.00  0.00    +0.058 A 
ATOM     18  C   UNL     1      35.282  24.036  15.656  0.00  0.00    +0.028 A 
ATOM     19  C   UNL     1      36.061  25.187  15.546  0.00  0.00    +0.042 A 
ATOM     20  C   UNL     1      36.224  25.990  16.661  0.00  0.00    +0.141 A 
ATOM     21  F   UNL     1      36.970  27.100  16.594  0.00  0.00    -0.204 F 
ATOM     22  C   UNL     1      35.604  25.627  17.843  0.00  0.00    +0.149 A 
ATOM     23  N   UNL     1      34.839  24.517  17.982  0.00  0.00    -0.255 NA
ENDBRANCH  16  17
ENDBRANCH   3  16
TORSDOF 5
ENDMDL
