MODEL 1
REMARK VINA RESULT:      -7.1      0.000      0.000
REMARK  Name = ZINC000826139982
REMARK  4 active torsions:
REMARK  status: ('A' for Active; 'I' for Inactive)
REMARK    1  A    between atoms: C_2  and  C_4
REMARK    2  A    between atoms: C_8  and  C_10
REMARK    3  A    between atoms: C_14  and  S_15
REMARK    4  A    between atoms: S_15  and  C_16
REMARK                            x       y       z     vdW  Elec       q    Type
REMARK                         _______ _______ _______ _____ _____    ______ ____
ROOT
ATOM      1  C   UNL     1      29.110  22.465  16.647  0.00  0.00    +0.093 C 
ATOM      2  C   UNL     1      28.496  21.240  17.323  0.00  0.00    +0.033 C 
ATOM      3  C   UNL     1      29.663  20.264  17.331  0.00  0.00    +0.109 C 
ATOM      4  N   UNL     1      30.226  20.446  16.001  0.00  0.00    -0.297 N 
ATOM      5  C   UNL     1      30.940  19.583  15.180  0.00  0.00    +0.247 C 
ATOM      6  O   UNL     1      31.446  19.985  14.128  0.00  0.00    -0.270 OA
ATOM      7  C   UNL     1      30.065  21.850  15.613  0.00  0.00    +0.120 C 
ENDROOT
BRANCH   5   8
ATOM      8  C   UNL     1      31.151  18.147  15.537  0.00  0.00    +0.038 A 
ATOM      9  C   UNL     1      32.291  17.671  16.185  0.00  0.00    +0.013 A 
ATOM     10  C   UNL     1      32.472  16.305  16.410  0.00  0.00    +0.002 A 
ATOM     11  C   UNL     1      31.447  15.411  16.116  0.00  0.00    +0.015 A 
ATOM     12  C   UNL     1      30.224  15.886  15.633  0.00  0.00    +0.017 A 
ATOM     13  C   UNL     1      30.096  17.244  15.305  0.00  0.00    +0.028 A 
BRANCH  12  14
ATOM     14  S   UNL     1      28.841  14.786  15.414  0.00  0.00    -0.016 S 
BRANCH  14  15
ATOM     15  C   UNL     1      29.034  14.317  13.681  0.00  0.00    +0.448 C 
ATOM     16  F   UNL     1      28.797  15.325  12.807  0.00  0.00    -0.160 F 
ATOM     17  F   UNL     1      30.288  13.869  13.437  0.00  0.00    -0.160 F 
ATOM     18  F   UNL     1      28.182  13.312  13.360  0.00  0.00    -0.160 F 
ENDBRANCH  14  15
ENDBRANCH  12  14
ENDBRANCH   5   8
BRANCH   1  20
ATOM     19  N   UNL     1      29.064  23.731  18.743  0.00  0.00    -0.329 N 
ATOM     20  C   UNL     1      29.811  23.342  17.674  0.00  0.00    +0.215 C 
ATOM     21  O   UNL     1      30.993  23.666  17.606  0.00  0.00    -0.276 OA
ATOM     22  H   UNL     1      29.551  24.237  19.471  0.00  0.00    +0.145 HD
ATOM     23  H   UNL     1      28.142  23.370  18.939  0.00  0.00    +0.145 HD
ENDBRANCH   1  20
TORSDOF 4
ENDMDL
MODEL 2
REMARK VINA RESULT:      -6.8      1.232      1.399
REMARK  Name = ZINC000826139982
REMARK  4 active torsions:
REMARK  status: ('A' for Active; 'I' for Inactive)
REMARK    1  A    between atoms: C_2  and  C_4
REMARK    2  A    between atoms: C_8  and  C_10
REMARK    3  A    between atoms: C_14  and  S_15
REMARK    4  A    between atoms: S_15  and  C_16
REMARK                            x       y       z     vdW  Elec       q    Type
REMARK                         _______ _______ _______ _____ _____    ______ ____
ROOT
ATOM      1  C   UNL     1      28.949  22.470  16.822  0.00  0.00    +0.093 C 
ATOM      2  C   UNL     1      28.387  21.138  17.317  0.00  0.00    +0.033 C 
ATOM      3  C   UNL     1      29.627  20.256  17.335  0.00  0.00    +0.109 C 
ATOM      4  N   UNL     1      30.280  20.619  16.085  0.00  0.00    -0.297 N 
ATOM      5  C   UNL     1      31.129  19.902  15.251  0.00  0.00    +0.247 C 
ATOM      6  O   UNL     1      31.683  20.449  14.294  0.00  0.00    -0.270 OA
ATOM      7  C   UNL     1      30.034  22.040  15.824  0.00  0.00    +0.120 C 
ENDROOT
BRANCH   5   8
ATOM      8  C   UNL     1      31.429  18.456  15.483  0.00  0.00    +0.038 A 
ATOM      9  C   UNL     1      32.320  17.999  16.455  0.00  0.00    +0.013 A 
ATOM     10  C   UNL     1      32.629  16.642  16.563  0.00  0.00    +0.002 A 
ATOM     11  C   UNL     1      31.941  15.709  15.793  0.00  0.00    +0.015 A 
ATOM     12  C   UNL     1      30.915  16.128  14.941  0.00  0.00    +0.017 A 
ATOM     13  C   UNL     1      30.693  17.501  14.758  0.00  0.00    +0.028 A 
BRANCH  12  14
ATOM     14  S   UNL     1      29.904  14.942  14.078  0.00  0.00    -0.016 S 
BRANCH  14  15
ATOM     15  C   UNL     1      28.580  14.670  15.275  0.00  0.00    +0.448 C 
ATOM     16  F   UNL     1      29.007  14.209  16.476  0.00  0.00    -0.160 F 
ATOM     17  F   UNL     1      27.897  15.816  15.511  0.00  0.00    -0.160 F 
ATOM     18  F   UNL     1      27.688  13.764  14.802  0.00  0.00    -0.160 F 
ENDBRANCH  14  15
ENDBRANCH  12  14
ENDBRANCH   5   8
BRANCH   1  20
ATOM     19  N   UNL     1      28.581  23.656  18.933  0.00  0.00    -0.329 N 
ATOM     20  C   UNL     1      29.488  23.284  17.989  0.00  0.00    +0.215 C 
ATOM     21  O   UNL     1      30.672  23.574  18.135  0.00  0.00    -0.276 OA
ATOM     22  H   UNL     1      28.950  24.119  19.754  0.00  0.00    +0.145 HD
ATOM     23  H   UNL     1      27.630  23.317  18.956  0.00  0.00    +0.145 HD
ENDBRANCH   1  20
TORSDOF 4
ENDMDL
MODEL 3
REMARK VINA RESULT:      -6.4      1.887      2.366
REMARK  Name = ZINC000826139982
REMARK  4 active torsions:
REMARK  status: ('A' for Active; 'I' for Inactive)
REMARK    1  A    between atoms: C_2  and  C_4
REMARK    2  A    between atoms: C_8  and  C_10
REMARK    3  A    between atoms: C_14  and  S_15
REMARK    4  A    between atoms: S_15  and  C_16
REMARK                            x       y       z     vdW  Elec       q    Type
REMARK                         _______ _______ _______ _____ _____    ______ ____
ROOT
ATOM      1  C   UNL     1      31.616  22.180  15.068  0.00  0.00    +0.093 C 
ATOM      2  C   UNL     1      30.391  21.610  14.353  0.00  0.00    +0.033 C 
ATOM      3  C   UNL     1      30.081  20.377  15.188  0.00  0.00    +0.109 C 
ATOM      4  N   UNL     1      31.407  19.819  15.416  0.00  0.00    -0.297 N 
ATOM      5  C   UNL     1      31.827  18.514  15.644  0.00  0.00    +0.247 C 
ATOM      6  O   UNL     1      32.998  18.272  15.947  0.00  0.00    -0.270 OA
ATOM      7  C   UNL     1      32.365  20.921  15.529  0.00  0.00    +0.120 C 
ENDROOT
BRANCH   5   8
ATOM      8  C   UNL     1      30.887  17.355  15.560  0.00  0.00    +0.038 A 
ATOM      9  C   UNL     1      29.767  17.208  16.379  0.00  0.00    +0.013 A 
ATOM     10  C   UNL     1      28.977  16.058  16.315  0.00  0.00    +0.002 A 
ATOM     11  C   UNL     1      29.218  15.104  15.331  0.00  0.00    +0.015 A 
ATOM     12  C   UNL     1      30.223  15.316  14.384  0.00  0.00    +0.017 A 
ATOM     13  C   UNL     1      31.081  16.417  14.528  0.00  0.00    +0.028 A 
BRANCH  12  14
ATOM     14  S   UNL     1      30.437  14.198  13.015  0.00  0.00    -0.016 S 
BRANCH  14  15
ATOM     15  C   UNL     1      28.730  13.977  12.470  0.00  0.00    +0.448 C 
ATOM     16  F   UNL     1      28.025  13.089  13.212  0.00  0.00    -0.160 F 
ATOM     17  F   UNL     1      28.053  15.149  12.509  0.00  0.00    -0.160 F 
ATOM     18  F   UNL     1      28.691  13.535  11.188  0.00  0.00    -0.160 F 
ENDBRANCH  14  15
ENDBRANCH  12  14
ENDBRANCH   5   8
BRANCH   1  20
ATOM     19  N   UNL     1      30.200  23.979  15.937  0.00  0.00    -0.329 N 
ATOM     20  C   UNL     1      31.189  23.085  16.213  0.00  0.00    +0.215 C 
ATOM     21  O   UNL     1      31.650  23.019  17.348  0.00  0.00    -0.276 OA
ATOM     22  H   UNL     1      29.851  24.519  16.717  0.00  0.00    +0.145 HD
ATOM     23  H   UNL     1      29.671  23.976  15.076  0.00  0.00    +0.145 HD
ENDBRANCH   1  20
TORSDOF 4
ENDMDL
MODEL 4
REMARK VINA RESULT:      -6.2      1.357      1.638
REMARK  Name = ZINC000826139982
REMARK  4 active torsions:
REMARK  status: ('A' for Active; 'I' for Inactive)
REMARK    1  A    between atoms: C_2  and  C_4
REMARK    2  A    between atoms: C_8  and  C_10
REMARK    3  A    between atoms: C_14  and  S_15
REMARK    4  A    between atoms: S_15  and  C_16
REMARK                            x       y       z     vdW  Elec       q    Type
REMARK                         _______ _______ _______ _____ _____    ______ ____
ROOT
ATOM      1  C   UNL     1      29.789  22.664  16.266  0.00  0.00    +0.093 C 
ATOM      2  C   UNL     1      28.697  21.711  16.752  0.00  0.00    +0.033 C 
ATOM      3  C   UNL     1      29.449  20.393  16.856  0.00  0.00    +0.109 C 
ATOM      4  N   UNL     1      30.248  20.398  15.639  0.00  0.00    -0.297 N 
ATOM      5  C   UNL     1      30.752  19.358  14.868  0.00  0.00    +0.247 C 
ATOM      6  O   UNL     1      31.526  19.583  13.933  0.00  0.00    -0.270 OA
ATOM      7  C   UNL     1      30.634  21.779  15.338  0.00  0.00    +0.120 C 
ENDROOT
BRANCH   5   8
ATOM      8  C   UNL     1      30.406  17.930  15.143  0.00  0.00    +0.038 A 
ATOM      9  C   UNL     1      29.713  17.509  16.277  0.00  0.00    +0.013 A 
ATOM     10  C   UNL     1      29.499  16.151  16.524  0.00  0.00    +0.002 A 
ATOM     11  C   UNL     1      29.853  15.206  15.565  0.00  0.00    +0.015 A 
ATOM     12  C   UNL     1      30.385  15.620  14.341  0.00  0.00    +0.017 A 
ATOM     13  C   UNL     1      30.700  16.974  14.152  0.00  0.00    +0.028 A 
BRANCH  12  14
ATOM     14  S   UNL     1      30.684  14.448  13.034  0.00  0.00    -0.016 S 
BRANCH  14  15
ATOM     15  C   UNL     1      29.000  14.101  12.481  0.00  0.00    +0.448 C 
ATOM     16  F   UNL     1      28.424  13.042  13.098  0.00  0.00    -0.160 F 
ATOM     17  F   UNL     1      28.192  15.168  12.689  0.00  0.00    -0.160 F 
ATOM     18  F   UNL     1      28.979  13.838  11.150  0.00  0.00    -0.160 F 
ENDBRANCH  14  15
ENDBRANCH  12  14
ENDBRANCH   5   8
BRANCH   1  20
ATOM     19  N   UNL     1      29.869  24.006  18.312  0.00  0.00    -0.329 N 
ATOM     20  C   UNL     1      30.568  23.224  17.446  0.00  0.00    +0.215 C 
ATOM     21  O   UNL     1      31.749  22.975  17.668  0.00  0.00    -0.276 OA
ATOM     22  H   UNL     1      30.360  24.306  19.145  0.00  0.00    +0.145 HD
ATOM     23  H   UNL     1      28.866  24.119  18.276  0.00  0.00    +0.145 HD
ENDBRANCH   1  20
TORSDOF 4
ENDMDL
MODEL 5
REMARK VINA RESULT:      -6.2      5.767      7.072
REMARK  Name = ZINC000826139982
REMARK  4 active torsions:
REMARK  status: ('A' for Active; 'I' for Inactive)
REMARK    1  A    between atoms: C_2  and  C_4
REMARK    2  A    between atoms: C_8  and  C_10
REMARK    3  A    between atoms: C_14  and  S_15
REMARK    4  A    between atoms: S_15  and  C_16
REMARK                            x       y       z     vdW  Elec       q    Type
REMARK                         _______ _______ _______ _____ _____    ______ ____
ROOT
ATOM      1  C   UNL     1      29.030  21.959  17.716  0.00  0.00    +0.093 C 
ATOM      2  C   UNL     1      30.329  22.745  17.891  0.00  0.00    +0.033 C 
ATOM      3  C   UNL     1      30.519  23.355  16.510  0.00  0.00    +0.109 C 
ATOM      4  N   UNL     1      30.179  22.244  15.633  0.00  0.00    -0.297 N 
ATOM      5  C   UNL     1      30.590  21.934  14.343  0.00  0.00    +0.247 C 
ATOM      6  O   UNL     1      30.073  21.001  13.723  0.00  0.00    -0.270 OA
ATOM      7  C   UNL     1      29.122  21.453  16.269  0.00  0.00    +0.120 C 
ENDROOT
BRANCH   5   8
ATOM      8  C   UNL     1      31.650  22.720  13.641  0.00  0.00    +0.038 A 
ATOM      9  C   UNL     1      32.983  22.757  14.049  0.00  0.00    +0.013 A 
ATOM     10  C   UNL     1      33.908  23.582  13.407  0.00  0.00    +0.002 A 
ATOM     11  C   UNL     1      33.541  24.273  12.256  0.00  0.00    +0.015 A 
ATOM     12  C   UNL     1      32.259  24.110  11.723  0.00  0.00    +0.017 A 
ATOM     13  C   UNL     1      31.307  23.370  12.439  0.00  0.00    +0.028 A 
BRANCH  12  14
ATOM     14  S   UNL     1      31.821  24.844  10.161  0.00  0.00    -0.016 S 
BRANCH  14  15
ATOM     15  C   UNL     1      32.656  23.736   9.004  0.00  0.00    +0.448 C 
ATOM     16  F   UNL     1      32.672  22.440   9.396  0.00  0.00    -0.160 F 
ATOM     17  F   UNL     1      32.065  23.774   7.786  0.00  0.00    -0.160 F 
ATOM     18  F   UNL     1      33.948  24.110   8.833  0.00  0.00    -0.160 F 
ENDBRANCH  14  15
ENDBRANCH  12  14
ENDBRANCH   5   8
BRANCH   1  20
ATOM     19  N   UNL     1      27.915  23.689  19.043  0.00  0.00    -0.329 N 
ATOM     20  C   UNL     1      27.829  22.857  17.969  0.00  0.00    +0.215 C 
ATOM     21  O   UNL     1      26.837  22.896  17.247  0.00  0.00    -0.276 OA
ATOM     22  H   UNL     1      27.159  24.351  19.161  0.00  0.00    +0.145 HD
ATOM     23  H   UNL     1      28.761  23.821  19.578  0.00  0.00    +0.145 HD
ENDBRANCH   1  20
TORSDOF 4
ENDMDL
MODEL 6
REMARK VINA RESULT:      -6.1      2.086      2.407
REMARK  Name = ZINC000826139982
REMARK  4 active torsions:
REMARK  status: ('A' for Active; 'I' for Inactive)
REMARK    1  A    between atoms: C_2  and  C_4
REMARK    2  A    between atoms: C_8  and  C_10
REMARK    3  A    between atoms: C_14  and  S_15
REMARK    4  A    between atoms: S_15  and  C_16
REMARK                            x       y       z     vdW  Elec       q    Type
REMARK                         _______ _______ _______ _____ _____    ______ ____
ROOT
ATOM      1  C   UNL     1      30.559  21.850  17.159  0.00  0.00    +0.093 C 
ATOM      2  C   UNL     1      31.837  21.749  16.326  0.00  0.00    +0.033 C 
ATOM      3  C   UNL     1      31.441  20.741  15.258  0.00  0.00    +0.109 C 
ATOM      4  N   UNL     1      30.716  19.742  16.032  0.00  0.00    -0.297 N 
ATOM      5  C   UNL     1      30.524  18.382  15.824  0.00  0.00    +0.247 C 
ATOM      6  O   UNL     1      29.756  17.736  16.543  0.00  0.00    -0.270 OA
ATOM      7  C   UNL     1      30.004  20.419  17.119  0.00  0.00    +0.120 C 
ENDROOT
BRANCH   5   8
ATOM      8  C   UNL     1      31.210  17.647  14.718  0.00  0.00    +0.038 A 
ATOM      9  C   UNL     1      32.344  18.124  14.060  0.00  0.00    +0.013 A 
ATOM     10  C   UNL     1      32.886  17.435  12.974  0.00  0.00    +0.002 A 
ATOM     11  C   UNL     1      32.384  16.185  12.623  0.00  0.00    +0.015 A 
ATOM     12  C   UNL     1      31.365  15.604  13.382  0.00  0.00    +0.017 A 
ATOM     13  C   UNL     1      30.754  16.354  14.398  0.00  0.00    +0.028 A 
BRANCH  12  14
ATOM     14  S   UNL     1      30.826  13.937  13.062  0.00  0.00    -0.016 S 
BRANCH  14  15
ATOM     15  C   UNL     1      29.032  14.129  13.122  0.00  0.00    +0.448 C 
ATOM     16  F   UNL     1      28.576  15.245  12.504  0.00  0.00    -0.160 F 
ATOM     17  F   UNL     1      28.412  13.075  12.540  0.00  0.00    -0.160 F 
ATOM     18  F   UNL     1      28.600  14.187  14.406  0.00  0.00    -0.160 F 
ENDBRANCH  14  15
ENDBRANCH  12  14
ENDBRANCH   5   8
BRANCH   1  20
ATOM     19  N   UNL     1      30.201  23.961  15.971  0.00  0.00    -0.329 N 
ATOM     20  C   UNL     1      29.616  22.883  16.560  0.00  0.00    +0.215 C 
ATOM     21  O   UNL     1      28.394  22.770  16.546  0.00  0.00    -0.276 OA
ATOM     22  H   UNL     1      29.582  24.604  15.493  0.00  0.00    +0.145 HD
ATOM     23  H   UNL     1      31.195  24.036  15.807  0.00  0.00    +0.145 HD
ENDBRANCH   1  20
TORSDOF 4
ENDMDL
MODEL 7
REMARK VINA RESULT:      -6.1      2.347      2.912
REMARK  Name = ZINC000826139982
REMARK  4 active torsions:
REMARK  status: ('A' for Active; 'I' for Inactive)
REMARK    1  A    between atoms: C_2  and  C_4
REMARK    2  A    between atoms: C_8  and  C_10
REMARK    3  A    between atoms: C_14  and  S_15
REMARK    4  A    between atoms: S_15  and  C_16
REMARK                            x       y       z     vdW  Elec       q    Type
REMARK                         _______ _______ _______ _____ _____    ______ ____
ROOT
ATOM      1  C   UNL     1      31.762  21.692  14.724  0.00  0.00    +0.093 C 
ATOM      2  C   UNL     1      30.553  21.174  13.946  0.00  0.00    +0.033 C 
ATOM      3  C   UNL     1      30.128  19.974  14.779  0.00  0.00    +0.109 C 
ATOM      4  N   UNL     1      31.406  19.352  15.095  0.00  0.00    -0.297 N 
ATOM      5  C   UNL     1      31.741  18.031  15.368  0.00  0.00    +0.247 C 
ATOM      6  O   UNL     1      32.878  17.734  15.745  0.00  0.00    -0.270 OA
ATOM      7  C   UNL     1      32.414  20.404  15.250  0.00  0.00    +0.120 C 
ENDROOT
BRANCH   5   8
ATOM      8  C   UNL     1      30.747  16.922  15.245  0.00  0.00    +0.038 A 
ATOM      9  C   UNL     1      29.775  16.646  16.206  0.00  0.00    +0.013 A 
ATOM     10  C   UNL     1      28.933  15.539  16.078  0.00  0.00    +0.002 A 
ATOM     11  C   UNL     1      28.960  14.777  14.914  0.00  0.00    +0.015 A 
ATOM     12  C   UNL     1      29.800  15.143  13.860  0.00  0.00    +0.017 A 
ATOM     13  C   UNL     1      30.720  16.185  14.045  0.00  0.00    +0.028 A 
BRANCH  12  14
ATOM     14  S   UNL     1      29.728  14.290  12.298  0.00  0.00    -0.016 S 
BRANCH  14  15
ATOM     15  C   UNL     1      31.392  13.597  12.197  0.00  0.00    +0.448 C 
ATOM     16  F   UNL     1      31.943  13.307  13.400  0.00  0.00    -0.160 F 
ATOM     17  F   UNL     1      31.397  12.453  11.473  0.00  0.00    -0.160 F 
ATOM     18  F   UNL     1      32.234  14.463  11.579  0.00  0.00    -0.160 F 
ENDBRANCH  14  15
ENDBRANCH  12  14
ENDBRANCH   5   8
BRANCH   1  20
ATOM     19  N   UNL     1      30.609  23.732  15.432  0.00  0.00    -0.329 N 
ATOM     20  C   UNL     1      31.316  22.639  15.828  0.00  0.00    +0.215 C 
ATOM     21  O   UNL     1      31.521  22.446  17.022  0.00  0.00    -0.276 OA
ATOM     22  H   UNL     1      30.234  24.316  16.168  0.00  0.00    +0.145 HD
ATOM     23  H   UNL     1      30.270  23.866  14.490  0.00  0.00    +0.145 HD
ENDBRANCH   1  20
TORSDOF 4
ENDMDL
MODEL 8
REMARK VINA RESULT:      -6.0      5.421      7.006
REMARK  Name = ZINC000826139982
REMARK  4 active torsions:
REMARK  status: ('A' for Active; 'I' for Inactive)
REMARK    1  A    between atoms: C_2  and  C_4
REMARK    2  A    between atoms: C_8  and  C_10
REMARK    3  A    between atoms: C_14  and  S_15
REMARK    4  A    between atoms: S_15  and  C_16
REMARK                            x       y       z     vdW  Elec       q    Type
REMARK                         _______ _______ _______ _____ _____    ______ ____
ROOT
ATOM      1  C   UNL     1      30.907  21.167  16.393  0.00  0.00    +0.093 C 
ATOM      2  C   UNL     1      29.878  21.819  15.470  0.00  0.00    +0.033 C 
ATOM      3  C   UNL     1      30.539  21.677  14.107  0.00  0.00    +0.109 C 
ATOM      4  N   UNL     1      31.924  22.021  14.399  0.00  0.00    -0.297 N 
ATOM      5  C   UNL     1      32.922  22.567  13.602  0.00  0.00    +0.247 C 
ATOM      6  O   UNL     1      34.080  22.660  14.016  0.00  0.00    -0.270 OA
ATOM      7  C   UNL     1      32.246  21.556  15.751  0.00  0.00    +0.120 C 
ENDROOT
BRANCH   5   8
ATOM      8  C   UNL     1      32.651  23.040  12.210  0.00  0.00    +0.038 A 
ATOM      9  C   UNL     1      31.922  24.191  11.913  0.00  0.00    +0.013 A 
ATOM     10  C   UNL     1      31.624  24.531  10.592  0.00  0.00    +0.002 A 
ATOM     11  C   UNL     1      32.176  23.800   9.545  0.00  0.00    +0.015 A 
ATOM     12  C   UNL     1      33.058  22.750   9.816  0.00  0.00    +0.017 A 
ATOM     13  C   UNL     1      33.258  22.347  11.144  0.00  0.00    +0.028 A 
BRANCH  12  14
ATOM     14  S   UNL     1      33.911  21.912   8.496  0.00  0.00    -0.016 S 
BRANCH  14  15
ATOM     15  C   UNL     1      32.700  20.656   8.035  0.00  0.00    +0.448 C 
ATOM     16  F   UNL     1      31.492  21.157   7.680  0.00  0.00    -0.160 F 
ATOM     17  F   UNL     1      33.143  19.916   6.990  0.00  0.00    -0.160 F 
ATOM     18  F   UNL     1      32.482  19.801   9.065  0.00  0.00    -0.160 F 
ENDBRANCH  14  15
ENDBRANCH  12  14
ENDBRANCH   5   8
BRANCH   1  20
ATOM     19  N   UNL     1      29.499  19.257  16.998  0.00  0.00    -0.329 N 
ATOM     20  C   UNL     1      30.681  19.664  16.461  0.00  0.00    +0.215 C 
ATOM     21  O   UNL     1      31.472  18.831  16.028  0.00  0.00    -0.276 OA
ATOM     22  H   UNL     1      29.306  18.264  16.963  0.00  0.00    +0.145 HD
ATOM     23  H   UNL     1      28.743  19.888  17.224  0.00  0.00    +0.145 HD
ENDBRANCH   1  20
TORSDOF 4
ENDMDL
MODEL 9
REMARK VINA RESULT:      -6.0      3.038      4.532
REMARK  Name = ZINC000826139982
REMARK  4 active torsions:
REMARK  status: ('A' for Active; 'I' for Inactive)
REMARK    1  A    between atoms: C_2  and  C_4
REMARK    2  A    between atoms: C_8  and  C_10
REMARK    3  A    between atoms: C_14  and  S_15
REMARK    4  A    between atoms: S_15  and  C_16
REMARK                            x       y       z     vdW  Elec       q    Type
REMARK                         _______ _______ _______ _____ _____    ______ ____
ROOT
ATOM      1  C   UNL     1      30.950  19.226  16.448  0.00  0.00    +0.093 C 
ATOM      2  C   UNL     1      31.585  19.001  15.076  0.00  0.00    +0.033 C 
ATOM      3  C   UNL     1      30.603  18.038  14.426  0.00  0.00    +0.109 C 
ATOM      4  N   UNL     1      30.313  17.114  15.513  0.00  0.00    -0.297 N 
ATOM      5  C   UNL     1      29.926  15.780  15.506  0.00  0.00    +0.247 C 
ATOM      6  O   UNL     1      29.600  15.212  16.551  0.00  0.00    -0.270 OA
ATOM      7  C   UNL     1      30.339  17.856  16.776  0.00  0.00    +0.120 C 
ENDROOT
BRANCH   5   8
ATOM      8  C   UNL     1      29.864  14.982  14.243  0.00  0.00    +0.038 A 
ATOM      9  C   UNL     1      28.678  14.705  13.563  0.00  0.00    +0.013 A 
ATOM     10  C   UNL     1      28.672  13.878  12.438  0.00  0.00    +0.002 A 
ATOM     11  C   UNL     1      29.875  13.432  11.898  0.00  0.00    +0.015 A 
ATOM     12  C   UNL     1      31.087  13.846  12.456  0.00  0.00    +0.017 A 
ATOM     13  C   UNL     1      31.077  14.582  13.651  0.00  0.00    +0.028 A 
BRANCH  12  14
ATOM     14  S   UNL     1      32.636  13.433  11.682  0.00  0.00    -0.016 S 
BRANCH  14  15
ATOM     15  C   UNL     1      32.998  14.958  10.784  0.00  0.00    +0.448 C 
ATOM     16  F   UNL     1      33.840  14.794   9.735  0.00  0.00    -0.160 F 
ATOM     17  F   UNL     1      31.864  15.515  10.297  0.00  0.00    -0.160 F 
ATOM     18  F   UNL     1      33.571  15.872  11.606  0.00  0.00    -0.160 F 
ENDBRANCH  14  15
ENDBRANCH  12  14
ENDBRANCH   5   8
BRANCH   1  20
ATOM     19  N   UNL     1      28.870  20.251  17.236  0.00  0.00    -0.329 N 
ATOM     20  C   UNL     1      29.924  20.347  16.380  0.00  0.00    +0.215 C 
ATOM     21  O   UNL     1      30.023  21.324  15.644  0.00  0.00    -0.276 OA
ATOM     22  H   UNL     1      28.234  21.037  17.257  0.00  0.00    +0.145 HD
ATOM     23  H   UNL     1      28.812  19.562  17.972  0.00  0.00    +0.145 HD
ENDBRANCH   1  20
TORSDOF 4
ENDMDL
