MODEL 1
REMARK VINA RESULT:      -7.2      0.000      0.000
REMARK  Name = ZINC000826139982
REMARK  4 active torsions:
REMARK  status: ('A' for Active; 'I' for Inactive)
REMARK    1  A    between atoms: C_2  and  C_4
REMARK    2  A    between atoms: C_8  and  C_10
REMARK    3  A    between atoms: C_14  and  S_15
REMARK    4  A    between atoms: S_15  and  C_16
REMARK                            x       y       z     vdW  Elec       q    Type
REMARK                         _______ _______ _______ _____ _____    ______ ____
ROOT
ATOM      1  C   UNL     1      31.427  14.942  12.380  0.00  0.00    +0.093 C 
ATOM      2  C   UNL     1      30.295  14.020  11.911  0.00  0.00    +0.033 C 
ATOM      3  C   UNL     1      29.008  14.776  12.211  0.00  0.00    +0.109 C 
ATOM      4  N   UNL     1      29.351  15.632  13.327  0.00  0.00    -0.297 N 
ATOM      5  C   UNL     1      28.388  16.078  14.224  0.00  0.00    +0.247 C 
ATOM      6  O   UNL     1      27.220  15.696  14.155  0.00  0.00    -0.270 OA
ATOM      7  C   UNL     1      30.752  16.010  13.229  0.00  0.00    +0.120 C 
ENDROOT
BRANCH   5   8
ATOM      8  C   UNL     1      28.755  16.987  15.360  0.00  0.00    +0.038 A 
ATOM      9  C   UNL     1      29.229  16.529  16.593  0.00  0.00    +0.013 A 
ATOM     10  C   UNL     1      29.437  17.409  17.654  0.00  0.00    +0.002 A 
ATOM     11  C   UNL     1      29.274  18.777  17.463  0.00  0.00    +0.015 A 
ATOM     12  C   UNL     1      28.936  19.273  16.200  0.00  0.00    +0.017 A 
ATOM     13  C   UNL     1      28.642  18.374  15.164  0.00  0.00    +0.028 A 
BRANCH  12  14
ATOM     14  S   UNL     1      28.835  21.027  15.909  0.00  0.00    -0.016 S 
BRANCH  14  15
ATOM     15  C   UNL     1      27.594  21.513  17.126  0.00  0.00    +0.448 C 
ATOM     16  F   UNL     1      27.093  22.757  16.937  0.00  0.00    -0.160 F 
ATOM     17  F   UNL     1      26.544  20.657  17.113  0.00  0.00    -0.160 F 
ATOM     18  F   UNL     1      28.116  21.484  18.377  0.00  0.00    -0.160 F 
ENDBRANCH  14  15
ENDBRANCH  12  14
ENDBRANCH   5   8
BRANCH   1  20
ATOM     19  N   UNL     1      33.549  15.124  11.211  0.00  0.00    -0.329 N 
ATOM     20  C   UNL     1      32.252  15.542  11.257  0.00  0.00    +0.215 C 
ATOM     21  O   UNL     1      31.850  16.385  10.469  0.00  0.00    -0.276 OA
ATOM     22  H   UNL     1      34.153  15.552  10.520  0.00  0.00    +0.145 HD
ATOM     23  H   UNL     1      33.953  14.484  11.880  0.00  0.00    +0.145 HD
ENDBRANCH   1  20
TORSDOF 4
ENDMDL
MODEL 2
REMARK VINA RESULT:      -7.0      5.348      7.323
REMARK  Name = ZINC000826139982
REMARK  4 active torsions:
REMARK  status: ('A' for Active; 'I' for Inactive)
REMARK    1  A    between atoms: C_2  and  C_4
REMARK    2  A    between atoms: C_8  and  C_10
REMARK    3  A    between atoms: C_14  and  S_15
REMARK    4  A    between atoms: S_15  and  C_16
REMARK                            x       y       z     vdW  Elec       q    Type
REMARK                         _______ _______ _______ _____ _____    ______ ____
ROOT
ATOM      1  C   UNL     1      33.042  21.387  18.649  0.00  0.00    +0.093 C 
ATOM      2  C   UNL     1      33.768  22.141  17.530  0.00  0.00    +0.033 C 
ATOM      3  C   UNL     1      32.673  22.837  16.734  0.00  0.00    +0.109 C 
ATOM      4  N   UNL     1      31.505  22.006  16.934  0.00  0.00    -0.297 N 
ATOM      5  C   UNL     1      30.470  21.970  16.007  0.00  0.00    +0.247 C 
ATOM      6  O   UNL     1      30.543  22.579  14.940  0.00  0.00    -0.270 OA
ATOM      7  C   UNL     1      31.571  21.395  18.252  0.00  0.00    +0.120 C 
ENDROOT
BRANCH   5   8
ATOM      8  C   UNL     1      29.254  21.124  16.243  0.00  0.00    +0.038 A 
ATOM      9  C   UNL     1      28.006  21.648  16.592  0.00  0.00    +0.013 A 
ATOM     10  C   UNL     1      26.941  20.810  16.921  0.00  0.00    +0.002 A 
ATOM     11  C   UNL     1      27.081  19.432  16.800  0.00  0.00    +0.015 A 
ATOM     12  C   UNL     1      28.276  18.888  16.318  0.00  0.00    +0.017 A 
ATOM     13  C   UNL     1      29.369  19.733  16.077  0.00  0.00    +0.028 A 
BRANCH  12  14
ATOM     14  S   UNL     1      28.434  17.135  16.049  0.00  0.00    -0.016 S 
BRANCH  14  15
ATOM     15  C   UNL     1      29.094  16.594  17.641  0.00  0.00    +0.448 C 
ATOM     16  F   UNL     1      29.112  17.562  18.588  0.00  0.00    -0.160 F 
ATOM     17  F   UNL     1      28.368  15.565  18.139  0.00  0.00    -0.160 F 
ATOM     18  F   UNL     1      30.368  16.153  17.503  0.00  0.00    -0.160 F 
ENDBRANCH  14  15
ENDBRANCH  12  14
ENDBRANCH   5   8
BRANCH   1  20
ATOM     19  N   UNL     1      32.393  22.950  20.392  0.00  0.00    -0.329 N 
ATOM     20  C   UNL     1      33.261  21.961  20.037  0.00  0.00    +0.215 C 
ATOM     21  O   UNL     1      34.169  21.640  20.789  0.00  0.00    -0.276 OA
ATOM     22  H   UNL     1      32.547  23.409  21.282  0.00  0.00    +0.145 HD
ATOM     23  H   UNL     1      31.670  23.304  19.782  0.00  0.00    +0.145 HD
ENDBRANCH   1  20
TORSDOF 4
ENDMDL
MODEL 3
REMARK VINA RESULT:      -6.9      4.710      7.131
REMARK  Name = ZINC000826139982
REMARK  4 active torsions:
REMARK  status: ('A' for Active; 'I' for Inactive)
REMARK    1  A    between atoms: C_2  and  C_4
REMARK    2  A    between atoms: C_8  and  C_10
REMARK    3  A    between atoms: C_14  and  S_15
REMARK    4  A    between atoms: S_15  and  C_16
REMARK                            x       y       z     vdW  Elec       q    Type
REMARK                         _______ _______ _______ _____ _____    ______ ____
ROOT
ATOM      1  C   UNL     1      29.313  22.278  17.041  0.00  0.00    +0.093 C 
ATOM      2  C   UNL     1      27.792  22.409  16.910  0.00  0.00    +0.033 C 
ATOM      3  C   UNL     1      27.241  21.015  17.176  0.00  0.00    +0.109 C 
ATOM      4  N   UNL     1      28.316  20.127  16.784  0.00  0.00    -0.297 N 
ATOM      5  C   UNL     1      28.068  18.823  16.374  0.00  0.00    +0.247 C 
ATOM      6  O   UNL     1      26.921  18.396  16.248  0.00  0.00    -0.270 OA
ATOM      7  C   UNL     1      29.591  20.780  17.031  0.00  0.00    +0.120 C 
ENDROOT
BRANCH   5   8
ATOM      8  C   UNL     1      29.195  17.907  15.997  0.00  0.00    +0.038 A 
ATOM      9  C   UNL     1      30.181  17.487  16.895  0.00  0.00    +0.013 A 
ATOM     10  C   UNL     1      31.274  16.737  16.463  0.00  0.00    +0.002 A 
ATOM     11  C   UNL     1      31.340  16.305  15.143  0.00  0.00    +0.015 A 
ATOM     12  C   UNL     1      30.297  16.594  14.258  0.00  0.00    +0.017 A 
ATOM     13  C   UNL     1      29.247  17.424  14.678  0.00  0.00    +0.028 A 
BRANCH  12  14
ATOM     14  S   UNL     1      30.310  15.954  12.596  0.00  0.00    -0.016 S 
BRANCH  14  15
ATOM     15  C   UNL     1      28.679  15.186  12.504  0.00  0.00    +0.448 C 
ATOM     16  F   UNL     1      28.520  14.355  11.447  0.00  0.00    -0.160 F 
ATOM     17  F   UNL     1      28.422  14.464  13.620  0.00  0.00    -0.160 F 
ATOM     18  F   UNL     1      27.712  16.132  12.410  0.00  0.00    -0.160 F 
ENDBRANCH  14  15
ENDBRANCH  12  14
ENDBRANCH   5   8
BRANCH   1  20
ATOM     19  N   UNL     1      30.086  22.142  19.341  0.00  0.00    -0.329 N 
ATOM     20  C   UNL     1      29.898  22.959  18.265  0.00  0.00    +0.215 C 
ATOM     21  O   UNL     1      30.138  24.153  18.351  0.00  0.00    -0.276 OA
ATOM     22  H   UNL     1      30.409  22.569  20.200  0.00  0.00    +0.145 HD
ATOM     23  H   UNL     1      29.837  21.163  19.348  0.00  0.00    +0.145 HD
ENDBRANCH   1  20
TORSDOF 4
ENDMDL
MODEL 4
REMARK VINA RESULT:      -6.8      2.053      2.552
REMARK  Name = ZINC000826139982
REMARK  4 active torsions:
REMARK  status: ('A' for Active; 'I' for Inactive)
REMARK    1  A    between atoms: C_2  and  C_4
REMARK    2  A    between atoms: C_8  and  C_10
REMARK    3  A    between atoms: C_14  and  S_15
REMARK    4  A    between atoms: S_15  and  C_16
REMARK                            x       y       z     vdW  Elec       q    Type
REMARK                         _______ _______ _______ _____ _____    ______ ____
ROOT
ATOM      1  C   UNL     1      31.543  15.697  12.355  0.00  0.00    +0.093 C 
ATOM      2  C   UNL     1      32.964  15.556  12.912  0.00  0.00    +0.033 C 
ATOM      3  C   UNL     1      32.802  15.510  14.425  0.00  0.00    +0.109 C 
ATOM      4  N   UNL     1      31.581  16.247  14.675  0.00  0.00    -0.297 N 
ATOM      5  C   UNL     1      31.350  16.881  15.890  0.00  0.00    +0.247 C 
ATOM      6  O   UNL     1      32.208  16.912  16.771  0.00  0.00    -0.270 OA
ATOM      7  C   UNL     1      30.675  16.070  13.551  0.00  0.00    +0.120 C 
ENDROOT
BRANCH   5   8
ATOM      8  C   UNL     1      30.068  17.617  16.143  0.00  0.00    +0.038 A 
ATOM      9  C   UNL     1      28.913  17.007  16.643  0.00  0.00    +0.013 A 
ATOM     10  C   UNL     1      27.714  17.711  16.742  0.00  0.00    +0.002 A 
ATOM     11  C   UNL     1      27.680  19.068  16.440  0.00  0.00    +0.015 A 
ATOM     12  C   UNL     1      28.852  19.734  16.072  0.00  0.00    +0.017 A 
ATOM     13  C   UNL     1      30.033  18.999  15.889  0.00  0.00    +0.028 A 
BRANCH  12  14
ATOM     14  S   UNL     1      28.850  21.493  15.793  0.00  0.00    -0.016 S 
BRANCH  14  15
ATOM     15  C   UNL     1      27.976  22.079  17.260  0.00  0.00    +0.448 C 
ATOM     16  F   UNL     1      26.634  21.914  17.205  0.00  0.00    -0.160 F 
ATOM     17  F   UNL     1      28.410  21.433  18.370  0.00  0.00    -0.160 F 
ATOM     18  F   UNL     1      28.204  23.401  17.454  0.00  0.00    -0.160 F 
ENDBRANCH  14  15
ENDBRANCH  12  14
ENDBRANCH   5   8
BRANCH   1  20
ATOM     19  N   UNL     1      29.774  14.590  11.111  0.00  0.00    -0.329 N 
ATOM     20  C   UNL     1      31.025  14.464  11.637  0.00  0.00    +0.215 C 
ATOM     21  O   UNL     1      31.619  13.399  11.564  0.00  0.00    -0.276 OA
ATOM     22  H   UNL     1      29.363  13.769  10.685  0.00  0.00    +0.145 HD
ATOM     23  H   UNL     1      29.210  15.423  11.205  0.00  0.00    +0.145 HD
ENDBRANCH   1  20
TORSDOF 4
ENDMDL
MODEL 5
REMARK VINA RESULT:      -6.8      4.818      6.761
REMARK  Name = ZINC000826139982
REMARK  4 active torsions:
REMARK  status: ('A' for Active; 'I' for Inactive)
REMARK    1  A    between atoms: C_2  and  C_4
REMARK    2  A    between atoms: C_8  and  C_10
REMARK    3  A    between atoms: C_14  and  S_15
REMARK    4  A    between atoms: S_15  and  C_16
REMARK                            x       y       z     vdW  Elec       q    Type
REMARK                         _______ _______ _______ _____ _____    ______ ____
ROOT
ATOM      1  C   UNL     1      29.155  21.373  15.162  0.00  0.00    +0.093 C 
ATOM      2  C   UNL     1      28.424  21.358  16.510  0.00  0.00    +0.033 C 
ATOM      3  C   UNL     1      28.706  19.985  17.107  0.00  0.00    +0.109 C 
ATOM      4  N   UNL     1      28.928  19.136  15.955  0.00  0.00    -0.297 N 
ATOM      5  C   UNL     1      28.700  17.766  16.008  0.00  0.00    +0.247 C 
ATOM      6  O   UNL     1      28.221  17.233  17.008  0.00  0.00    -0.270 OA
ATOM      7  C   UNL     1      29.526  19.922  14.888  0.00  0.00    +0.120 C 
ENDROOT
BRANCH   5   8
ATOM      8  C   UNL     1      28.962  16.896  14.814  0.00  0.00    +0.038 A 
ATOM      9  C   UNL     1      27.954  16.414  13.974  0.00  0.00    +0.013 A 
ATOM     10  C   UNL     1      28.240  15.508  12.954  0.00  0.00    +0.002 A 
ATOM     11  C   UNL     1      29.559  15.154  12.692  0.00  0.00    +0.015 A 
ATOM     12  C   UNL     1      30.599  15.730  13.427  0.00  0.00    +0.017 A 
ATOM     13  C   UNL     1      30.295  16.569  14.509  0.00  0.00    +0.028 A 
BRANCH  12  14
ATOM     14  S   UNL     1      32.299  15.375  13.031  0.00  0.00    -0.016 S 
BRANCH  14  15
ATOM     15  C   UNL     1      32.635  16.631  11.779  0.00  0.00    +0.448 C 
ATOM     16  F   UNL     1      31.877  16.515  10.663  0.00  0.00    -0.160 F 
ATOM     17  F   UNL     1      32.426  17.875  12.273  0.00  0.00    -0.160 F 
ATOM     18  F   UNL     1      33.931  16.574  11.382  0.00  0.00    -0.160 F 
ENDBRANCH  14  15
ENDBRANCH  12  14
ENDBRANCH   5   8
BRANCH   1  20
ATOM     19  N   UNL     1      30.245  23.431  15.853  0.00  0.00    -0.329 N 
ATOM     20  C   UNL     1      30.363  22.290  15.116  0.00  0.00    +0.215 C 
ATOM     21  O   UNL     1      31.359  22.097  14.436  0.00  0.00    -0.276 OA
ATOM     22  H   UNL     1      31.000  24.104  15.795  0.00  0.00    +0.145 HD
ATOM     23  H   UNL     1      29.416  23.675  16.376  0.00  0.00    +0.145 HD
ENDBRANCH   1  20
TORSDOF 4
ENDMDL
MODEL 6
REMARK VINA RESULT:      -6.7      2.308      2.946
REMARK  Name = ZINC000826139982
REMARK  4 active torsions:
REMARK  status: ('A' for Active; 'I' for Inactive)
REMARK    1  A    between atoms: C_2  and  C_4
REMARK    2  A    between atoms: C_8  and  C_10
REMARK    3  A    between atoms: C_14  and  S_15
REMARK    4  A    between atoms: S_15  and  C_16
REMARK                            x       y       z     vdW  Elec       q    Type
REMARK                         _______ _______ _______ _____ _____    ______ ____
ROOT
ATOM      1  C   UNL     1      30.744  15.780  12.208  0.00  0.00    +0.093 C 
ATOM      2  C   UNL     1      32.239  15.483  12.047  0.00  0.00    +0.033 C 
ATOM      3  C   UNL     1      32.753  15.217  13.455  0.00  0.00    +0.109 C 
ATOM      4  N   UNL     1      31.857  15.969  14.309  0.00  0.00    -0.297 N 
ATOM      5  C   UNL     1      32.256  16.424  15.560  0.00  0.00    +0.247 C 
ATOM      6  O   UNL     1      33.411  16.277  15.958  0.00  0.00    -0.270 OA
ATOM      7  C   UNL     1      30.537  16.012  13.700  0.00  0.00    +0.120 C 
ENDROOT
BRANCH   5   8
ATOM      8  C   UNL     1      31.307  17.178  16.443  0.00  0.00    +0.038 A 
ATOM      9  C   UNL     1      30.504  16.568  17.412  0.00  0.00    +0.013 A 
ATOM     10  C   UNL     1      29.551  17.299  18.119  0.00  0.00    +0.002 A 
ATOM     11  C   UNL     1      29.461  18.676  17.942  0.00  0.00    +0.015 A 
ATOM     12  C   UNL     1      30.346  19.331  17.081  0.00  0.00    +0.017 A 
ATOM     13  C   UNL     1      31.240  18.576  16.308  0.00  0.00    +0.028 A 
BRANCH  12  14
ATOM     14  S   UNL     1      30.321  21.105  16.927  0.00  0.00    -0.016 S 
BRANCH  14  15
ATOM     15  C   UNL     1      28.966  21.336  15.756  0.00  0.00    +0.448 C 
ATOM     16  F   UNL     1      28.425  20.180  15.304  0.00  0.00    -0.160 F 
ATOM     17  F   UNL     1      27.962  22.052  16.316  0.00  0.00    -0.160 F 
ATOM     18  F   UNL     1      29.389  22.025  14.668  0.00  0.00    -0.160 F 
ENDBRANCH  14  15
ENDBRANCH  12  14
ENDBRANCH   5   8
BRANCH   1  20
ATOM     19  N   UNL     1      30.099  13.439  12.117  0.00  0.00    -0.329 N 
ATOM     20  C   UNL     1      29.828  14.698  11.667  0.00  0.00    +0.215 C 
ATOM     21  O   UNL     1      28.945  14.879  10.842  0.00  0.00    -0.276 OA
ATOM     22  H   UNL     1      29.557  12.678  11.727  0.00  0.00    +0.145 HD
ATOM     23  H   UNL     1      30.862  13.223  12.742  0.00  0.00    +0.145 HD
ENDBRANCH   1  20
TORSDOF 4
ENDMDL
MODEL 7
REMARK VINA RESULT:      -6.7      5.095      7.240
REMARK  Name = ZINC000826139982
REMARK  4 active torsions:
REMARK  status: ('A' for Active; 'I' for Inactive)
REMARK    1  A    between atoms: C_2  and  C_4
REMARK    2  A    between atoms: C_8  and  C_10
REMARK    3  A    between atoms: C_14  and  S_15
REMARK    4  A    between atoms: S_15  and  C_16
REMARK                            x       y       z     vdW  Elec       q    Type
REMARK                         _______ _______ _______ _____ _____    ______ ____
ROOT
ATOM      1  C   UNL     1      29.504  21.631  16.966  0.00  0.00    +0.093 C 
ATOM      2  C   UNL     1      29.446  21.357  18.473  0.00  0.00    +0.033 C 
ATOM      3  C   UNL     1      29.957  19.933  18.645  0.00  0.00    +0.109 C 
ATOM      4  N   UNL     1      29.642  19.288  17.387  0.00  0.00    -0.297 N 
ATOM      5  C   UNL     1      29.454  17.914  17.302  0.00  0.00    +0.247 C 
ATOM      6  O   UNL     1      29.465  17.200  18.305  0.00  0.00    -0.270 OA
ATOM      7  C   UNL     1      29.708  20.268  16.316  0.00  0.00    +0.120 C 
ENDROOT
BRANCH   5   8
ATOM      8  C   UNL     1      29.155  17.257  15.987  0.00  0.00    +0.038 A 
ATOM      9  C   UNL     1      27.861  17.078  15.490  0.00  0.00    +0.013 A 
ATOM     10  C   UNL     1      27.634  16.352  14.322  0.00  0.00    +0.002 A 
ATOM     11  C   UNL     1      28.710  15.885  13.575  0.00  0.00    +0.015 A 
ATOM     12  C   UNL     1      30.019  16.172  13.977  0.00  0.00    +0.017 A 
ATOM     13  C   UNL     1      30.236  16.825  15.199  0.00  0.00    +0.028 A 
BRANCH  12  14
ATOM     14  S   UNL     1      31.406  15.681  12.974  0.00  0.00    -0.016 S 
BRANCH  14  15
ATOM     15  C   UNL     1      30.610  14.575  11.791  0.00  0.00    +0.448 C 
ATOM     16  F   UNL     1      29.694  15.181  10.999  0.00  0.00    -0.160 F 
ATOM     17  F   UNL     1      31.525  14.003  10.973  0.00  0.00    -0.160 F 
ATOM     18  F   UNL     1      29.968  13.569  12.436  0.00  0.00    -0.160 F 
ENDBRANCH  14  15
ENDBRANCH  12  14
ENDBRANCH   5   8
BRANCH   1  20
ATOM     19  N   UNL     1      30.165  23.929  16.540  0.00  0.00    -0.329 N 
ATOM     20  C   UNL     1      30.570  22.627  16.551  0.00  0.00    +0.215 C 
ATOM     21  O   UNL     1      31.698  22.331  16.186  0.00  0.00    -0.276 OA
ATOM     22  H   UNL     1      30.824  24.620  16.203  0.00  0.00    +0.145 HD
ATOM     23  H   UNL     1      29.225  24.223  16.763  0.00  0.00    +0.145 HD
ENDBRANCH   1  20
TORSDOF 4
ENDMDL
MODEL 8
REMARK VINA RESULT:      -6.4      4.974      6.389
REMARK  Name = ZINC000826139982
REMARK  4 active torsions:
REMARK  status: ('A' for Active; 'I' for Inactive)
REMARK    1  A    between atoms: C_2  and  C_4
REMARK    2  A    between atoms: C_8  and  C_10
REMARK    3  A    between atoms: C_14  and  S_15
REMARK    4  A    between atoms: S_15  and  C_16
REMARK                            x       y       z     vdW  Elec       q    Type
REMARK                         _______ _______ _______ _____ _____    ______ ____
ROOT
ATOM      1  C   UNL     1      32.223  23.056  13.677  0.00  0.00    +0.093 C 
ATOM      2  C   UNL     1      33.137  23.697  14.727  0.00  0.00    +0.033 C 
ATOM      3  C   UNL     1      33.048  22.792  15.948  0.00  0.00    +0.109 C 
ATOM      4  N   UNL     1      31.740  22.179  15.841  0.00  0.00    -0.297 N 
ATOM      5  C   UNL     1      31.059  21.719  16.962  0.00  0.00    +0.247 C 
ATOM      6  O   UNL     1      31.503  21.888  18.097  0.00  0.00    -0.270 OA
ATOM      7  C   UNL     1      31.394  22.028  14.437  0.00  0.00    +0.120 C 
ENDROOT
BRANCH   5   8
ATOM      8  C   UNL     1      29.717  21.062  16.831  0.00  0.00    +0.038 A 
ATOM      9  C   UNL     1      28.507  21.760  16.885  0.00  0.00    +0.013 A 
ATOM     10  C   UNL     1      27.287  21.086  16.883  0.00  0.00    +0.002 A 
ATOM     11  C   UNL     1      27.259  19.706  16.719  0.00  0.00    +0.015 A 
ATOM     12  C   UNL     1      28.448  18.998  16.523  0.00  0.00    +0.017 A 
ATOM     13  C   UNL     1      29.674  19.673  16.616  0.00  0.00    +0.028 A 
BRANCH  12  14
ATOM     14  S   UNL     1      28.423  17.247  16.198  0.00  0.00    -0.016 S 
BRANCH  14  15
ATOM     15  C   UNL     1      29.089  16.594  17.743  0.00  0.00    +0.448 C 
ATOM     16  F   UNL     1      30.393  16.236  17.675  0.00  0.00    -0.160 F 
ATOM     17  F   UNL     1      28.979  17.506  18.739  0.00  0.00    -0.160 F 
ATOM     18  F   UNL     1      28.398  15.494  18.133  0.00  0.00    -0.160 F 
ENDBRANCH  14  15
ENDBRANCH  12  14
ENDBRANCH   5   8
BRANCH   1  20
ATOM     19  N   UNL     1      32.914  23.174  11.351  0.00  0.00    -0.329 N 
ATOM     20  C   UNL     1      32.956  22.440  12.500  0.00  0.00    +0.215 C 
ATOM     21  O   UNL     1      33.501  21.347  12.512  0.00  0.00    -0.276 OA
ATOM     22  H   UNL     1      33.332  22.767  10.523  0.00  0.00    +0.145 HD
ATOM     23  H   UNL     1      32.417  24.049  11.266  0.00  0.00    +0.145 HD
ENDBRANCH   1  20
TORSDOF 4
ENDMDL
MODEL 9
REMARK VINA RESULT:      -6.4      4.999      7.149
REMARK  Name = ZINC000826139982
REMARK  4 active torsions:
REMARK  status: ('A' for Active; 'I' for Inactive)
REMARK    1  A    between atoms: C_2  and  C_4
REMARK    2  A    between atoms: C_8  and  C_10
REMARK    3  A    between atoms: C_14  and  S_15
REMARK    4  A    between atoms: S_15  and  C_16
REMARK                            x       y       z     vdW  Elec       q    Type
REMARK                         _______ _______ _______ _____ _____    ______ ____
ROOT
ATOM      1  C   UNL     1      28.365  20.797  16.553  0.00  0.00    +0.093 C 
ATOM      2  C   UNL     1      27.028  20.048  16.545  0.00  0.00    +0.033 C 
ATOM      3  C   UNL     1      27.364  18.618  16.944  0.00  0.00    +0.109 C 
ATOM      4  N   UNL     1      28.737  18.442  16.517  0.00  0.00    -0.297 N 
ATOM      5  C   UNL     1      29.248  17.187  16.212  0.00  0.00    +0.247 C 
ATOM      6  O   UNL     1      28.534  16.185  16.213  0.00  0.00    -0.270 OA
ATOM      7  C   UNL     1      29.435  19.714  16.613  0.00  0.00    +0.120 C 
ENDROOT
BRANCH   5   8
ATOM      8  C   UNL     1      30.680  17.019  15.798  0.00  0.00    +0.038 A 
ATOM      9  C   UNL     1      31.719  16.762  16.699  0.00  0.00    +0.013 A 
ATOM     10  C   UNL     1      33.047  16.738  16.276  0.00  0.00    +0.002 A 
ATOM     11  C   UNL     1      33.346  16.866  14.924  0.00  0.00    +0.015 A 
ATOM     12  C   UNL     1      32.316  16.985  13.986  0.00  0.00    +0.017 A 
ATOM     13  C   UNL     1      30.991  17.097  14.430  0.00  0.00    +0.028 A 
BRANCH  12  14
ATOM     14  S   UNL     1      32.675  17.035  12.242  0.00  0.00    -0.016 S 
BRANCH  14  15
ATOM     15  C   UNL     1      31.930  15.488  11.686  0.00  0.00    +0.448 C 
ATOM     16  F   UNL     1      31.910  14.515  12.628  0.00  0.00    -0.160 F 
ATOM     17  F   UNL     1      30.649  15.683  11.292  0.00  0.00    -0.160 F 
ATOM     18  F   UNL     1      32.604  14.990  10.620  0.00  0.00    -0.160 F 
ENDBRANCH  14  15
ENDBRANCH  12  14
ENDBRANCH   5   8
BRANCH   1  20
ATOM     19  N   UNL     1      28.234  23.095  17.330  0.00  0.00    -0.329 N 
ATOM     20  C   UNL     1      28.511  21.806  17.677  0.00  0.00    +0.215 C 
ATOM     21  O   UNL     1      28.905  21.544  18.804  0.00  0.00    -0.276 OA
ATOM     22  H   UNL     1      28.385  23.810  18.031  0.00  0.00    +0.145 HD
ATOM     23  H   UNL     1      27.974  23.378  16.396  0.00  0.00    +0.145 HD
ENDBRANCH   1  20
TORSDOF 4
ENDMDL
