MODEL 1
REMARK VINA RESULT:      -6.6      0.000      0.000
REMARK  Name = ZINC000560333501
REMARK  5 active torsions:
REMARK  status: ('A' for Active; 'I' for Inactive)
REMARK    1  A    between atoms: C_2  and  C_3
REMARK    2  A    between atoms: C_7  and  C_8
REMARK    3  A    between atoms: C_8  and  C_9
REMARK    4  A    between atoms: N_11  and  C_12
REMARK    5  A    between atoms: C_12  and  C_13
REMARK                            x       y       z     vdW  Elec       q    Type
REMARK                         _______ _______ _______ _____ _____    ______ ____
ROOT
ATOM      1  C   UNL     1      30.790  22.720  13.624  0.00  0.00    +0.217 C 
ATOM      2  O   UNL     1      30.449  23.825  14.056  0.00  0.00    -0.275 OA
ATOM      3  N   UNL     1      31.471  22.550  12.431  0.00  0.00    -0.315 N 
ATOM      4  H   UNL     1      31.956  21.669  12.320  0.00  0.00    +0.149 HD
ENDROOT
BRANCH   1   5
ATOM      5  C   UNL     1      30.473  21.458  14.390  0.00  0.00    +0.131 C 
BRANCH   5  10
ATOM      6  C   UNL     1      33.588  19.548  15.551  0.00  0.00    +0.052 A 
ATOM      7  C   UNL     1      33.774  20.091  16.828  0.00  0.00    +0.019 A 
ATOM      8  C   UNL     1      32.882  21.047  17.313  0.00  0.00    +0.002 A 
ATOM      9  C   UNL     1      31.803  21.460  16.530  0.00  0.00    +0.004 A 
ATOM     10  C   UNL     1      31.597  20.923  15.251  0.00  0.00    -0.037 A 
ATOM     11  C   UNL     1      32.506  19.968  14.766  0.00  0.00    +0.023 A 
BRANCH   6  13
ATOM     12  N   UNL     1      35.262  17.791  14.633  0.00  0.00    -0.191 NA
ATOM     13  C   UNL     1      34.517  18.579  15.046  0.00  0.00    +0.099 C 
ENDBRANCH   6  13
ENDBRANCH   5  10
ENDBRANCH   1   5
BRANCH   3  14
ATOM     14  C   UNL     1      32.088  23.715  11.823  0.00  0.00    +0.108 C 
BRANCH  14  15
ATOM     15  C   UNL     1      32.462  23.595  10.333  0.00  0.00    +0.011 C 
ATOM     16  C   UNL     1      33.239  22.325  10.000  0.00  0.00    +0.033 C 
ATOM     17  C   UNL     1      34.550  22.279  10.771  0.00  0.00    +0.161 C 
ATOM     18  O   UNL     1      35.304  23.486  10.692  0.00  0.00    -0.373 OA
ATOM     19  C   UNL     1      34.659  24.793  10.699  0.00  0.00    +0.070 C 
ATOM     20  C   UNL     1      34.548  25.559  12.063  0.00  0.00    +0.035 C 
ATOM     21  C   UNL     1      35.924  26.167  11.788  0.00  0.00    +0.006 C 
ATOM     22  C   UNL     1      35.664  25.922  10.289  0.00  0.00    +0.035 C 
ATOM     23  C   UNL     1      33.352  24.777   9.895  0.00  0.00    +0.040 C 
ENDBRANCH  14  15
ENDBRANCH   3  14
TORSDOF 5
ENDMDL
MODEL 2
REMARK VINA RESULT:      -6.5      1.324      1.863
REMARK  Name = ZINC000560333501
REMARK  5 active torsions:
REMARK  status: ('A' for Active; 'I' for Inactive)
REMARK    1  A    between atoms: C_2  and  C_3
REMARK    2  A    between atoms: C_7  and  C_8
REMARK    3  A    between atoms: C_8  and  C_9
REMARK    4  A    between atoms: N_11  and  C_12
REMARK    5  A    between atoms: C_12  and  C_13
REMARK                            x       y       z     vdW  Elec       q    Type
REMARK                         _______ _______ _______ _____ _____    ______ ____
ROOT
ATOM      1  C   UNL     1      30.835  22.757  13.612  0.00  0.00    +0.217 C 
ATOM      2  O   UNL     1      30.477  23.853  14.051  0.00  0.00    -0.275 OA
ATOM      3  N   UNL     1      31.479  22.601  12.397  0.00  0.00    -0.315 N 
ATOM      4  H   UNL     1      31.985  21.733  12.273  0.00  0.00    +0.149 HD
ENDROOT
BRANCH   1   5
ATOM      5  C   UNL     1      30.579  21.489  14.393  0.00  0.00    +0.131 C 
BRANCH   5  10
ATOM      6  C   UNL     1      33.270  20.502  16.939  0.00  0.00    +0.052 A 
ATOM      7  C   UNL     1      33.979  19.534  16.217  0.00  0.00    +0.019 A 
ATOM      8  C   UNL     1      33.600  19.226  14.911  0.00  0.00    +0.002 A 
ATOM      9  C   UNL     1      32.519  19.883  14.321  0.00  0.00    +0.004 A 
ATOM     10  C   UNL     1      31.802  20.861  15.025  0.00  0.00    -0.037 A 
ATOM     11  C   UNL     1      32.183  21.158  16.345  0.00  0.00    +0.023 A 
BRANCH   6  13
ATOM     12  N   UNL     1      33.963  21.047  19.379  0.00  0.00    -0.191 NA
ATOM     13  C   UNL     1      33.649  20.804  18.288  0.00  0.00    +0.099 C 
ENDBRANCH   6  13
ENDBRANCH   5  10
ENDBRANCH   1   5
BRANCH   3  14
ATOM     14  C   UNL     1      32.043  23.780  11.764  0.00  0.00    +0.108 C 
BRANCH  14  15
ATOM     15  C   UNL     1      32.463  23.634  10.290  0.00  0.00    +0.011 C 
ATOM     16  C   UNL     1      33.232  22.348   9.999  0.00  0.00    +0.033 C 
ATOM     17  C   UNL     1      34.516  22.295  10.812  0.00  0.00    +0.161 C 
ATOM     18  O   UNL     1      35.289  23.491  10.740  0.00  0.00    -0.373 OA
ATOM     19  C   UNL     1      34.663  24.806  10.709  0.00  0.00    +0.070 C 
ATOM     20  C   UNL     1      34.520  25.594  12.058  0.00  0.00    +0.035 C 
ATOM     21  C   UNL     1      35.912  26.178  11.819  0.00  0.00    +0.006 C 
ATOM     22  C   UNL     1      35.697  25.916  10.316  0.00  0.00    +0.035 C 
ATOM     23  C   UNL     1      33.383  24.797   9.863  0.00  0.00    +0.040 C 
ENDBRANCH  14  15
ENDBRANCH   3  14
TORSDOF 5
ENDMDL
MODEL 3
REMARK VINA RESULT:      -6.4      0.838      2.355
REMARK  Name = ZINC000560333501
REMARK  5 active torsions:
REMARK  status: ('A' for Active; 'I' for Inactive)
REMARK    1  A    between atoms: C_2  and  C_3
REMARK    2  A    between atoms: C_7  and  C_8
REMARK    3  A    between atoms: C_8  and  C_9
REMARK    4  A    between atoms: N_11  and  C_12
REMARK    5  A    between atoms: C_12  and  C_13
REMARK                            x       y       z     vdW  Elec       q    Type
REMARK                         _______ _______ _______ _____ _____    ______ ____
ROOT
ATOM      1  C   UNL     1      30.796  22.811  13.603  0.00  0.00    +0.217 C 
ATOM      2  O   UNL     1      30.503  23.953  13.966  0.00  0.00    -0.275 OA
ATOM      3  N   UNL     1      31.475  22.541  12.428  0.00  0.00    -0.315 N 
ATOM      4  H   UNL     1      31.921  21.634  12.372  0.00  0.00    +0.149 HD
ENDROOT
BRANCH   1   5
ATOM      5  C   UNL     1      30.418  21.611  14.439  0.00  0.00    +0.131 C 
BRANCH   5  10
ATOM      6  C   UNL     1      33.509  19.547  15.383  0.00  0.00    +0.052 A 
ATOM      7  C   UNL     1      33.744  20.000  16.686  0.00  0.00    +0.019 A 
ATOM      8  C   UNL     1      32.894  20.946  17.257  0.00  0.00    +0.002 A 
ATOM      9  C   UNL     1      31.806  21.439  16.535  0.00  0.00    +0.004 A 
ATOM     10  C   UNL     1      31.550  20.991  15.231  0.00  0.00    -0.037 A 
ATOM     11  C   UNL     1      32.417  20.046  14.658  0.00  0.00    +0.023 A 
BRANCH   6  13
ATOM     12  N   UNL     1      35.119  17.818  14.311  0.00  0.00    -0.191 NA
ATOM     13  C   UNL     1      34.395  18.589  14.790  0.00  0.00    +0.099 C 
ENDBRANCH   6  13
ENDBRANCH   5  10
ENDBRANCH   1   5
BRANCH   3  14
ATOM     14  C   UNL     1      32.148  23.640  11.757  0.00  0.00    +0.108 C 
BRANCH  14  15
ATOM     15  C   UNL     1      33.617  23.888  12.150  0.00  0.00    +0.011 C 
ATOM     16  C   UNL     1      34.200  25.167  11.555  0.00  0.00    +0.033 C 
ATOM     17  C   UNL     1      34.171  25.114  10.035  0.00  0.00    +0.161 C 
ATOM     18  O   UNL     1      34.693  23.903   9.494  0.00  0.00    -0.373 OA
ATOM     19  C   UNL     1      34.460  22.615  10.135  0.00  0.00    +0.070 C 
ATOM     20  C   UNL     1      33.275  21.729   9.615  0.00  0.00    +0.035 C 
ATOM     21  C   UNL     1      34.231  21.120   8.590  0.00  0.00    +0.006 C 
ATOM     22  C   UNL     1      35.388  21.506   9.531  0.00  0.00    +0.035 C 
ATOM     23  C   UNL     1      34.516  22.732  11.664  0.00  0.00    +0.040 C 
ENDBRANCH  14  15
ENDBRANCH   3  14
TORSDOF 5
ENDMDL
MODEL 4
REMARK VINA RESULT:      -6.2      2.155      6.130
REMARK  Name = ZINC000560333501
REMARK  5 active torsions:
REMARK  status: ('A' for Active; 'I' for Inactive)
REMARK    1  A    between atoms: C_2  and  C_3
REMARK    2  A    between atoms: C_7  and  C_8
REMARK    3  A    between atoms: C_8  and  C_9
REMARK    4  A    between atoms: N_11  and  C_12
REMARK    5  A    between atoms: C_12  and  C_13
REMARK                            x       y       z     vdW  Elec       q    Type
REMARK                         _______ _______ _______ _____ _____    ______ ____
ROOT
ATOM      1  C   UNL     1      32.488  23.469  11.670  0.00  0.00    +0.217 C 
ATOM      2  O   UNL     1      33.202  24.164  12.397  0.00  0.00    -0.275 OA
ATOM      3  N   UNL     1      31.531  22.597  12.159  0.00  0.00    -0.315 N 
ATOM      4  H   UNL     1      30.815  22.312  11.501  0.00  0.00    +0.149 HD
ENDROOT
BRANCH   1   5
ATOM      5  C   UNL     1      32.624  23.528  10.167  0.00  0.00    +0.131 C 
BRANCH   5  10
ATOM      6  C   UNL     1      33.948  19.989   9.514  0.00  0.00    +0.052 A 
ATOM      7  C   UNL     1      34.497  20.141   8.236  0.00  0.00    +0.019 A 
ATOM      8  C   UNL     1      34.459  21.385   7.606  0.00  0.00    +0.002 A 
ATOM      9  C   UNL     1      33.878  22.479   8.250  0.00  0.00    +0.004 A 
ATOM     10  C   UNL     1      33.329  22.348   9.533  0.00  0.00    -0.037 A 
ATOM     11  C   UNL     1      33.362  21.089  10.156  0.00  0.00    +0.023 A 
BRANCH   6  13
ATOM     12  N   UNL     1      33.997  17.666  10.668  0.00  0.00    -0.191 NA
ATOM     13  C   UNL     1      33.971  18.706  10.152  0.00  0.00    +0.099 C 
ENDBRANCH   6  13
ENDBRANCH   5  10
ENDBRANCH   1   5
BRANCH   3  14
ATOM     14  C   UNL     1      31.125  22.733  13.546  0.00  0.00    +0.108 C 
BRANCH  14  15
ATOM     15  C   UNL     1      30.424  21.516  14.179  0.00  0.00    +0.011 C 
ATOM     16  C   UNL     1      29.747  21.826  15.511  0.00  0.00    +0.033 C 
ATOM     17  C   UNL     1      30.768  22.305  16.533  0.00  0.00    +0.161 C 
ATOM     18  O   UNL     1      31.923  21.475  16.621  0.00  0.00    -0.373 OA
ATOM     19  C   UNL     1      32.513  20.858  15.440  0.00  0.00    +0.070 C 
ATOM     20  C   UNL     1      33.721  21.581  14.748  0.00  0.00    +0.035 C 
ATOM     21  C   UNL     1      34.661  20.830  15.691  0.00  0.00    +0.006 C 
ATOM     22  C   UNL     1      33.560  19.762  15.838  0.00  0.00    +0.035 C 
ATOM     23  C   UNL     1      31.435  20.384  14.457  0.00  0.00    +0.040 C 
ENDBRANCH  14  15
ENDBRANCH   3  14
TORSDOF 5
ENDMDL
MODEL 5
REMARK VINA RESULT:      -6.2      2.271      3.440
REMARK  Name = ZINC000560333501
REMARK  5 active torsions:
REMARK  status: ('A' for Active; 'I' for Inactive)
REMARK    1  A    between atoms: C_2  and  C_3
REMARK    2  A    between atoms: C_7  and  C_8
REMARK    3  A    between atoms: C_8  and  C_9
REMARK    4  A    between atoms: N_11  and  C_12
REMARK    5  A    between atoms: C_12  and  C_13
REMARK                            x       y       z     vdW  Elec       q    Type
REMARK                         _______ _______ _______ _____ _____    ______ ____
ROOT
ATOM      1  C   UNL     1      33.773  19.507  12.157  0.00  0.00    +0.217 C 
ATOM      2  O   UNL     1      34.933  19.090  12.096  0.00  0.00    -0.275 OA
ATOM      3  N   UNL     1      33.273  20.482  11.311  0.00  0.00    -0.315 N 
ATOM      4  H   UNL     1      32.264  20.534  11.242  0.00  0.00    +0.149 HD
ENDROOT
BRANCH   1   5
ATOM      5  C   UNL     1      32.809  18.967  13.186  0.00  0.00    +0.131 C 
BRANCH   5  10
ATOM      6  C   UNL     1      31.141  21.054  15.937  0.00  0.00    +0.052 A 
ATOM      7  C   UNL     1      32.236  21.326  16.766  0.00  0.00    +0.019 A 
ATOM      8  C   UNL     1      33.503  20.857  16.421  0.00  0.00    +0.002 A 
ATOM      9  C   UNL     1      33.683  20.121  15.248  0.00  0.00    +0.004 A 
ATOM     10  C   UNL     1      32.600  19.845  14.401  0.00  0.00    -0.037 A 
ATOM     11  C   UNL     1      31.324  20.312  14.762  0.00  0.00    +0.023 A 
BRANCH   6  13
ATOM     12  N   UNL     1      28.777  21.899  16.592  0.00  0.00    -0.191 NA
ATOM     13  C   UNL     1      29.836  21.520  16.303  0.00  0.00    +0.099 C 
ENDBRANCH   6  13
ENDBRANCH   5  10
ENDBRANCH   1   5
BRANCH   3  14
ATOM     14  C   UNL     1      34.026  20.798  10.110  0.00  0.00    +0.108 C 
BRANCH  14  15
ATOM     15  C   UNL     1      33.350  21.754   9.108  0.00  0.00    +0.011 C 
ATOM     16  C   UNL     1      34.187  22.020   7.860  0.00  0.00    +0.033 C 
ATOM     17  C   UNL     1      35.514  22.664   8.229  0.00  0.00    +0.161 C 
ATOM     18  O   UNL     1      35.386  23.771   9.118  0.00  0.00    -0.373 OA
ATOM     19  C   UNL     1      34.405  23.778  10.195  0.00  0.00    +0.070 C 
ATOM     20  C   UNL     1      34.872  23.346  11.628  0.00  0.00    +0.035 C 
ATOM     21  C   UNL     1      35.272  24.797  11.894  0.00  0.00    +0.006 C 
ATOM     22  C   UNL     1      34.255  25.210  10.813  0.00  0.00    +0.035 C 
ATOM     23  C   UNL     1      33.086  23.130   9.756  0.00  0.00    +0.040 C 
ENDBRANCH  14  15
ENDBRANCH   3  14
TORSDOF 5
ENDMDL
MODEL 6
REMARK VINA RESULT:      -6.1      2.197      3.084
REMARK  Name = ZINC000560333501
REMARK  5 active torsions:
REMARK  status: ('A' for Active; 'I' for Inactive)
REMARK    1  A    between atoms: C_2  and  C_3
REMARK    2  A    between atoms: C_7  and  C_8
REMARK    3  A    between atoms: C_8  and  C_9
REMARK    4  A    between atoms: N_11  and  C_12
REMARK    5  A    between atoms: C_12  and  C_13
REMARK                            x       y       z     vdW  Elec       q    Type
REMARK                         _______ _______ _______ _____ _____    ______ ____
ROOT
ATOM      1  C   UNL     1      33.794  19.804  12.280  0.00  0.00    +0.217 C 
ATOM      2  O   UNL     1      34.984  19.976  12.558  0.00  0.00    -0.275 OA
ATOM      3  N   UNL     1      33.207  20.297  11.128  0.00  0.00    -0.315 N 
ATOM      4  H   UNL     1      32.337  19.858  10.852  0.00  0.00    +0.149 HD
ENDROOT
BRANCH   1   5
ATOM      5  C   UNL     1      32.886  19.030  13.206  0.00  0.00    +0.131 C 
BRANCH   5  10
ATOM      6  C   UNL     1      32.640  20.835  16.580  0.00  0.00    +0.052 A 
ATOM      7  C   UNL     1      31.370  21.414  16.481  0.00  0.00    +0.019 A 
ATOM      8  C   UNL     1      30.595  21.199  15.342  0.00  0.00    +0.002 A 
ATOM      9  C   UNL     1      31.081  20.404  14.303  0.00  0.00    +0.004 A 
ATOM     10  C   UNL     1      32.348  19.810  14.387  0.00  0.00    -0.037 A 
ATOM     11  C   UNL     1      33.127  20.040  15.534  0.00  0.00    +0.023 A 
BRANCH   6  13
ATOM     12  N   UNL     1      34.089  21.271  18.688  0.00  0.00    -0.191 NA
ATOM     13  C   UNL     1      33.444  21.073  17.743  0.00  0.00    +0.099 C 
ENDBRANCH   6  13
ENDBRANCH   5  10
ENDBRANCH   1   5
BRANCH   3  14
ATOM     14  C   UNL     1      34.076  20.751  10.057  0.00  0.00    +0.108 C 
BRANCH  14  15
ATOM     15  C   UNL     1      33.437  21.667   8.996  0.00  0.00    +0.011 C 
ATOM     16  C   UNL     1      34.326  21.904   7.779  0.00  0.00    +0.033 C 
ATOM     17  C   UNL     1      35.629  22.575   8.188  0.00  0.00    +0.161 C 
ATOM     18  O   UNL     1      35.449  23.708   9.035  0.00  0.00    -0.373 OA
ATOM     19  C   UNL     1      34.420  23.736  10.066  0.00  0.00    +0.070 C 
ATOM     20  C   UNL     1      34.825  23.353  11.531  0.00  0.00    +0.035 C 
ATOM     21  C   UNL     1      35.198  24.817  11.769  0.00  0.00    +0.006 C 
ATOM     22  C   UNL     1      34.227  25.185  10.631  0.00  0.00    +0.035 C 
ATOM     23  C   UNL     1      33.129  23.059   9.588  0.00  0.00    +0.040 C 
ENDBRANCH  14  15
ENDBRANCH   3  14
TORSDOF 5
ENDMDL
MODEL 7
REMARK VINA RESULT:      -6.1      2.116      6.166
REMARK  Name = ZINC000560333501
REMARK  5 active torsions:
REMARK  status: ('A' for Active; 'I' for Inactive)
REMARK    1  A    between atoms: C_2  and  C_3
REMARK    2  A    between atoms: C_7  and  C_8
REMARK    3  A    between atoms: C_8  and  C_9
REMARK    4  A    between atoms: N_11  and  C_12
REMARK    5  A    between atoms: C_12  and  C_13
REMARK                            x       y       z     vdW  Elec       q    Type
REMARK                         _______ _______ _______ _____ _____    ______ ____
ROOT
ATOM      1  C   UNL     1      30.748  22.964  14.218  0.00  0.00    +0.217 C 
ATOM      2  O   UNL     1      29.858  22.140  13.995  0.00  0.00    -0.275 OA
ATOM      3  N   UNL     1      31.529  22.944  15.362  0.00  0.00    -0.315 N 
ATOM      4  H   UNL     1      32.401  23.456  15.311  0.00  0.00    +0.149 HD
ENDROOT
BRANCH   1   5
ATOM      5  C   UNL     1      31.043  24.072  13.236  0.00  0.00    +0.131 C 
BRANCH   5  10
ATOM      6  C   UNL     1      34.025  24.420  10.850  0.00  0.00    +0.052 A 
ATOM      7  C   UNL     1      34.189  23.094  10.433  0.00  0.00    +0.019 A 
ATOM      8  C   UNL     1      33.325  22.105  10.903  0.00  0.00    +0.002 A 
ATOM      9  C   UNL     1      32.295  22.436  11.785  0.00  0.00    +0.004 A 
ATOM     10  C   UNL     1      32.110  23.760  12.208  0.00  0.00    -0.037 A 
ATOM     11  C   UNL     1      32.992  24.748  11.738  0.00  0.00    +0.023 A 
BRANCH   6  13
ATOM     12  N   UNL     1      35.659  26.250  10.008  0.00  0.00    -0.191 NA
ATOM     13  C   UNL     1      34.926  25.431  10.381  0.00  0.00    +0.099 C 
ENDBRANCH   6  13
ENDBRANCH   5  10
ENDBRANCH   1   5
BRANCH   3  14
ATOM     14  C   UNL     1      31.526  21.739  16.172  0.00  0.00    +0.108 C 
BRANCH  14  15
ATOM     15  C   UNL     1      32.851  21.376  16.867  0.00  0.00    +0.011 C 
ATOM     16  C   UNL     1      33.984  22.354  16.570  0.00  0.00    +0.033 C 
ATOM     17  C   UNL     1      34.285  22.391  15.079  0.00  0.00    +0.161 C 
ATOM     18  O   UNL     1      34.432  21.100  14.493  0.00  0.00    -0.373 OA
ATOM     19  C   UNL     1      33.601  19.975  14.901  0.00  0.00    +0.070 C 
ATOM     20  C   UNL     1      32.324  19.646  14.052  0.00  0.00    +0.035 C 
ATOM     21  C   UNL     1      33.194  18.764  13.157  0.00  0.00    +0.006 C 
ATOM     22  C   UNL     1      34.165  18.623  14.345  0.00  0.00    +0.035 C 
ATOM     23  C   UNL     1      33.346  19.986  16.414  0.00  0.00    +0.040 C 
ENDBRANCH  14  15
ENDBRANCH   3  14
TORSDOF 5
ENDMDL
MODEL 8
REMARK VINA RESULT:      -6.1      2.767      6.849
REMARK  Name = ZINC000560333501
REMARK  5 active torsions:
REMARK  status: ('A' for Active; 'I' for Inactive)
REMARK    1  A    between atoms: C_2  and  C_3
REMARK    2  A    between atoms: C_7  and  C_8
REMARK    3  A    between atoms: C_8  and  C_9
REMARK    4  A    between atoms: N_11  and  C_12
REMARK    5  A    between atoms: C_12  and  C_13
REMARK                            x       y       z     vdW  Elec       q    Type
REMARK                         _______ _______ _______ _____ _____    ______ ____
ROOT
ATOM      1  C   UNL     1      32.883  23.146  11.352  0.00  0.00    +0.217 C 
ATOM      2  O   UNL     1      33.896  23.396  12.011  0.00  0.00    -0.275 OA
ATOM      3  N   UNL     1      31.728  22.625  11.908  0.00  0.00    -0.315 N 
ATOM      4  H   UNL     1      30.883  22.739  11.362  0.00  0.00    +0.149 HD
ENDROOT
BRANCH   1   5
ATOM      5  C   UNL     1      32.845  23.398   9.863  0.00  0.00    +0.131 C 
BRANCH   5  10
ATOM      6  C   UNL     1      35.260  21.619   7.475  0.00  0.00    +0.052 A 
ATOM      7  C   UNL     1      34.813  20.297   7.579  0.00  0.00    +0.019 A 
ATOM      8  C   UNL     1      33.725  19.994   8.396  0.00  0.00    +0.002 A 
ATOM      9  C   UNL     1      33.078  21.006   9.107  0.00  0.00    +0.004 A 
ATOM     10  C   UNL     1      33.507  22.337   9.010  0.00  0.00    -0.037 A 
ATOM     11  C   UNL     1      34.611  22.633   8.192  0.00  0.00    +0.023 A 
BRANCH   6  13
ATOM     12  N   UNL     1      37.306  22.183   5.983  0.00  0.00    -0.191 NA
ATOM     13  C   UNL     1      36.391  21.926   6.649  0.00  0.00    +0.099 C 
ENDBRANCH   6  13
ENDBRANCH   5  10
ENDBRANCH   1   5
BRANCH   3  14
ATOM     14  C   UNL     1      31.581  22.671  13.352  0.00  0.00    +0.108 C 
BRANCH  14  15
ATOM     15  C   UNL     1      30.733  21.556  13.992  0.00  0.00    +0.011 C 
ATOM     16  C   UNL     1      29.869  22.038  15.154  0.00  0.00    +0.033 C 
ATOM     17  C   UNL     1      30.736  22.603  16.270  0.00  0.00    +0.161 C 
ATOM     18  O   UNL     1      31.823  21.756  16.635  0.00  0.00    -0.373 OA
ATOM     19  C   UNL     1      32.563  20.989  15.641  0.00  0.00    +0.070 C 
ATOM     20  C   UNL     1      33.897  21.592  15.080  0.00  0.00    +0.035 C 
ATOM     21  C   UNL     1      34.640  20.930  16.241  0.00  0.00    +0.006 C 
ATOM     22  C   UNL     1      33.481  19.918  16.323  0.00  0.00    +0.035 C 
ATOM     23  C   UNL     1      31.633  20.435  14.554  0.00  0.00    +0.040 C 
ENDBRANCH  14  15
ENDBRANCH   3  14
TORSDOF 5
ENDMDL
MODEL 9
REMARK VINA RESULT:      -6.1     23.381     26.462
REMARK  Name = ZINC000560333501
REMARK  5 active torsions:
REMARK  status: ('A' for Active; 'I' for Inactive)
REMARK    1  A    between atoms: C_2  and  C_3
REMARK    2  A    between atoms: C_7  and  C_8
REMARK    3  A    between atoms: C_8  and  C_9
REMARK    4  A    between atoms: N_11  and  C_12
REMARK    5  A    between atoms: C_12  and  C_13
REMARK                            x       y       z     vdW  Elec       q    Type
REMARK                         _______ _______ _______ _____ _____    ______ ____
ROOT
ATOM      1  C   UNL     1      22.354   5.734  27.990  0.00  0.00    +0.217 C 
ATOM      2  O   UNL     1      23.365   6.269  27.527  0.00  0.00    -0.275 OA
ATOM      3  N   UNL     1      21.645   4.751  27.321  0.00  0.00    -0.315 N 
ATOM      4  H   UNL     1      21.034   4.180  27.892  0.00  0.00    +0.149 HD
ENDROOT
BRANCH   1   5
ATOM      5  C   UNL     1      21.816   6.132  29.344  0.00  0.00    +0.131 C 
BRANCH   5  10
ATOM      6  C   UNL     1      18.736   4.407  30.840  0.00  0.00    +0.052 A 
ATOM      7  C   UNL     1      19.242   3.125  31.086  0.00  0.00    +0.019 A 
ATOM      8  C   UNL     1      20.573   2.835  30.791  0.00  0.00    +0.002 A 
ATOM      9  C   UNL     1      21.404   3.820  30.256  0.00  0.00    +0.004 A 
ATOM     10  C   UNL     1      20.918   5.112  30.010  0.00  0.00    -0.037 A 
ATOM     11  C   UNL     1      19.572   5.394  30.299  0.00  0.00    +0.023 A 
BRANCH   6  13
ATOM     12  N   UNL     1      16.247   4.927  31.353  0.00  0.00    -0.191 NA
ATOM     13  C   UNL     1      17.362   4.698  31.125  0.00  0.00    +0.099 C 
ENDBRANCH   6  13
ENDBRANCH   5  10
ENDBRANCH   1   5
BRANCH   3  14
ATOM     14  C   UNL     1      22.280   4.097  26.191  0.00  0.00    +0.108 C 
BRANCH  14  15
ATOM     15  C   UNL     1      22.625   2.606  26.365  0.00  0.00    +0.011 C 
ATOM     16  C   UNL     1      23.398   2.305  27.646  0.00  0.00    +0.033 C 
ATOM     17  C   UNL     1      24.724   3.051  27.662  0.00  0.00    +0.161 C 
ATOM     18  O   UNL     1      25.473   2.913  26.457  0.00  0.00    -0.373 OA
ATOM     19  C   UNL     1      24.825   2.884  25.152  0.00  0.00    +0.070 C 
ATOM     20  C   UNL     1      24.740   4.221  24.335  0.00  0.00    +0.035 C 
ATOM     21  C   UNL     1      26.109   3.897  23.736  0.00  0.00    +0.006 C 
ATOM     22  C   UNL     1      25.820   2.414  24.037  0.00  0.00    +0.035 C 
ATOM     23  C   UNL     1      23.504   2.107  25.199  0.00  0.00    +0.040 C 
ENDBRANCH  14  15
ENDBRANCH   3  14
TORSDOF 5
ENDMDL
