MODEL 1
REMARK VINA RESULT:      -6.1      0.000      0.000
REMARK  Name = ZINC000560333501
REMARK  5 active torsions:
REMARK  status: ('A' for Active; 'I' for Inactive)
REMARK    1  A    between atoms: C_2  and  C_3
REMARK    2  A    between atoms: C_7  and  C_8
REMARK    3  A    between atoms: C_8  and  C_9
REMARK    4  A    between atoms: N_11  and  C_12
REMARK    5  A    between atoms: C_12  and  C_13
REMARK                            x       y       z     vdW  Elec       q    Type
REMARK                         _______ _______ _______ _____ _____    ______ ____
ROOT
ATOM      1  C   UNL     1      31.559  22.958  12.968  0.00  0.00    +0.217 C 
ATOM      2  O   UNL     1      31.687  23.967  13.667  0.00  0.00    -0.275 OA
ATOM      3  N   UNL     1      32.001  22.884  11.658  0.00  0.00    -0.315 N 
ATOM      4  H   UNL     1      32.122  21.950  11.284  0.00  0.00    +0.149 HD
ENDROOT
BRANCH   1   5
ATOM      5  C   UNL     1      30.893  21.717  13.512  0.00  0.00    +0.131 C 
BRANCH   5  10
ATOM      6  C   UNL     1      33.298  18.783  14.065  0.00  0.00    +0.052 A 
ATOM      7  C   UNL     1      33.679  18.997  15.395  0.00  0.00    +0.019 A 
ATOM      8  C   UNL     1      33.142  20.067  16.108  0.00  0.00    +0.002 A 
ATOM      9  C   UNL     1      32.221  20.923  15.501  0.00  0.00    +0.004 A 
ATOM     10  C   UNL     1      31.821  20.720  14.172  0.00  0.00    -0.037 A 
ATOM     11  C   UNL     1      32.376  19.645  13.457  0.00  0.00    +0.023 A 
BRANCH   6  13
ATOM     12  N   UNL     1      34.323  16.806  12.734  0.00  0.00    -0.191 NA
ATOM     13  C   UNL     1      33.867  17.693  13.327  0.00  0.00    +0.099 C 
ENDBRANCH   6  13
ENDBRANCH   5  10
ENDBRANCH   1   5
BRANCH   3  14
ATOM     14  C   UNL     1      32.928  23.899  11.189  0.00  0.00    +0.108 C 
BRANCH  14  15
ATOM     15  C   UNL     1      34.421  23.652  11.477  0.00  0.00    +0.011 C 
ATOM     16  C   UNL     1      35.288  24.897  11.315  0.00  0.00    +0.033 C 
ATOM     17  C   UNL     1      35.213  25.420   9.888  0.00  0.00    +0.161 C 
ATOM     18  O   UNL     1      35.409  24.414   8.898  0.00  0.00    -0.373 OA
ATOM     19  C   UNL     1      34.880  23.066   9.062  0.00  0.00    +0.070 C 
ATOM     20  C   UNL     1      33.502  22.722   8.397  0.00  0.00    +0.035 C 
ATOM     21  C   UNL     1      34.256  22.343   7.122  0.00  0.00    +0.006 C 
ATOM     22  C   UNL     1      35.493  22.086   8.004  0.00  0.00    +0.035 C 
ATOM     23  C   UNL     1      34.997  22.591  10.516  0.00  0.00    +0.040 C 
ENDBRANCH  14  15
ENDBRANCH   3  14
TORSDOF 5
ENDMDL
MODEL 2
REMARK VINA RESULT:      -6.1      2.249      5.664
REMARK  Name = ZINC000560333501
REMARK  5 active torsions:
REMARK  status: ('A' for Active; 'I' for Inactive)
REMARK    1  A    between atoms: C_2  and  C_3
REMARK    2  A    between atoms: C_7  and  C_8
REMARK    3  A    between atoms: C_8  and  C_9
REMARK    4  A    between atoms: N_11  and  C_12
REMARK    5  A    between atoms: C_12  and  C_13
REMARK                            x       y       z     vdW  Elec       q    Type
REMARK                         _______ _______ _______ _____ _____    ______ ____
ROOT
ATOM      1  C   UNL     1      31.289  23.326  13.047  0.00  0.00    +0.217 C 
ATOM      2  O   UNL     1      30.611  22.340  12.747  0.00  0.00    -0.275 OA
ATOM      3  N   UNL     1      31.709  23.591  14.339  0.00  0.00    -0.315 N 
ATOM      4  H   UNL     1      32.488  24.233  14.428  0.00  0.00    +0.149 HD
ENDROOT
BRANCH   1   5
ATOM      5  C   UNL     1      31.706  24.328  11.997  0.00  0.00    +0.131 C 
BRANCH   5  10
ATOM      6  C   UNL     1      34.452  22.343  10.202  0.00  0.00    +0.052 A 
ATOM      7  C   UNL     1      34.209  22.697   8.870  0.00  0.00    +0.019 A 
ATOM      8  C   UNL     1      33.182  23.588   8.563  0.00  0.00    +0.002 A 
ATOM      9  C   UNL     1      32.398  24.132   9.582  0.00  0.00    +0.004 A 
ATOM     10  C   UNL     1      32.631  23.795  10.923  0.00  0.00    -0.037 A 
ATOM     11  C   UNL     1      33.661  22.888  11.223  0.00  0.00    +0.023 A 
BRANCH   6  13
ATOM     12  N   UNL     1      36.335  20.653  10.771  0.00  0.00    -0.191 NA
ATOM     13  C   UNL     1      35.496  21.411  10.514  0.00  0.00    +0.099 C 
ENDBRANCH   6  13
ENDBRANCH   5  10
ENDBRANCH   1   5
BRANCH   3  14
ATOM     14  C   UNL     1      31.631  22.521  15.318  0.00  0.00    +0.108 C 
BRANCH  14  15
ATOM     15  C   UNL     1      32.838  22.365  16.262  0.00  0.00    +0.011 C 
ATOM     16  C   UNL     1      34.092  23.085  15.775  0.00  0.00    +0.033 C 
ATOM     17  C   UNL     1      34.536  22.536  14.427  0.00  0.00    +0.161 C 
ATOM     18  O   UNL     1      34.600  21.113  14.381  0.00  0.00    -0.373 OA
ATOM     19  C   UNL     1      33.618  20.281  15.064  0.00  0.00    +0.070 C 
ATOM     20  C   UNL     1      32.401  19.737  14.238  0.00  0.00    +0.035 C 
ATOM     21  C   UNL     1      33.254  18.529  13.851  0.00  0.00    +0.006 C 
ATOM     22  C   UNL     1      34.086  18.786  15.122  0.00  0.00    +0.035 C 
ATOM     23  C   UNL     1      33.223  20.879  16.420  0.00  0.00    +0.040 C 
ENDBRANCH  14  15
ENDBRANCH   3  14
TORSDOF 5
ENDMDL
MODEL 3
REMARK VINA RESULT:      -6.0      2.351      6.830
REMARK  Name = ZINC000560333501
REMARK  5 active torsions:
REMARK  status: ('A' for Active; 'I' for Inactive)
REMARK    1  A    between atoms: C_2  and  C_3
REMARK    2  A    between atoms: C_7  and  C_8
REMARK    3  A    between atoms: C_8  and  C_9
REMARK    4  A    between atoms: N_11  and  C_12
REMARK    5  A    between atoms: C_12  and  C_13
REMARK                            x       y       z     vdW  Elec       q    Type
REMARK                         _______ _______ _______ _____ _____    ______ ____
ROOT
ATOM      1  C   UNL     1      31.998  23.688  11.610  0.00  0.00    +0.217 C 
ATOM      2  O   UNL     1      31.529  24.436  12.472  0.00  0.00    -0.275 OA
ATOM      3  N   UNL     1      32.442  22.405  11.882  0.00  0.00    -0.315 N 
ATOM      4  H   UNL     1      32.520  21.786  11.085  0.00  0.00    +0.149 HD
ENDROOT
BRANCH   1   5
ATOM      5  C   UNL     1      32.120  24.140  10.175  0.00  0.00    +0.131 C 
BRANCH   5  10
ATOM      6  C   UNL     1      35.026  23.261   7.832  0.00  0.00    +0.052 A 
ATOM      7  C   UNL     1      36.065  24.003   8.406  0.00  0.00    +0.019 A 
ATOM      8  C   UNL     1      35.828  24.759   9.553  0.00  0.00    +0.002 A 
ATOM      9  C   UNL     1      34.558  24.774  10.134  0.00  0.00    +0.004 A 
ATOM     10  C   UNL     1      33.507  24.031   9.577  0.00  0.00    -0.037 A 
ATOM     11  C   UNL     1      33.751  23.281   8.415  0.00  0.00    +0.023 A 
BRANCH   6  13
ATOM     12  N   UNL     1      35.459  21.891   5.672  0.00  0.00    -0.191 NA
ATOM     13  C   UNL     1      35.266  22.501   6.641  0.00  0.00    +0.099 C 
ENDBRANCH   6  13
ENDBRANCH   5  10
ENDBRANCH   1   5
BRANCH   3  14
ATOM     14  C   UNL     1      32.054  21.799  13.143  0.00  0.00    +0.108 C 
BRANCH  14  15
ATOM     15  C   UNL     1      32.978  20.692  13.686  0.00  0.00    +0.011 C 
ATOM     16  C   UNL     1      32.250  19.648  14.528  0.00  0.00    +0.033 C 
ATOM     17  C   UNL     1      31.605  20.294  15.745  0.00  0.00    +0.161 C 
ATOM     18  O   UNL     1      32.482  21.152  16.471  0.00  0.00    -0.373 OA
ATOM     19  C   UNL     1      33.454  22.002  15.795  0.00  0.00    +0.070 C 
ATOM     20  C   UNL     1      33.066  23.495  15.512  0.00  0.00    +0.035 C 
ATOM     21  C   UNL     1      33.611  23.858  16.893  0.00  0.00    +0.006 C 
ATOM     22  C   UNL     1      34.489  22.595  16.810  0.00  0.00    +0.035 C 
ATOM     23  C   UNL     1      34.078  21.289  14.588  0.00  0.00    +0.040 C 
ENDBRANCH  14  15
ENDBRANCH   3  14
TORSDOF 5
ENDMDL
MODEL 4
REMARK VINA RESULT:      -6.0      2.085      6.459
REMARK  Name = ZINC000560333501
REMARK  5 active torsions:
REMARK  status: ('A' for Active; 'I' for Inactive)
REMARK    1  A    between atoms: C_2  and  C_3
REMARK    2  A    between atoms: C_7  and  C_8
REMARK    3  A    between atoms: C_8  and  C_9
REMARK    4  A    between atoms: N_11  and  C_12
REMARK    5  A    between atoms: C_12  and  C_13
REMARK                            x       y       z     vdW  Elec       q    Type
REMARK                         _______ _______ _______ _____ _____    ______ ____
ROOT
ATOM      1  C   UNL     1      32.116  23.814  11.612  0.00  0.00    +0.217 C 
ATOM      2  O   UNL     1      31.564  24.597  12.390  0.00  0.00    -0.275 OA
ATOM      3  N   UNL     1      32.800  22.687  12.032  0.00  0.00    -0.315 N 
ATOM      4  H   UNL     1      32.949  21.973  11.329  0.00  0.00    +0.149 HD
ENDROOT
BRANCH   1   5
ATOM      5  C   UNL     1      32.079  24.050  10.121  0.00  0.00    +0.131 C 
BRANCH   5  10
ATOM      6  C   UNL     1      34.835  22.814   7.758  0.00  0.00    +0.052 A 
ATOM      7  C   UNL     1      35.829  23.773   7.983  0.00  0.00    +0.019 A 
ATOM      8  C   UNL     1      35.614  24.793   8.909  0.00  0.00    +0.002 A 
ATOM      9  C   UNL     1      34.411  24.857   9.615  0.00  0.00    +0.004 A 
ATOM     10  C   UNL     1      33.407  23.901   9.409  0.00  0.00    -0.037 A 
ATOM     11  C   UNL     1      33.627  22.883   8.467  0.00  0.00    +0.023 A 
BRANCH   6  13
ATOM     12  N   UNL     1      35.222  20.932   6.015  0.00  0.00    -0.191 NA
ATOM     13  C   UNL     1      35.049  21.777   6.792  0.00  0.00    +0.099 C 
ENDBRANCH   6  13
ENDBRANCH   5  10
ENDBRANCH   1   5
BRANCH   3  14
ATOM     14  C   UNL     1      32.596  22.228  13.394  0.00  0.00    +0.108 C 
BRANCH  14  15
ATOM     15  C   UNL     1      31.435  21.241  13.620  0.00  0.00    +0.011 C 
ATOM     16  C   UNL     1      31.057  21.070  15.088  0.00  0.00    +0.033 C 
ATOM     17  C   UNL     1      32.233  20.528  15.886  0.00  0.00    +0.161 C 
ATOM     18  O   UNL     1      32.859  19.396  15.287  0.00  0.00    -0.373 OA
ATOM     19  C   UNL     1      33.024  19.288  13.843  0.00  0.00    +0.070 C 
ATOM     20  C   UNL     1      34.392  19.728  13.216  0.00  0.00    +0.035 C 
ATOM     21  C   UNL     1      34.911  18.309  13.448  0.00  0.00    +0.006 C 
ATOM     22  C   UNL     1      33.445  17.837  13.429  0.00  0.00    +0.035 C 
ATOM     23  C   UNL     1      31.801  19.836  13.097  0.00  0.00    +0.040 C 
ENDBRANCH  14  15
ENDBRANCH   3  14
TORSDOF 5
ENDMDL
MODEL 5
REMARK VINA RESULT:      -6.0      3.609      5.801
REMARK  Name = ZINC000560333501
REMARK  5 active torsions:
REMARK  status: ('A' for Active; 'I' for Inactive)
REMARK    1  A    between atoms: C_2  and  C_3
REMARK    2  A    between atoms: C_7  and  C_8
REMARK    3  A    between atoms: C_8  and  C_9
REMARK    4  A    between atoms: N_11  and  C_12
REMARK    5  A    between atoms: C_12  and  C_13
REMARK                            x       y       z     vdW  Elec       q    Type
REMARK                         _______ _______ _______ _____ _____    ______ ____
ROOT
ATOM      1  C   UNL     1      34.013  19.750  16.728  0.00  0.00    +0.217 C 
ATOM      2  O   UNL     1      33.638  19.038  15.792  0.00  0.00    -0.275 OA
ATOM      3  N   UNL     1      34.138  21.125  16.631  0.00  0.00    -0.315 N 
ATOM      4  H   UNL     1      34.156  21.631  17.508  0.00  0.00    +0.149 HD
ENDROOT
BRANCH   1   5
ATOM      5  C   UNL     1      34.368  19.146  18.066  0.00  0.00    +0.131 C 
BRANCH   5  10
ATOM      6  C   UNL     1      36.649  16.075  17.803  0.00  0.00    +0.052 A 
ATOM      7  C   UNL     1      37.911  16.670  17.911  0.00  0.00    +0.019 A 
ATOM      8  C   UNL     1      38.016  18.048  18.091  0.00  0.00    +0.002 A 
ATOM      9  C   UNL     1      36.866  18.836  18.170  0.00  0.00    +0.004 A 
ATOM     10  C   UNL     1      35.593  18.257  18.071  0.00  0.00    -0.037 A 
ATOM     11  C   UNL     1      35.496  16.868  17.878  0.00  0.00    +0.023 A 
BRANCH   6  13
ATOM     12  N   UNL     1      36.464  13.514  17.435  0.00  0.00    -0.191 NA
ATOM     13  C   UNL     1      36.542  14.660  17.598  0.00  0.00    +0.099 C 
ENDBRANCH   6  13
ENDBRANCH   5  10
ENDBRANCH   1   5
BRANCH   3  14
ATOM     14  C   UNL     1      33.509  21.792  15.506  0.00  0.00    +0.108 C 
BRANCH  14  15
ATOM     15  C   UNL     1      32.130  22.426  15.768  0.00  0.00    +0.011 C 
ATOM     16  C   UNL     1      30.967  21.453  15.594  0.00  0.00    +0.033 C 
ATOM     17  C   UNL     1      30.923  20.917  14.171  0.00  0.00    +0.161 C 
ATOM     18  O   UNL     1      31.016  21.931  13.174  0.00  0.00    -0.373 OA
ATOM     19  C   UNL     1      31.879  23.093  13.342  0.00  0.00    +0.070 C 
ATOM     20  C   UNL     1      33.309  23.056  12.700  0.00  0.00    +0.035 C 
ATOM     21  C   UNL     1      32.702  23.611  11.411  0.00  0.00    +0.006 C 
ATOM     22  C   UNL     1      31.563  24.192  12.271  0.00  0.00    +0.035 C 
ATOM     23  C   UNL     1      31.868  23.594  14.792  0.00  0.00    +0.040 C 
ENDBRANCH  14  15
ENDBRANCH   3  14
TORSDOF 5
ENDMDL
MODEL 6
REMARK VINA RESULT:      -6.0      1.327      1.859
REMARK  Name = ZINC000560333501
REMARK  5 active torsions:
REMARK  status: ('A' for Active; 'I' for Inactive)
REMARK    1  A    between atoms: C_2  and  C_3
REMARK    2  A    between atoms: C_7  and  C_8
REMARK    3  A    between atoms: C_8  and  C_9
REMARK    4  A    between atoms: N_11  and  C_12
REMARK    5  A    between atoms: C_12  and  C_13
REMARK                            x       y       z     vdW  Elec       q    Type
REMARK                         _______ _______ _______ _____ _____    ______ ____
ROOT
ATOM      1  C   UNL     1      31.601  22.995  13.046  0.00  0.00    +0.217 C 
ATOM      2  O   UNL     1      31.798  23.994  13.742  0.00  0.00    -0.275 OA
ATOM      3  N   UNL     1      31.943  22.925  11.707  0.00  0.00    -0.315 N 
ATOM      4  H   UNL     1      32.020  21.994  11.317  0.00  0.00    +0.149 HD
ENDROOT
BRANCH   1   5
ATOM      5  C   UNL     1      30.955  21.760  13.629  0.00  0.00    +0.131 C 
BRANCH   5  10
ATOM      6  C   UNL     1      33.363  19.557  15.642  0.00  0.00    +0.052 A 
ATOM      7  C   UNL     1      33.538  18.481  14.764  0.00  0.00    +0.019 A 
ATOM      8  C   UNL     1      32.901  18.486  13.524  0.00  0.00    +0.002 A 
ATOM      9  C   UNL     1      32.092  19.562  13.154  0.00  0.00    +0.004 A 
ATOM     10  C   UNL     1      31.910  20.652  14.018  0.00  0.00    -0.037 A 
ATOM     11  C   UNL     1      32.548  20.635  15.270  0.00  0.00    +0.023 A 
BRANCH   6  13
ATOM     12  N   UNL     1      34.520  19.522  17.964  0.00  0.00    -0.191 NA
ATOM     13  C   UNL     1      34.003  19.542  16.924  0.00  0.00    +0.099 C 
ENDBRANCH   6  13
ENDBRANCH   5  10
ENDBRANCH   1   5
BRANCH   3  14
ATOM     14  C   UNL     1      32.850  23.929  11.178  0.00  0.00    +0.108 C 
BRANCH  14  15
ATOM     15  C   UNL     1      34.347  23.728  11.478  0.00  0.00    +0.011 C 
ATOM     16  C   UNL     1      35.187  24.984  11.262  0.00  0.00    +0.033 C 
ATOM     17  C   UNL     1      35.103  25.444   9.815  0.00  0.00    +0.161 C 
ATOM     18  O   UNL     1      35.323  24.400   8.869  0.00  0.00    -0.373 OA
ATOM     19  C   UNL     1      34.823  23.049   9.090  0.00  0.00    +0.070 C 
ATOM     20  C   UNL     1      33.454  22.647   8.440  0.00  0.00    +0.035 C 
ATOM     21  C   UNL     1      34.217  22.230   7.183  0.00  0.00    +0.006 C 
ATOM     22  C   UNL     1      35.458  22.038   8.075  0.00  0.00    +0.035 C 
ATOM     23  C   UNL     1      34.948  22.640  10.563  0.00  0.00    +0.040 C 
ENDBRANCH  14  15
ENDBRANCH   3  14
TORSDOF 5
ENDMDL
MODEL 7
REMARK VINA RESULT:      -6.0      3.104      5.512
REMARK  Name = ZINC000560333501
REMARK  5 active torsions:
REMARK  status: ('A' for Active; 'I' for Inactive)
REMARK    1  A    between atoms: C_2  and  C_3
REMARK    2  A    between atoms: C_7  and  C_8
REMARK    3  A    between atoms: C_8  and  C_9
REMARK    4  A    between atoms: N_11  and  C_12
REMARK    5  A    between atoms: C_12  and  C_13
REMARK                            x       y       z     vdW  Elec       q    Type
REMARK                         _______ _______ _______ _____ _____    ______ ____
ROOT
ATOM      1  C   UNL     1      34.290  18.984  13.468  0.00  0.00    +0.217 C 
ATOM      2  O   UNL     1      33.846  19.158  12.330  0.00  0.00    -0.275 OA
ATOM      3  N   UNL     1      34.553  20.021  14.346  0.00  0.00    -0.315 N 
ATOM      4  H   UNL     1      34.621  19.768  15.323  0.00  0.00    +0.149 HD
ENDROOT
BRANCH   1   5
ATOM      5  C   UNL     1      34.583  17.594  13.981  0.00  0.00    +0.131 C 
BRANCH   5  10
ATOM      6  C   UNL     1      33.487  14.800  11.594  0.00  0.00    +0.052 A 
ATOM      7  C   UNL     1      34.653  14.619  10.841  0.00  0.00    +0.019 A 
ATOM      8  C   UNL     1      35.787  15.380  11.124  0.00  0.00    +0.002 A 
ATOM      9  C   UNL     1      35.764  16.317  12.158  0.00  0.00    +0.004 A 
ATOM     10  C   UNL     1      34.608  16.506  12.928  0.00  0.00    -0.037 A 
ATOM     11  C   UNL     1      33.465  15.744  12.630  0.00  0.00    +0.023 A 
BRANCH   6  13
ATOM     12  N   UNL     1      31.370  13.404  11.050  0.00  0.00    -0.191 NA
ATOM     13  C   UNL     1      32.316  14.031  11.290  0.00  0.00    +0.099 C 
ENDBRANCH   6  13
ENDBRANCH   5  10
ENDBRANCH   1   5
BRANCH   3  14
ATOM     14  C   UNL     1      33.993  21.328  14.049  0.00  0.00    +0.108 C 
BRANCH  14  15
ATOM     15  C   UNL     1      32.922  21.854  15.023  0.00  0.00    +0.011 C 
ATOM     16  C   UNL     1      31.702  20.945  15.137  0.00  0.00    +0.033 C 
ATOM     17  C   UNL     1      31.012  20.802  13.789  0.00  0.00    +0.161 C 
ATOM     18  O   UNL     1      30.782  22.043  13.128  0.00  0.00    -0.373 OA
ATOM     19  C   UNL     1      31.750  23.131  13.184  0.00  0.00    +0.070 C 
ATOM     20  C   UNL     1      32.768  23.281  12.001  0.00  0.00    +0.035 C 
ATOM     21  C   UNL     1      31.738  24.147  11.275  0.00  0.00    +0.006 C 
ATOM     22  C   UNL     1      31.129  24.468  12.653  0.00  0.00    +0.035 C 
ATOM     23  C   UNL     1      32.398  23.233  14.570  0.00  0.00    +0.040 C 
ENDBRANCH  14  15
ENDBRANCH   3  14
TORSDOF 5
ENDMDL
MODEL 8
REMARK VINA RESULT:      -5.9      2.175      6.885
REMARK  Name = ZINC000560333501
REMARK  5 active torsions:
REMARK  status: ('A' for Active; 'I' for Inactive)
REMARK    1  A    between atoms: C_2  and  C_3
REMARK    2  A    between atoms: C_7  and  C_8
REMARK    3  A    between atoms: C_8  and  C_9
REMARK    4  A    between atoms: N_11  and  C_12
REMARK    5  A    between atoms: C_12  and  C_13
REMARK                            x       y       z     vdW  Elec       q    Type
REMARK                         _______ _______ _______ _____ _____    ______ ____
ROOT
ATOM      1  C   UNL     1      32.842  22.560  11.928  0.00  0.00    +0.217 C 
ATOM      2  O   UNL     1      33.885  21.906  12.012  0.00  0.00    -0.275 OA
ATOM      3  N   UNL     1      31.668  22.197  12.565  0.00  0.00    -0.315 N 
ATOM      4  H   UNL     1      30.981  22.933  12.679  0.00  0.00    +0.149 HD
ENDROOT
BRANCH   1   5
ATOM      5  C   UNL     1      32.783  23.822  11.101  0.00  0.00    +0.131 C 
BRANCH   5  10
ATOM      6  C   UNL     1      35.121  23.574   8.071  0.00  0.00    +0.052 A 
ATOM      7  C   UNL     1      36.039  24.591   8.358  0.00  0.00    +0.019 A 
ATOM      8  C   UNL     1      35.911  25.330   9.533  0.00  0.00    +0.002 A 
ATOM      9  C   UNL     1      34.874  25.055  10.427  0.00  0.00    +0.004 A 
ATOM     10  C   UNL     1      33.950  24.036  10.160  0.00  0.00    -0.037 A 
ATOM     11  C   UNL     1      34.078  23.302   8.968  0.00  0.00    +0.023 A 
BRANCH   6  13
ATOM     12  N   UNL     1      35.343  22.217   5.871  0.00  0.00    -0.191 NA
ATOM     13  C   UNL     1      35.241  22.827   6.854  0.00  0.00    +0.099 C 
ENDBRANCH   6  13
ENDBRANCH   5  10
ENDBRANCH   1   5
BRANCH   3  14
ATOM     14  C   UNL     1      31.741  21.203  13.621  0.00  0.00    +0.108 C 
BRANCH  14  15
ATOM     15  C   UNL     1      31.339  21.671  15.033  0.00  0.00    +0.011 C 
ATOM     16  C   UNL     1      31.978  22.994  15.442  0.00  0.00    +0.033 C 
ATOM     17  C   UNL     1      33.495  22.879  15.450  0.00  0.00    +0.161 C 
ATOM     18  O   UNL     1      33.978  21.733  16.148  0.00  0.00    -0.373 OA
ATOM     19  C   UNL     1      33.287  20.452  16.085  0.00  0.00    +0.070 C 
ATOM     20  C   UNL     1      33.786  19.388  15.046  0.00  0.00    +0.035 C 
ATOM     21  C   UNL     1      34.772  18.880  16.098  0.00  0.00    +0.006 C 
ATOM     22  C   UNL     1      33.832  19.462  17.171  0.00  0.00    +0.035 C 
ATOM     23  C   UNL     1      31.764  20.635  16.095  0.00  0.00    +0.040 C 
ENDBRANCH  14  15
ENDBRANCH   3  14
TORSDOF 5
ENDMDL
MODEL 9
REMARK VINA RESULT:      -5.9      5.150      7.349
REMARK  Name = ZINC000560333501
REMARK  5 active torsions:
REMARK  status: ('A' for Active; 'I' for Inactive)
REMARK    1  A    between atoms: C_2  and  C_3
REMARK    2  A    between atoms: C_7  and  C_8
REMARK    3  A    between atoms: C_8  and  C_9
REMARK    4  A    between atoms: N_11  and  C_12
REMARK    5  A    between atoms: C_12  and  C_13
REMARK                            x       y       z     vdW  Elec       q    Type
REMARK                         _______ _______ _______ _____ _____    ______ ____
ROOT
ATOM      1  C   UNL     1      35.688  22.886  16.134  0.00  0.00    +0.217 C 
ATOM      2  O   UNL     1      35.612  21.954  16.939  0.00  0.00    -0.275 OA
ATOM      3  N   UNL     1      34.968  22.927  14.953  0.00  0.00    -0.315 N 
ATOM      4  H   UNL     1      34.869  23.839  14.525  0.00  0.00    +0.149 HD
ENDROOT
BRANCH   1   5
ATOM      5  C   UNL     1      36.596  24.065  16.396  0.00  0.00    +0.131 C 
BRANCH   5  10
ATOM      6  C   UNL     1      36.224  27.239  18.515  0.00  0.00    +0.052 A 
ATOM      7  C   UNL     1      34.845  27.240  18.754  0.00  0.00    +0.019 A 
ATOM      8  C   UNL     1      34.052  26.209  18.253  0.00  0.00    +0.002 A 
ATOM      9  C   UNL     1      34.630  25.173  17.518  0.00  0.00    +0.004 A 
ATOM     10  C   UNL     1      36.011  25.150  17.274  0.00  0.00    -0.037 A 
ATOM     11  C   UNL     1      36.802  26.199  17.774  0.00  0.00    +0.023 A 
BRANCH   6  13
ATOM     12  N   UNL     1      37.686  29.180  19.423  0.00  0.00    -0.191 NA
ATOM     13  C   UNL     1      37.036  28.310  19.014  0.00  0.00    +0.099 C 
ENDBRANCH   6  13
ENDBRANCH   5  10
ENDBRANCH   1   5
BRANCH   3  14
ATOM     14  C   UNL     1      33.851  22.011  14.800  0.00  0.00    +0.108 C 
BRANCH  14  15
ATOM     15  C   UNL     1      32.514  22.448  15.427  0.00  0.00    +0.011 C 
ATOM     16  C   UNL     1      31.451  21.353  15.424  0.00  0.00    +0.033 C 
ATOM     17  C   UNL     1      31.129  20.922  14.001  0.00  0.00    +0.161 C 
ATOM     18  O   UNL     1      30.878  22.011  13.115  0.00  0.00    -0.373 OA
ATOM     19  C   UNL     1      31.631  23.255  13.200  0.00  0.00    +0.070 C 
ATOM     20  C   UNL     1      32.866  23.443  12.252  0.00  0.00    +0.035 C 
ATOM     21  C   UNL     1      31.919  24.011  11.195  0.00  0.00    +0.006 C 
ATOM     22  C   UNL     1      30.960  24.382  12.343  0.00  0.00    +0.035 C 
ATOM     23  C   UNL     1      31.911  23.642  14.658  0.00  0.00    +0.040 C 
ENDBRANCH  14  15
ENDBRANCH   3  14
TORSDOF 5
ENDMDL
