MODEL 1
REMARK VINA RESULT:      -6.8      0.000      0.000
REMARK  Name = ZINC000826139982
REMARK  4 active torsions:
REMARK  status: ('A' for Active; 'I' for Inactive)
REMARK    1  A    between atoms: C_2  and  C_4
REMARK    2  A    between atoms: C_8  and  C_10
REMARK    3  A    between atoms: C_14  and  S_15
REMARK    4  A    between atoms: S_15  and  C_16
REMARK                            x       y       z     vdW  Elec       q    Type
REMARK                         _______ _______ _______ _____ _____    ______ ____
ROOT
ATOM      1  C   UNL     1      13.574   4.492  14.613  0.00  0.00    +0.093 C 
ATOM      2  C   UNL     1      12.335   5.395  14.622  0.00  0.00    +0.033 C 
ATOM      3  C   UNL     1      11.764   5.310  13.213  0.00  0.00    +0.109 C 
ATOM      4  N   UNL     1      12.910   5.008  12.382  0.00  0.00    -0.297 N 
ATOM      5  C   UNL     1      12.945   5.354  11.037  0.00  0.00    +0.247 C 
ATOM      6  O   UNL     1      12.039   6.006  10.518  0.00  0.00    -0.270 OA
ATOM      7  C   UNL     1      13.857   4.209  13.143  0.00  0.00    +0.120 C 
ENDROOT
BRANCH   5   8
ATOM      8  C   UNL     1      14.129   5.009  10.183  0.00  0.00    +0.038 A 
ATOM      9  C   UNL     1      15.310   5.757  10.163  0.00  0.00    +0.013 A 
ATOM     10  C   UNL     1      16.331   5.463   9.260  0.00  0.00    +0.002 A 
ATOM     11  C   UNL     1      16.228   4.349   8.435  0.00  0.00    +0.015 A 
ATOM     12  C   UNL     1      15.118   3.504   8.534  0.00  0.00    +0.017 A 
ATOM     13  C   UNL     1      14.057   3.857   9.380  0.00  0.00    +0.028 A 
BRANCH  12  14
ATOM     14  S   UNL     1      15.022   2.011   7.568  0.00  0.00    -0.016 S 
BRANCH  14  15
ATOM     15  C   UNL     1      13.945   2.536   6.218  0.00  0.00    +0.448 C 
ATOM     16  F   UNL     1      14.192   1.914   5.041  0.00  0.00    -0.160 F 
ATOM     17  F   UNL     1      12.645   2.309   6.522  0.00  0.00    -0.160 F 
ATOM     18  F   UNL     1      14.075   3.868   5.995  0.00  0.00    -0.160 F 
ENDBRANCH  14  15
ENDBRANCH  12  14
ENDBRANCH   5   8
BRANCH   1  20
ATOM     19  N   UNL     1      12.887   3.383  16.663  0.00  0.00    -0.329 N 
ATOM     20  C   UNL     1      13.425   3.216  15.421  0.00  0.00    +0.215 C 
ATOM     21  O   UNL     1      13.800   2.112  15.058  0.00  0.00    -0.276 OA
ATOM     22  H   UNL     1      12.834   2.569  17.262  0.00  0.00    +0.145 HD
ATOM     23  H   UNL     1      12.626   4.283  17.041  0.00  0.00    +0.145 HD
ENDBRANCH   1  20
TORSDOF 4
ENDMDL
MODEL 2
REMARK VINA RESULT:      -6.8      5.082      7.261
REMARK  Name = ZINC000826139982
REMARK  4 active torsions:
REMARK  status: ('A' for Active; 'I' for Inactive)
REMARK    1  A    between atoms: C_2  and  C_4
REMARK    2  A    between atoms: C_8  and  C_10
REMARK    3  A    between atoms: C_14  and  S_15
REMARK    4  A    between atoms: S_15  and  C_16
REMARK                            x       y       z     vdW  Elec       q    Type
REMARK                         _______ _______ _______ _____ _____    ______ ____
ROOT
ATOM      1  C   UNL     1      12.974   4.399   6.295  0.00  0.00    +0.093 C 
ATOM      2  C   UNL     1      13.267   5.742   5.618  0.00  0.00    +0.033 C 
ATOM      3  C   UNL     1      13.905   6.608   6.697  0.00  0.00    +0.109 C 
ATOM      4  N   UNL     1      13.369   6.083   7.936  0.00  0.00    -0.297 N 
ATOM      5  C   UNL     1      13.267   6.872   9.075  0.00  0.00    +0.247 C 
ATOM      6  O   UNL     1      13.549   8.070   9.054  0.00  0.00    -0.270 OA
ATOM      7  C   UNL     1      13.129   4.657   7.789  0.00  0.00    +0.120 C 
ENDROOT
BRANCH   5   8
ATOM      8  C   UNL     1      12.736   6.306  10.359  0.00  0.00    +0.038 A 
ATOM      9  C   UNL     1      11.445   6.553  10.836  0.00  0.00    +0.013 A 
ATOM     10  C   UNL     1      11.046   6.104  12.094  0.00  0.00    +0.002 A 
ATOM     11  C   UNL     1      11.900   5.308  12.849  0.00  0.00    +0.015 A 
ATOM     12  C   UNL     1      13.144   4.930  12.335  0.00  0.00    +0.017 A 
ATOM     13  C   UNL     1      13.572   5.460  11.109  0.00  0.00    +0.028 A 
BRANCH  12  14
ATOM     14  S   UNL     1      14.203   3.819  13.238  0.00  0.00    -0.016 S 
BRANCH  14  15
ATOM     15  C   UNL     1      13.724   4.185  14.940  0.00  0.00    +0.448 C 
ATOM     16  F   UNL     1      13.140   5.396  15.100  0.00  0.00    -0.160 F 
ATOM     17  F   UNL     1      12.853   3.259  15.406  0.00  0.00    -0.160 F 
ATOM     18  F   UNL     1      14.807   4.159  15.756  0.00  0.00    -0.160 F 
ENDBRANCH  14  15
ENDBRANCH  12  14
ENDBRANCH   5   8
BRANCH   1  20
ATOM     19  N   UNL     1      14.489   3.475   4.637  0.00  0.00    -0.329 N 
ATOM     20  C   UNL     1      13.849   3.254   5.820  0.00  0.00    +0.215 C 
ATOM     21  O   UNL     1      13.954   2.175   6.384  0.00  0.00    -0.276 OA
ATOM     22  H   UNL     1      15.029   2.710   4.249  0.00  0.00    +0.145 HD
ATOM     23  H   UNL     1      14.381   4.319   4.093  0.00  0.00    +0.145 HD
ENDBRANCH   1  20
TORSDOF 4
ENDMDL
MODEL 3
REMARK VINA RESULT:      -6.8      4.942      6.462
REMARK  Name = ZINC000826139982
REMARK  4 active torsions:
REMARK  status: ('A' for Active; 'I' for Inactive)
REMARK    1  A    between atoms: C_2  and  C_4
REMARK    2  A    between atoms: C_8  and  C_10
REMARK    3  A    between atoms: C_14  and  S_15
REMARK    4  A    between atoms: S_15  and  C_16
REMARK                            x       y       z     vdW  Elec       q    Type
REMARK                         _______ _______ _______ _____ _____    ______ ____
ROOT
ATOM      1  C   UNL     1      16.945   3.864   9.042  0.00  0.00    +0.093 C 
ATOM      2  C   UNL     1      17.115   2.591   8.205  0.00  0.00    +0.033 C 
ATOM      3  C   UNL     1      16.604   2.948   6.816  0.00  0.00    +0.109 C 
ATOM      4  N   UNL     1      15.636   3.999   7.053  0.00  0.00    -0.297 N 
ATOM      5  C   UNL     1      14.589   4.236   6.170  0.00  0.00    +0.247 C 
ATOM      6  O   UNL     1      14.395   3.510   5.196  0.00  0.00    -0.270 OA
ATOM      7  C   UNL     1      16.042   4.771   8.217  0.00  0.00    +0.120 C 
ENDROOT
BRANCH   5   8
ATOM      8  C   UNL     1      13.611   5.346   6.416  0.00  0.00    +0.038 A 
ATOM      9  C   UNL     1      13.476   6.455   5.576  0.00  0.00    +0.013 A 
ATOM     10  C   UNL     1      12.639   7.517   5.918  0.00  0.00    +0.002 A 
ATOM     11  C   UNL     1      11.844   7.435   7.055  0.00  0.00    +0.015 A 
ATOM     12  C   UNL     1      11.857   6.277   7.837  0.00  0.00    +0.017 A 
ATOM     13  C   UNL     1      12.767   5.253   7.536  0.00  0.00    +0.028 A 
BRANCH  12  14
ATOM     14  S   UNL     1      10.762   6.108   9.232  0.00  0.00    -0.016 S 
BRANCH  14  15
ATOM     15  C   UNL     1      11.882   6.466  10.602  0.00  0.00    +0.448 C 
ATOM     16  F   UNL     1      11.315   7.173  11.608  0.00  0.00    -0.160 F 
ATOM     17  F   UNL     1      12.364   5.321  11.143  0.00  0.00    -0.160 F 
ATOM     18  F   UNL     1      12.950   7.182  10.170  0.00  0.00    -0.160 F 
ENDBRANCH  14  15
ENDBRANCH  12  14
ENDBRANCH   5   8
BRANCH   1  20
ATOM     19  N   UNL     1      19.358   3.761   9.305  0.00  0.00    -0.329 N 
ATOM     20  C   UNL     1      18.248   4.545   9.418  0.00  0.00    +0.215 C 
ATOM     21  O   UNL     1      18.340   5.682   9.854  0.00  0.00    -0.276 OA
ATOM     22  H   UNL     1      20.239   4.154   9.613  0.00  0.00    +0.145 HD
ATOM     23  H   UNL     1      19.331   2.793   9.019  0.00  0.00    +0.145 HD
ENDBRANCH   1  20
TORSDOF 4
ENDMDL
MODEL 4
REMARK VINA RESULT:      -6.7      2.044      2.356
REMARK  Name = ZINC000826139982
REMARK  4 active torsions:
REMARK  status: ('A' for Active; 'I' for Inactive)
REMARK    1  A    between atoms: C_2  and  C_4
REMARK    2  A    between atoms: C_8  and  C_10
REMARK    3  A    between atoms: C_14  and  S_15
REMARK    4  A    between atoms: S_15  and  C_16
REMARK                            x       y       z     vdW  Elec       q    Type
REMARK                         _______ _______ _______ _____ _____    ______ ____
ROOT
ATOM      1  C   UNL     1      13.305   4.904  14.369  0.00  0.00    +0.093 C 
ATOM      2  C   UNL     1      11.892   5.318  14.796  0.00  0.00    +0.033 C 
ATOM      3  C   UNL     1      11.029   5.154  13.552  0.00  0.00    +0.109 C 
ATOM      4  N   UNL     1      11.954   5.335  12.452  0.00  0.00    -0.297 N 
ATOM      5  C   UNL     1      11.524   5.779  11.208  0.00  0.00    +0.247 C 
ATOM      6  O   UNL     1      10.356   6.115  11.013  0.00  0.00    -0.270 OA
ATOM      7  C   UNL     1      13.269   4.856  12.847  0.00  0.00    +0.120 C 
ENDROOT
BRANCH   5   8
ATOM      8  C   UNL     1      12.490   5.935  10.070  0.00  0.00    +0.038 A 
ATOM      9  C   UNL     1      12.960   7.173   9.622  0.00  0.00    +0.013 A 
ATOM     10  C   UNL     1      13.759   7.269   8.483  0.00  0.00    +0.002 A 
ATOM     11  C   UNL     1      14.187   6.114   7.838  0.00  0.00    +0.015 A 
ATOM     12  C   UNL     1      13.846   4.858   8.349  0.00  0.00    +0.017 A 
ATOM     13  C   UNL     1      12.969   4.774   9.440  0.00  0.00    +0.028 A 
BRANCH  12  14
ATOM     14  S   UNL     1      14.479   3.370   7.603  0.00  0.00    -0.016 S 
BRANCH  14  15
ATOM     15  C   UNL     1      16.158   3.333   8.264  0.00  0.00    +0.448 C 
ATOM     16  F   UNL     1      16.327   4.076   9.383  0.00  0.00    -0.160 F 
ATOM     17  F   UNL     1      16.529   2.067   8.569  0.00  0.00    -0.160 F 
ATOM     18  F   UNL     1      17.042   3.797   7.346  0.00  0.00    -0.160 F 
ENDBRANCH  14  15
ENDBRANCH  12  14
ENDBRANCH   5   8
BRANCH   1  20
ATOM     19  N   UNL     1      12.966   3.072  15.929  0.00  0.00    -0.329 N 
ATOM     20  C   UNL     1      13.783   3.596  14.971  0.00  0.00    +0.215 C 
ATOM     21  O   UNL     1      14.840   3.047  14.697  0.00  0.00    -0.276 OA
ATOM     22  H   UNL     1      13.281   2.236  16.405  0.00  0.00    +0.145 HD
ATOM     23  H   UNL     1      12.118   3.521  16.244  0.00  0.00    +0.145 HD
ENDBRANCH   1  20
TORSDOF 4
ENDMDL
MODEL 5
REMARK VINA RESULT:      -6.5      2.118      2.529
REMARK  Name = ZINC000826139982
REMARK  4 active torsions:
REMARK  status: ('A' for Active; 'I' for Inactive)
REMARK    1  A    between atoms: C_2  and  C_4
REMARK    2  A    between atoms: C_8  and  C_10
REMARK    3  A    between atoms: C_14  and  S_15
REMARK    4  A    between atoms: S_15  and  C_16
REMARK                            x       y       z     vdW  Elec       q    Type
REMARK                         _______ _______ _______ _____ _____    ______ ____
ROOT
ATOM      1  C   UNL     1      12.320   6.046  12.532  0.00  0.00    +0.093 C 
ATOM      2  C   UNL     1      11.204   6.490  11.580  0.00  0.00    +0.033 C 
ATOM      3  C   UNL     1      11.395   5.659  10.318  0.00  0.00    +0.109 C 
ATOM      4  N   UNL     1      12.812   5.357  10.303  0.00  0.00    -0.297 N 
ATOM      5  C   UNL     1      13.486   5.091   9.118  0.00  0.00    +0.247 C 
ATOM      6  O   UNL     1      12.926   5.184   8.026  0.00  0.00    -0.270 OA
ATOM      7  C   UNL     1      13.294   5.253  11.671  0.00  0.00    +0.120 C 
ENDROOT
BRANCH   5   8
ATOM      8  C   UNL     1      14.947   4.752   9.122  0.00  0.00    +0.038 A 
ATOM      9  C   UNL     1      15.934   5.600   9.633  0.00  0.00    +0.013 A 
ATOM     10  C   UNL     1      17.287   5.291   9.500  0.00  0.00    +0.002 A 
ATOM     11  C   UNL     1      17.668   4.073   8.947  0.00  0.00    +0.015 A 
ATOM     12  C   UNL     1      16.697   3.147   8.555  0.00  0.00    +0.017 A 
ATOM     13  C   UNL     1      15.342   3.504   8.611  0.00  0.00    +0.028 A 
BRANCH  12  14
ATOM     14  S   UNL     1      17.166   1.538   7.951  0.00  0.00    -0.016 S 
BRANCH  14  15
ATOM     15  C   UNL     1      16.607   1.632   6.237  0.00  0.00    +0.448 C 
ATOM     16  F   UNL     1      17.263   0.798   5.396  0.00  0.00    -0.160 F 
ATOM     17  F   UNL     1      15.289   1.334   6.142  0.00  0.00    -0.160 F 
ATOM     18  F   UNL     1      16.768   2.887   5.751  0.00  0.00    -0.160 F 
ENDBRANCH  14  15
ENDBRANCH  12  14
ENDBRANCH   5   8
BRANCH   1  20
ATOM     19  N   UNL     1      12.826   4.844  14.582  0.00  0.00    -0.329 N 
ATOM     20  C   UNL     1      11.840   5.251  13.732  0.00  0.00    +0.215 C 
ATOM     21  O   UNL     1      10.680   4.921  13.932  0.00  0.00    -0.276 OA
ATOM     22  H   UNL     1      12.557   4.252  15.358  0.00  0.00    +0.145 HD
ATOM     23  H   UNL     1      13.806   5.027  14.426  0.00  0.00    +0.145 HD
ENDBRANCH   1  20
TORSDOF 4
ENDMDL
MODEL 6
REMARK VINA RESULT:      -6.5      5.328      7.640
REMARK  Name = ZINC000826139982
REMARK  4 active torsions:
REMARK  status: ('A' for Active; 'I' for Inactive)
REMARK    1  A    between atoms: C_2  and  C_4
REMARK    2  A    between atoms: C_8  and  C_10
REMARK    3  A    between atoms: C_14  and  S_15
REMARK    4  A    between atoms: S_15  and  C_16
REMARK                            x       y       z     vdW  Elec       q    Type
REMARK                         _______ _______ _______ _____ _____    ______ ____
ROOT
ATOM      1  C   UNL     1      15.226   3.069   4.714  0.00  0.00    +0.093 C 
ATOM      2  C   UNL     1      15.587   4.239   3.791  0.00  0.00    +0.033 C 
ATOM      3  C   UNL     1      15.491   5.485   4.660  0.00  0.00    +0.109 C 
ATOM      4  N   UNL     1      14.523   5.134   5.679  0.00  0.00    -0.297 N 
ATOM      5  C   UNL     1      13.769   6.102   6.330  0.00  0.00    +0.247 C 
ATOM      6  O   UNL     1      13.833   7.289   6.009  0.00  0.00    -0.270 OA
ATOM      7  C   UNL     1      14.611   3.708   5.953  0.00  0.00    +0.120 C 
ENDROOT
BRANCH   5   8
ATOM      8  C   UNL     1      12.791   5.725   7.403  0.00  0.00    +0.038 A 
ATOM      9  C   UNL     1      11.430   5.508   7.165  0.00  0.00    +0.013 A 
ATOM     10  C   UNL     1      10.544   5.281   8.217  0.00  0.00    +0.002 A 
ATOM     11  C   UNL     1      11.026   5.162   9.515  0.00  0.00    +0.015 A 
ATOM     12  C   UNL     1      12.400   5.235   9.763  0.00  0.00    +0.017 A 
ATOM     13  C   UNL     1      13.273   5.553   8.712  0.00  0.00    +0.028 A 
BRANCH  12  14
ATOM     14  S   UNL     1      13.045   4.971  11.402  0.00  0.00    -0.016 S 
BRANCH  14  15
ATOM     15  C   UNL     1      11.857   5.896  12.398  0.00  0.00    +0.448 C 
ATOM     16  F   UNL     1      10.652   5.292  12.523  0.00  0.00    -0.160 F 
ATOM     17  F   UNL     1      12.332   6.097  13.651  0.00  0.00    -0.160 F 
ATOM     18  F   UNL     1      11.631   7.119  11.857  0.00  0.00    -0.160 F 
ENDBRANCH  14  15
ENDBRANCH  12  14
ENDBRANCH   5   8
BRANCH   1  20
ATOM     19  N   UNL     1      16.361   1.644   6.321  0.00  0.00    -0.329 N 
ATOM     20  C   UNL     1      16.391   2.160   5.059  0.00  0.00    +0.215 C 
ATOM     21  O   UNL     1      17.337   1.929   4.322  0.00  0.00    -0.276 OA
ATOM     22  H   UNL     1      17.154   1.088   6.616  0.00  0.00    +0.145 HD
ATOM     23  H   UNL     1      15.641   1.860   6.995  0.00  0.00    +0.145 HD
ENDBRANCH   1  20
TORSDOF 4
ENDMDL
MODEL 7
REMARK VINA RESULT:      -6.4      2.748      3.752
REMARK  Name = ZINC000826139982
REMARK  4 active torsions:
REMARK  status: ('A' for Active; 'I' for Inactive)
REMARK    1  A    between atoms: C_2  and  C_4
REMARK    2  A    between atoms: C_8  and  C_10
REMARK    3  A    between atoms: C_14  and  S_15
REMARK    4  A    between atoms: S_15  and  C_16
REMARK                            x       y       z     vdW  Elec       q    Type
REMARK                         _______ _______ _______ _____ _____    ______ ____
ROOT
ATOM      1  C   UNL     1      13.016   5.833  11.056  0.00  0.00    +0.093 C 
ATOM      2  C   UNL     1      11.565   6.297  11.227  0.00  0.00    +0.033 C 
ATOM      3  C   UNL     1      10.816   5.731  10.028  0.00  0.00    +0.109 C 
ATOM      4  N   UNL     1      11.829   5.613   9.000  0.00  0.00    -0.297 N 
ATOM      5  C   UNL     1      11.502   5.645   7.650  0.00  0.00    +0.247 C 
ATOM      6  O   UNL     1      10.350   5.858   7.273  0.00  0.00    -0.270 OA
ATOM      7  C   UNL     1      13.113   5.330   9.622  0.00  0.00    +0.120 C 
ENDROOT
BRANCH   5   8
ATOM      8  C   UNL     1      12.560   5.493   6.597  0.00  0.00    +0.038 A 
ATOM      9  C   UNL     1      13.116   6.570   5.901  0.00  0.00    +0.013 A 
ATOM     10  C   UNL     1      14.005   6.363   4.847  0.00  0.00    +0.002 A 
ATOM     11  C   UNL     1      14.432   5.075   4.544  0.00  0.00    +0.015 A 
ATOM     12  C   UNL     1      13.999   3.993   5.316  0.00  0.00    +0.017 A 
ATOM     13  C   UNL     1      13.037   4.201   6.315  0.00  0.00    +0.028 A 
BRANCH  12  14
ATOM     14  S   UNL     1      14.624   2.353   5.015  0.00  0.00    -0.016 S 
BRANCH  14  15
ATOM     15  C   UNL     1      15.925   2.240   6.262  0.00  0.00    +0.448 C 
ATOM     16  F   UNL     1      16.870   1.310   5.990  0.00  0.00    -0.160 F 
ATOM     17  F   UNL     1      16.564   3.426   6.402  0.00  0.00    -0.160 F 
ATOM     18  F   UNL     1      15.399   1.925   7.472  0.00  0.00    -0.160 F 
ENDBRANCH  14  15
ENDBRANCH  12  14
ENDBRANCH   5   8
BRANCH   1  20
ATOM     19  N   UNL     1      14.287   3.824  11.557  0.00  0.00    -0.329 N 
ATOM     20  C   UNL     1      13.462   4.786  12.060  0.00  0.00    +0.215 C 
ATOM     21  O   UNL     1      13.088   4.730  13.222  0.00  0.00    -0.276 OA
ATOM     22  H   UNL     1      14.552   3.068  12.175  0.00  0.00    +0.145 HD
ATOM     23  H   UNL     1      14.569   3.782  10.588  0.00  0.00    +0.145 HD
ENDBRANCH   1  20
TORSDOF 4
ENDMDL
MODEL 8
REMARK VINA RESULT:      -6.4      2.507      3.265
REMARK  Name = ZINC000826139982
REMARK  4 active torsions:
REMARK  status: ('A' for Active; 'I' for Inactive)
REMARK    1  A    between atoms: C_2  and  C_4
REMARK    2  A    between atoms: C_8  and  C_10
REMARK    3  A    between atoms: C_14  and  S_15
REMARK    4  A    between atoms: S_15  and  C_16
REMARK                            x       y       z     vdW  Elec       q    Type
REMARK                         _______ _______ _______ _____ _____    ______ ____
ROOT
ATOM      1  C   UNL     1      12.434   5.728  12.250  0.00  0.00    +0.093 C 
ATOM      2  C   UNL     1      11.095   6.443  12.036  0.00  0.00    +0.033 C 
ATOM      3  C   UNL     1      10.394   5.667  10.929  0.00  0.00    +0.109 C 
ATOM      4  N   UNL     1      11.477   5.086  10.162  0.00  0.00    -0.297 N 
ATOM      5  C   UNL     1      11.323   4.760   8.820  0.00  0.00    +0.247 C 
ATOM      6  O   UNL     1      10.290   5.028   8.208  0.00  0.00    -0.270 OA
ATOM      7  C   UNL     1      12.596   4.806  11.047  0.00  0.00    +0.120 C 
ENDROOT
BRANCH   5   8
ATOM      8  C   UNL     1      12.446   4.134   8.046  0.00  0.00    +0.038 A 
ATOM      9  C   UNL     1      12.768   2.775   8.117  0.00  0.00    +0.013 A 
ATOM     10  C   UNL     1      13.897   2.270   7.474  0.00  0.00    +0.002 A 
ATOM     11  C   UNL     1      14.662   3.100   6.662  0.00  0.00    +0.015 A 
ATOM     12  C   UNL     1      14.281   4.430   6.463  0.00  0.00    +0.017 A 
ATOM     13  C   UNL     1      13.197   4.951   7.184  0.00  0.00    +0.028 A 
BRANCH  12  14
ATOM     14  S   UNL     1      15.183   5.476   5.338  0.00  0.00    -0.016 S 
BRANCH  14  15
ATOM     15  C   UNL     1      14.491   4.962   3.752  0.00  0.00    +0.448 C 
ATOM     16  F   UNL     1      13.258   4.411   3.840  0.00  0.00    -0.160 F 
ATOM     17  F   UNL     1      14.396   6.013   2.903  0.00  0.00    -0.160 F 
ATOM     18  F   UNL     1      15.292   4.043   3.158  0.00  0.00    -0.160 F 
ENDBRANCH  14  15
ENDBRANCH  12  14
ENDBRANCH   5   8
BRANCH   1  20
ATOM     19  N   UNL     1      11.405   4.981  14.320  0.00  0.00    -0.329 N 
ATOM     20  C   UNL     1      12.540   4.976  13.563  0.00  0.00    +0.215 C 
ATOM     21  O   UNL     1      13.557   4.446  13.984  0.00  0.00    -0.276 OA
ATOM     22  H   UNL     1      11.453   4.550  15.235  0.00  0.00    +0.145 HD
ATOM     23  H   UNL     1      10.560   5.464  14.054  0.00  0.00    +0.145 HD
ENDBRANCH   1  20
TORSDOF 4
ENDMDL
MODEL 9
REMARK VINA RESULT:      -6.4      3.433      5.386
REMARK  Name = ZINC000826139982
REMARK  4 active torsions:
REMARK  status: ('A' for Active; 'I' for Inactive)
REMARK    1  A    between atoms: C_2  and  C_4
REMARK    2  A    between atoms: C_8  and  C_10
REMARK    3  A    between atoms: C_14  and  S_15
REMARK    4  A    between atoms: S_15  and  C_16
REMARK                            x       y       z     vdW  Elec       q    Type
REMARK                         _______ _______ _______ _____ _____    ______ ____
ROOT
ATOM      1  C   UNL     1      12.379   6.271   6.977  0.00  0.00    +0.093 C 
ATOM      2  C   UNL     1      11.330   6.200   8.092  0.00  0.00    +0.033 C 
ATOM      3  C   UNL     1      12.109   6.357   9.391  0.00  0.00    +0.109 C 
ATOM      4  N   UNL     1      13.430   5.853   9.076  0.00  0.00    -0.297 N 
ATOM      5  C   UNL     1      14.264   5.336  10.060  0.00  0.00    +0.247 C 
ATOM      6  O   UNL     1      13.883   5.209  11.223  0.00  0.00    -0.270 OA
ATOM      7  C   UNL     1      13.724   6.118   7.677  0.00  0.00    +0.120 C 
ENDROOT
BRANCH   5   8
ATOM      8  C   UNL     1      15.640   4.844   9.722  0.00  0.00    +0.038 A 
ATOM      9  C   UNL     1      16.811   5.518  10.082  0.00  0.00    +0.013 A 
ATOM     10  C   UNL     1      18.058   5.081   9.636  0.00  0.00    +0.002 A 
ATOM     11  C   UNL     1      18.159   3.901   8.909  0.00  0.00    +0.015 A 
ATOM     12  C   UNL     1      17.018   3.134   8.654  0.00  0.00    +0.017 A 
ATOM     13  C   UNL     1      15.760   3.627   9.029  0.00  0.00    +0.028 A 
BRANCH  12  14
ATOM     14  S   UNL     1      17.144   1.564   7.824  0.00  0.00    -0.016 S 
BRANCH  14  15
ATOM     15  C   UNL     1      16.455   1.967   6.205  0.00  0.00    +0.448 C 
ATOM     16  F   UNL     1      15.142   1.664   6.073  0.00  0.00    -0.160 F 
ATOM     17  F   UNL     1      16.585   3.289   5.941  0.00  0.00    -0.160 F 
ATOM     18  F   UNL     1      17.114   1.299   5.226  0.00  0.00    -0.160 F 
ENDBRANCH  14  15
ENDBRANCH  12  14
ENDBRANCH   5   8
BRANCH   1  20
ATOM     19  N   UNL     1      11.327   8.405   6.485  0.00  0.00    -0.329 N 
ATOM     20  C   UNL     1      12.314   7.532   6.135  0.00  0.00    +0.215 C 
ATOM     21  O   UNL     1      13.025   7.764   5.169  0.00  0.00    -0.276 OA
ATOM     22  H   UNL     1      11.203   9.226   5.907  0.00  0.00    +0.145 HD
ATOM     23  H   UNL     1      10.666   8.230   7.228  0.00  0.00    +0.145 HD
ENDBRANCH   1  20
TORSDOF 4
ENDMDL
