MODEL 1
REMARK VINA RESULT:      -6.8      0.000      0.000
REMARK  Name = ZINC000583127796
REMARK  2 active torsions:
REMARK  status: ('A' for Active; 'I' for Inactive)
REMARK    1  A    between atoms: C_2  and  C_4
REMARK    2  A    between atoms: C_7  and  C_8
REMARK                            x       y       z     vdW  Elec       q    Type
REMARK                         _______ _______ _______ _____ _____    ______ ____
ROOT
ATOM      1  C   UNL     1      22.320   5.489  27.103  0.00  0.00    +0.247 C 
ATOM      2  O   UNL     1      23.199   6.339  27.260  0.00  0.00    -0.270 OA
ATOM      3  N   UNL     1      22.422   4.452  26.163  0.00  0.00    -0.297 N 
ATOM      4  C   UNL     1      21.432   3.405  25.905  0.00  0.00    +0.108 C 
ATOM      5  C   UNL     1      22.018   2.009  26.007  0.00  0.00    +0.020 C 
ATOM      6  C   UNL     1      23.289   1.873  25.187  0.00  0.00    +0.011 C 
ATOM      7  C   UNL     1      24.327   2.981  25.488  0.00  0.00    -0.004 C 
ATOM      8  C   UNL     1      25.487   2.788  24.487  0.00  0.00    +0.020 C 
ATOM      9  C   UNL     1      26.759   3.385  25.050  0.00  0.00    +0.070 C 
ATOM     10  S   UNL     1      26.719   2.943  26.793  0.00  0.00    -0.160 S 
ATOM     11  C   UNL     1      24.911   2.836  26.911  0.00  0.00    +0.077 C 
ATOM     12  C   UNL     1      23.640   4.364  25.335  0.00  0.00    +0.115 C 
ENDROOT
BRANCH   1  16
ATOM     13  C   UNL     1      18.995   5.263  29.790  0.00  0.00    +0.037 A 
ATOM     14  C   UNL     1      18.759   5.477  28.429  0.00  0.00    +0.014 A 
ATOM     15  C   UNL     1      19.835   5.672  27.561  0.00  0.00    +0.014 A 
ATOM     16  C   UNL     1      21.145   5.541  28.026  0.00  0.00    +0.037 A 
ATOM     17  C   UNL     1      21.378   5.424  29.403  0.00  0.00    +0.014 A 
ATOM     18  C   UNL     1      20.301   5.297  30.286  0.00  0.00    +0.014 A 
BRANCH  13  20
ATOM     19  N   UNL     1      18.212   4.548  31.978  0.00  0.00    -0.325 N 
ATOM     20  C   UNL     1      17.873   4.996  30.731  0.00  0.00    +0.242 C 
ATOM     21  O   UNL     1      16.714   5.217  30.426  0.00  0.00    -0.270 OA
ATOM     22  H   UNL     1      17.454   4.487  32.647  0.00  0.00    +0.145 HD
ATOM     23  H   UNL     1      19.149   4.629  32.346  0.00  0.00    +0.145 HD
ENDBRANCH  13  20
ENDBRANCH   1  16
TORSDOF 2
ENDMDL
MODEL 2
REMARK VINA RESULT:      -6.8      2.969      7.299
REMARK  Name = ZINC000583127796
REMARK  2 active torsions:
REMARK  status: ('A' for Active; 'I' for Inactive)
REMARK    1  A    between atoms: C_2  and  C_4
REMARK    2  A    between atoms: C_7  and  C_8
REMARK                            x       y       z     vdW  Elec       q    Type
REMARK                         _______ _______ _______ _____ _____    ______ ____
ROOT
ATOM      1  C   UNL     1      21.511   4.207  25.950  0.00  0.00    +0.247 C 
ATOM      2  O   UNL     1      20.511   3.643  25.503  0.00  0.00    -0.270 OA
ATOM      3  N   UNL     1      21.472   5.056  27.068  0.00  0.00    -0.297 N 
ATOM      4  C   UNL     1      22.602   5.768  27.665  0.00  0.00    +0.108 C 
ATOM      5  C   UNL     1      22.753   5.485  29.148  0.00  0.00    +0.020 C 
ATOM      6  C   UNL     1      21.443   5.672  29.892  0.00  0.00    +0.011 C 
ATOM      7  C   UNL     1      20.266   4.897  29.252  0.00  0.00    -0.004 C 
ATOM      8  C   UNL     1      18.993   5.298  30.029  0.00  0.00    +0.020 C 
ATOM      9  C   UNL     1      17.950   4.209  29.907  0.00  0.00    +0.070 C 
ATOM     10  S   UNL     1      18.890   2.681  30.041  0.00  0.00    -0.160 S 
ATOM     11  C   UNL     1      20.444   3.370  29.407  0.00  0.00    +0.077 C 
ATOM     12  C   UNL     1      20.180   5.271  27.748  0.00  0.00    +0.115 C 
ENDROOT
BRANCH   1  16
ATOM     13  C   UNL     1      25.429   3.371  24.440  0.00  0.00    +0.037 A 
ATOM     14  C   UNL     1      24.784   4.548  24.050  0.00  0.00    +0.014 A 
ATOM     15  C   UNL     1      23.462   4.776  24.438  0.00  0.00    +0.014 A 
ATOM     16  C   UNL     1      22.823   3.890  25.306  0.00  0.00    +0.037 A 
ATOM     17  C   UNL     1      23.434   2.667  25.616  0.00  0.00    +0.014 A 
ATOM     18  C   UNL     1      24.734   2.403  25.171  0.00  0.00    +0.014 A 
BRANCH  13  20
ATOM     19  N   UNL     1      27.295   1.832  24.187  0.00  0.00    -0.325 N 
ATOM     20  C   UNL     1      26.854   3.123  24.091  0.00  0.00    +0.242 C 
ATOM     21  O   UNL     1      27.580   4.017  23.688  0.00  0.00    -0.270 OA
ATOM     22  H   UNL     1      28.226   1.655  23.831  0.00  0.00    +0.145 HD
ATOM     23  H   UNL     1      26.661   1.046  24.238  0.00  0.00    +0.145 HD
ENDBRANCH  13  20
ENDBRANCH   1  16
TORSDOF 2
ENDMDL
MODEL 3
REMARK VINA RESULT:      -6.4     22.352     23.195
REMARK  Name = ZINC000583127796
REMARK  2 active torsions:
REMARK  status: ('A' for Active; 'I' for Inactive)
REMARK    1  A    between atoms: C_2  and  C_4
REMARK    2  A    between atoms: C_7  and  C_8
REMARK                            x       y       z     vdW  Elec       q    Type
REMARK                         _______ _______ _______ _____ _____    ______ ____
ROOT
ATOM      1  C   UNL     1      34.213  18.670  14.363  0.00  0.00    +0.247 C 
ATOM      2  O   UNL     1      34.618  17.927  15.259  0.00  0.00    -0.270 OA
ATOM      3  N   UNL     1      34.671  18.587  13.039  0.00  0.00    -0.297 N 
ATOM      4  C   UNL     1      34.252  19.424  11.914  0.00  0.00    +0.108 C 
ATOM      5  C   UNL     1      33.763  18.610  10.730  0.00  0.00    +0.020 C 
ATOM      6  C   UNL     1      34.748  17.519  10.353  0.00  0.00    +0.011 C 
ATOM      7  C   UNL     1      35.165  16.636  11.555  0.00  0.00    -0.004 C 
ATOM      8  C   UNL     1      36.263  15.678  11.045  0.00  0.00    +0.020 C 
ATOM      9  C   UNL     1      36.305  14.435  11.907  0.00  0.00    +0.070 C 
ATOM     10  S   UNL     1      34.574  14.062  12.226  0.00  0.00    -0.160 S 
ATOM     11  C   UNL     1      33.987  15.770  12.054  0.00  0.00    +0.077 C 
ATOM     12  C   UNL     1      35.670  17.555  12.699  0.00  0.00    +0.115 C 
ENDROOT
BRANCH   1  16
ATOM     13  C   UNL     1      31.006  21.200  15.644  0.00  0.00    +0.037 A 
ATOM     14  C   UNL     1      30.869  20.473  14.458  0.00  0.00    +0.014 A 
ATOM     15  C   UNL     1      31.950  19.739  13.966  0.00  0.00    +0.014 A 
ATOM     16  C   UNL     1      33.126  19.636  14.712  0.00  0.00    +0.037 A 
ATOM     17  C   UNL     1      33.294  20.440  15.847  0.00  0.00    +0.014 A 
ATOM     18  C   UNL     1      32.237  21.232  16.306  0.00  0.00    +0.014 A 
BRANCH  13  20
ATOM     19  N   UNL     1      29.819  23.294  15.990  0.00  0.00    -0.325 N 
ATOM     20  C   UNL     1      29.857  21.947  16.224  0.00  0.00    +0.242 C 
ATOM     21  O   UNL     1      28.965  21.380  16.833  0.00  0.00    -0.270 OA
ATOM     22  H   UNL     1      28.974  23.770  16.282  0.00  0.00    +0.145 HD
ATOM     23  H   UNL     1      30.371  23.733  15.267  0.00  0.00    +0.145 HD
ENDBRANCH  13  20
ENDBRANCH   1  16
TORSDOF 2
ENDMDL
MODEL 4
REMARK VINA RESULT:      -6.3     22.767     24.093
REMARK  Name = ZINC000583127796
REMARK  2 active torsions:
REMARK  status: ('A' for Active; 'I' for Inactive)
REMARK    1  A    between atoms: C_2  and  C_4
REMARK    2  A    between atoms: C_7  and  C_8
REMARK                            x       y       z     vdW  Elec       q    Type
REMARK                         _______ _______ _______ _____ _____    ______ ____
ROOT
ATOM      1  C   UNL     1      34.241  19.048  13.961  0.00  0.00    +0.247 C 
ATOM      2  O   UNL     1      34.683  18.008  14.452  0.00  0.00    -0.270 OA
ATOM      3  N   UNL     1      34.725  19.591  12.761  0.00  0.00    -0.297 N 
ATOM      4  C   UNL     1      34.265  20.817  12.106  0.00  0.00    +0.108 C 
ATOM      5  C   UNL     1      33.855  20.590  10.663  0.00  0.00    +0.020 C 
ATOM      6  C   UNL     1      34.922  19.840   9.887  0.00  0.00    +0.011 C 
ATOM      7  C   UNL     1      35.381  18.539  10.589  0.00  0.00    -0.004 C 
ATOM      8  C   UNL     1      36.553  17.973   9.758  0.00  0.00    +0.020 C 
ATOM      9  C   UNL     1      36.670  16.481   9.980  0.00  0.00    +0.070 C 
ATOM     10  S   UNL     1      34.966  15.906  10.019  0.00  0.00    -0.160 S 
ATOM     11  C   UNL     1      34.260  17.475  10.597  0.00  0.00    +0.077 C 
ATOM     12  C   UNL     1      35.800  18.878  12.045  0.00  0.00    +0.115 C 
ENDROOT
BRANCH   1  16
ATOM     13  C   UNL     1      30.955  21.179  15.691  0.00  0.00    +0.037 A 
ATOM     14  C   UNL     1      32.167  21.114  16.384  0.00  0.00    +0.014 A 
ATOM     15  C   UNL     1      33.207  20.325  15.890  0.00  0.00    +0.014 A 
ATOM     16  C   UNL     1      33.082  19.693  14.652  0.00  0.00    +0.037 A 
ATOM     17  C   UNL     1      31.836  19.680  14.009  0.00  0.00    +0.014 A 
ATOM     18  C   UNL     1      30.769  20.414  14.537  0.00  0.00    +0.014 A 
BRANCH  13  20
ATOM     19  N   UNL     1      29.921  23.376  15.817  0.00  0.00    -0.325 N 
ATOM     20  C   UNL     1      29.848  22.055  16.161  0.00  0.00    +0.242 C 
ATOM     21  O   UNL     1      28.894  21.608  16.777  0.00  0.00    -0.270 OA
ATOM     22  H   UNL     1      29.105  23.936  16.034  0.00  0.00    +0.145 HD
ATOM     23  H   UNL     1      30.530  23.711  15.083  0.00  0.00    +0.145 HD
ENDBRANCH  13  20
ENDBRANCH   1  16
TORSDOF 2
ENDMDL
MODEL 5
REMARK VINA RESULT:      -6.3     25.242     27.473
REMARK  Name = ZINC000583127796
REMARK  2 active torsions:
REMARK  status: ('A' for Active; 'I' for Inactive)
REMARK    1  A    between atoms: C_2  and  C_4
REMARK    2  A    between atoms: C_7  and  C_8
REMARK                            x       y       z     vdW  Elec       q    Type
REMARK                         _______ _______ _______ _____ _____    ______ ____
ROOT
ATOM      1  C   UNL     1      34.973  23.072  10.557  0.00  0.00    +0.247 C 
ATOM      2  O   UNL     1      36.079  23.499  10.894  0.00  0.00    -0.270 OA
ATOM      3  N   UNL     1      34.744  22.434   9.328  0.00  0.00    -0.297 N 
ATOM      4  C   UNL     1      33.470  21.900   8.843  0.00  0.00    +0.108 C 
ATOM      5  C   UNL     1      33.567  20.442   8.434  0.00  0.00    +0.020 C 
ATOM      6  C   UNL     1      34.735  20.197   7.497  0.00  0.00    +0.011 C 
ATOM      7  C   UNL     1      36.074  20.756   8.036  0.00  0.00    -0.004 C 
ATOM      8  C   UNL     1      37.123  20.557   6.921  0.00  0.00    +0.020 C 
ATOM      9  C   UNL     1      38.510  20.501   7.521  0.00  0.00    +0.070 C 
ATOM     10  S   UNL     1      38.302  19.536   9.024  0.00  0.00    -0.160 S 
ATOM     11  C   UNL     1      36.557  19.968   9.274  0.00  0.00    +0.077 C 
ATOM     12  C   UNL     1      35.880  22.251   8.403  0.00  0.00    +0.115 C 
ENDROOT
BRANCH   1  16
ATOM     13  C   UNL     1      31.598  23.145  13.190  0.00  0.00    +0.037 A 
ATOM     14  C   UNL     1      31.901  24.283  12.438  0.00  0.00    +0.014 A 
ATOM     15  C   UNL     1      33.065  24.315  11.667  0.00  0.00    +0.014 A 
ATOM     16  C   UNL     1      33.865  23.177  11.555  0.00  0.00    +0.037 A 
ATOM     17  C   UNL     1      33.613  22.074  12.384  0.00  0.00    +0.014 A 
ATOM     18  C   UNL     1      32.485  22.065  13.211  0.00  0.00    +0.014 A 
BRANCH  13  20
ATOM     19  N   UNL     1      29.773  24.239  14.366  0.00  0.00    -0.325 N 
ATOM     20  C   UNL     1      30.339  23.057  13.978  0.00  0.00    +0.242 C 
ATOM     21  O   UNL     1      29.808  21.986  14.219  0.00  0.00    -0.270 OA
ATOM     22  H   UNL     1      28.857  24.173  14.792  0.00  0.00    +0.145 HD
ATOM     23  H   UNL     1      30.025  25.124  13.946  0.00  0.00    +0.145 HD
ENDBRANCH  13  20
ENDBRANCH   1  16
TORSDOF 2
ENDMDL
MODEL 6
REMARK VINA RESULT:      -6.2      3.086      7.319
REMARK  Name = ZINC000583127796
REMARK  2 active torsions:
REMARK  status: ('A' for Active; 'I' for Inactive)
REMARK    1  A    between atoms: C_2  and  C_4
REMARK    2  A    between atoms: C_7  and  C_8
REMARK                            x       y       z     vdW  Elec       q    Type
REMARK                         _______ _______ _______ _____ _____    ______ ____
ROOT
ATOM      1  C   UNL     1      21.065   3.516  26.616  0.00  0.00    +0.247 C 
ATOM      2  O   UNL     1      20.404   2.588  26.145  0.00  0.00    -0.270 OA
ATOM      3  N   UNL     1      20.586   4.351  27.637  0.00  0.00    -0.297 N 
ATOM      4  C   UNL     1      21.295   5.474  28.253  0.00  0.00    +0.108 C 
ATOM      5  C   UNL     1      21.370   5.359  29.765  0.00  0.00    +0.020 C 
ATOM      6  C   UNL     1      20.010   5.078  30.375  0.00  0.00    +0.011 C 
ATOM      7  C   UNL     1      19.286   3.877  29.720  0.00  0.00    -0.004 C 
ATOM      8  C   UNL     1      17.876   3.810  30.346  0.00  0.00    +0.020 C 
ATOM      9  C   UNL     1      17.333   2.401  30.246  0.00  0.00    +0.070 C 
ATOM     10  S   UNL     1      18.752   1.355  30.606  0.00  0.00    -0.160 S 
ATOM     11  C   UNL     1      20.000   2.545  30.038  0.00  0.00    +0.077 C 
ATOM     12  C   UNL     1      19.239   4.099  28.185  0.00  0.00    +0.115 C 
ENDROOT
BRANCH   1  16
ATOM     13  C   UNL     1      24.967   3.802  24.877  0.00  0.00    +0.037 A 
ATOM     14  C   UNL     1      24.765   2.947  25.964  0.00  0.00    +0.014 A 
ATOM     15  C   UNL     1      23.531   2.933  26.616  0.00  0.00    +0.014 A 
ATOM     16  C   UNL     1      22.465   3.683  26.117  0.00  0.00    +0.037 A 
ATOM     17  C   UNL     1      22.696   4.610  25.091  0.00  0.00    +0.014 A 
ATOM     18  C   UNL     1      23.952   4.677  24.479  0.00  0.00    +0.014 A 
BRANCH  13  20
ATOM     19  N   UNL     1      27.370   3.434  24.823  0.00  0.00    -0.325 N 
ATOM     20  C   UNL     1      26.252   3.800  24.126  0.00  0.00    +0.242 C 
ATOM     21  O   UNL     1      26.298   4.061  22.936  0.00  0.00    -0.270 OA
ATOM     22  H   UNL     1      28.214   3.318  24.275  0.00  0.00    +0.145 HD
ATOM     23  H   UNL     1      27.321   2.948  25.708  0.00  0.00    +0.145 HD
ENDBRANCH  13  20
ENDBRANCH   1  16
TORSDOF 2
ENDMDL
MODEL 7
REMARK VINA RESULT:      -6.2     24.999     26.315
REMARK  Name = ZINC000583127796
REMARK  2 active torsions:
REMARK  status: ('A' for Active; 'I' for Inactive)
REMARK    1  A    between atoms: C_2  and  C_4
REMARK    2  A    between atoms: C_7  and  C_8
REMARK                            x       y       z     vdW  Elec       q    Type
REMARK                         _______ _______ _______ _____ _____    ______ ____
ROOT
ATOM      1  C   UNL     1      22.517   6.052   1.491  0.00  0.00    +0.247 C 
ATOM      2  O   UNL     1      23.576   5.721   2.027  0.00  0.00    -0.270 OA
ATOM      3  N   UNL     1      21.880   5.270   0.515  0.00  0.00    -0.297 N 
ATOM      4  C   UNL     1      20.628   5.582  -0.176  0.00  0.00    +0.108 C 
ATOM      5  C   UNL     1      19.604   4.467  -0.062  0.00  0.00    +0.020 C 
ATOM      6  C   UNL     1      20.196   3.121  -0.435  0.00  0.00    +0.011 C 
ATOM      7  C   UNL     1      21.511   2.805   0.319  0.00  0.00    -0.004 C 
ATOM      8  C   UNL     1      22.055   1.484  -0.267  0.00  0.00    +0.020 C 
ATOM      9  C   UNL     1      22.946   0.798   0.745  0.00  0.00    +0.070 C 
ATOM     10  S   UNL     1      22.099   1.043   2.314  0.00  0.00    -0.160 S 
ATOM     11  C   UNL     1      21.256   2.575   1.825  0.00  0.00    +0.077 C 
ATOM     12  C   UNL     1      22.496   3.987   0.122  0.00  0.00    +0.115 C 
ENDROOT
BRANCH   1  16
ATOM     13  C   UNL     1      20.340   9.538   2.689  0.00  0.00    +0.037 A 
ATOM     14  C   UNL     1      21.409   9.674   1.800  0.00  0.00    +0.014 A 
ATOM     15  C   UNL     1      22.202   8.566   1.494  0.00  0.00    +0.014 A 
ATOM     16  C   UNL     1      21.862   7.303   1.982  0.00  0.00    +0.037 A 
ATOM     17  C   UNL     1      20.851   7.187   2.947  0.00  0.00    +0.014 A 
ATOM     18  C   UNL     1      20.099   8.309   3.309  0.00  0.00    +0.014 A 
BRANCH  13  20
ATOM     19  N   UNL     1      18.619  10.552   4.075  0.00  0.00    -0.325 N 
ATOM     20  C   UNL     1      19.442  10.686   2.992  0.00  0.00    +0.242 C 
ATOM     21  O   UNL     1      19.476  11.716   2.339  0.00  0.00    -0.270 OA
ATOM     22  H   UNL     1      18.104  11.381   4.345  0.00  0.00    +0.145 HD
ATOM     23  H   UNL     1      18.769   9.849   4.786  0.00  0.00    +0.145 HD
ENDBRANCH  13  20
ENDBRANCH   1  16
TORSDOF 2
ENDMDL
MODEL 8
REMARK VINA RESULT:      -6.1     22.893     25.569
REMARK  Name = ZINC000583127796
REMARK  2 active torsions:
REMARK  status: ('A' for Active; 'I' for Inactive)
REMARK    1  A    between atoms: C_2  and  C_4
REMARK    2  A    between atoms: C_7  and  C_8
REMARK                            x       y       z     vdW  Elec       q    Type
REMARK                         _______ _______ _______ _____ _____    ______ ____
ROOT
ATOM      1  C   UNL     1      32.617  20.834  14.154  0.00  0.00    +0.247 C 
ATOM      2  O   UNL     1      32.035  19.753  14.039  0.00  0.00    -0.270 OA
ATOM      3  N   UNL     1      33.349  21.187  15.299  0.00  0.00    -0.297 N 
ATOM      4  C   UNL     1      34.066  22.443  15.525  0.00  0.00    +0.108 C 
ATOM      5  C   UNL     1      35.522  22.226  15.895  0.00  0.00    +0.020 C 
ATOM      6  C   UNL     1      35.671  21.218  17.019  0.00  0.00    +0.011 C 
ATOM      7  C   UNL     1      34.919  19.892  16.751  0.00  0.00    -0.004 C 
ATOM      8  C   UNL     1      35.049  19.038  18.031  0.00  0.00    +0.020 C 
ATOM      9  C   UNL     1      34.896  17.572  17.691  0.00  0.00    +0.070 C 
ATOM     10  S   UNL     1      35.791  17.383  16.142  0.00  0.00    -0.160 S 
ATOM     11  C   UNL     1      35.567  19.099  15.595  0.00  0.00    +0.077 C 
ATOM     12  C   UNL     1      33.441  20.218  16.407  0.00  0.00    +0.115 C 
ENDROOT
BRANCH   1  16
ATOM     13  C   UNL     1      32.882  23.607  10.903  0.00  0.00    +0.037 A 
ATOM     14  C   UNL     1      31.948  23.833  11.918  0.00  0.00    +0.014 A 
ATOM     15  C   UNL     1      31.767  22.877  12.920  0.00  0.00    +0.014 A 
ATOM     16  C   UNL     1      32.594  21.754  12.975  0.00  0.00    +0.037 A 
ATOM     17  C   UNL     1      33.460  21.482  11.906  0.00  0.00    +0.014 A 
ATOM     18  C   UNL     1      33.593  22.405  10.864  0.00  0.00    +0.014 A 
BRANCH  13  20
ATOM     19  N   UNL     1      32.221  24.714   8.842  0.00  0.00    -0.325 N 
ATOM     20  C   UNL     1      33.138  24.630   9.853  0.00  0.00    +0.242 C 
ATOM     21  O   UNL     1      34.088  25.391   9.918  0.00  0.00    -0.270 OA
ATOM     22  H   UNL     1      32.338  25.491   8.202  0.00  0.00    +0.145 HD
ATOM     23  H   UNL     1      31.299  24.307   8.912  0.00  0.00    +0.145 HD
ENDBRANCH  13  20
ENDBRANCH   1  16
TORSDOF 2
ENDMDL
MODEL 9
REMARK VINA RESULT:      -6.0     22.108     23.229
REMARK  Name = ZINC000583127796
REMARK  2 active torsions:
REMARK  status: ('A' for Active; 'I' for Inactive)
REMARK    1  A    between atoms: C_2  and  C_4
REMARK    2  A    between atoms: C_7  and  C_8
REMARK                            x       y       z     vdW  Elec       q    Type
REMARK                         _______ _______ _______ _____ _____    ______ ____
ROOT
ATOM      1  C   UNL     1      34.750  19.326  14.826  0.00  0.00    +0.247 C 
ATOM      2  O   UNL     1      35.257  19.810  13.812  0.00  0.00    -0.270 OA
ATOM      3  N   UNL     1      35.377  18.330  15.591  0.00  0.00    -0.297 N 
ATOM      4  C   UNL     1      34.852  17.696  16.802  0.00  0.00    +0.108 C 
ATOM      5  C   UNL     1      35.815  17.783  17.971  0.00  0.00    +0.020 C 
ATOM      6  C   UNL     1      37.209  17.320  17.586  0.00  0.00    +0.011 C 
ATOM      7  C   UNL     1      37.750  18.015  16.313  0.00  0.00    -0.004 C 
ATOM      8  C   UNL     1      39.098  17.343  15.977  0.00  0.00    +0.020 C 
ATOM      9  C   UNL     1      39.960  18.289  15.170  0.00  0.00    +0.070 C 
ATOM     10  S   UNL     1      39.688  19.894  15.936  0.00  0.00    -0.160 S 
ATOM     11  C   UNL     1      38.027  19.514  16.562  0.00  0.00    +0.077 C 
ATOM     12  C   UNL     1      36.709  17.851  15.174  0.00  0.00    +0.115 C 
ENDROOT
BRANCH   1  16
ATOM     13  C   UNL     1      31.073  21.250  15.877  0.00  0.00    +0.037 A 
ATOM     14  C   UNL     1      32.161  21.336  16.749  0.00  0.00    +0.014 A 
ATOM     15  C   UNL     1      33.326  20.616  16.478  0.00  0.00    +0.014 A 
ATOM     16  C   UNL     1      33.449  19.903  15.284  0.00  0.00    +0.037 A 
ATOM     17  C   UNL     1      32.325  19.739  14.461  0.00  0.00    +0.014 A 
ATOM     18  C   UNL     1      31.133  20.404  14.766  0.00  0.00    +0.014 A 
BRANCH  13  20
ATOM     19  N   UNL     1      29.796  23.292  15.541  0.00  0.00    -0.325 N 
ATOM     20  C   UNL     1      29.838  22.048  16.108  0.00  0.00    +0.242 C 
ATOM     21  O   UNL     1      28.889  21.597  16.726  0.00  0.00    -0.270 OA
ATOM     22  H   UNL     1      28.908  23.775  15.599  0.00  0.00    +0.145 HD
ATOM     23  H   UNL     1      30.427  23.572  14.803  0.00  0.00    +0.145 HD
ENDBRANCH  13  20
ENDBRANCH   1  16
TORSDOF 2
ENDMDL
