MODEL 1
REMARK VINA RESULT:      -6.4      0.000      0.000
REMARK  Name = ZINC000826139982
REMARK  4 active torsions:
REMARK  status: ('A' for Active; 'I' for Inactive)
REMARK    1  A    between atoms: C_2  and  C_4
REMARK    2  A    between atoms: C_8  and  C_10
REMARK    3  A    between atoms: C_14  and  S_15
REMARK    4  A    between atoms: S_15  and  C_16
REMARK                            x       y       z     vdW  Elec       q    Type
REMARK                         _______ _______ _______ _____ _____    ______ ____
ROOT
ATOM      1  C   UNL     1      36.517  26.138  10.456  0.00  0.00    +0.093 C 
ATOM      2  C   UNL     1      36.897  25.414   9.160  0.00  0.00    +0.033 C 
ATOM      3  C   UNL     1      35.603  24.795   8.649  0.00  0.00    +0.109 C 
ATOM      4  N   UNL     1      34.812  24.588   9.844  0.00  0.00    -0.297 N 
ATOM      5  C   UNL     1      33.831  23.605   9.905  0.00  0.00    +0.247 C 
ATOM      6  O   UNL     1      33.652  22.817   8.976  0.00  0.00    -0.270 OA
ATOM      7  C   UNL     1      35.128  25.624  10.814  0.00  0.00    +0.120 C 
ENDROOT
BRANCH   5   8
ATOM      8  C   UNL     1      33.001  23.422  11.141  0.00  0.00    +0.038 A 
ATOM      9  C   UNL     1      31.752  24.022  11.328  0.00  0.00    +0.013 A 
ATOM     10  C   UNL     1      31.080  23.919  12.545  0.00  0.00    +0.002 A 
ATOM     11  C   UNL     1      31.600  23.122  13.558  0.00  0.00    +0.015 A 
ATOM     12  C   UNL     1      32.778  22.399  13.347  0.00  0.00    +0.017 A 
ATOM     13  C   UNL     1      33.492  22.580  12.154  0.00  0.00    +0.028 A 
BRANCH  12  14
ATOM     14  S   UNL     1      33.398  21.285  14.591  0.00  0.00    -0.016 S 
BRANCH  14  15
ATOM     15  C   UNL     1      32.141  19.990  14.559  0.00  0.00    +0.448 C 
ATOM     16  F   UNL     1      32.601  18.766  14.911  0.00  0.00    -0.160 F 
ATOM     17  F   UNL     1      31.121  20.287  15.399  0.00  0.00    -0.160 F 
ATOM     18  F   UNL     1      31.612  19.869  13.316  0.00  0.00    -0.160 F 
ENDBRANCH  14  15
ENDBRANCH  12  14
ENDBRANCH   5   8
BRANCH   1  20
ATOM     19  N   UNL     1      36.127  28.306  11.480  0.00  0.00    -0.329 N 
ATOM     20  C   UNL     1      36.559  27.652  10.364  0.00  0.00    +0.215 C 
ATOM     21  O   UNL     1      36.885  28.282   9.370  0.00  0.00    -0.276 OA
ATOM     22  H   UNL     1      36.073  29.316  11.437  0.00  0.00    +0.145 HD
ATOM     23  H   UNL     1      35.779  27.836  12.303  0.00  0.00    +0.145 HD
ENDBRANCH   1  20
TORSDOF 4
ENDMDL
MODEL 2
REMARK VINA RESULT:      -6.4      4.666      6.931
REMARK  Name = ZINC000826139982
REMARK  4 active torsions:
REMARK  status: ('A' for Active; 'I' for Inactive)
REMARK    1  A    between atoms: C_2  and  C_4
REMARK    2  A    between atoms: C_8  and  C_10
REMARK    3  A    between atoms: C_14  and  S_15
REMARK    4  A    between atoms: S_15  and  C_16
REMARK                            x       y       z     vdW  Elec       q    Type
REMARK                         _______ _______ _______ _____ _____    ______ ____
ROOT
ATOM      1  C   UNL     1      31.569  20.728  14.962  0.00  0.00    +0.093 C 
ATOM      2  C   UNL     1      32.833  20.075  15.533  0.00  0.00    +0.033 C 
ATOM      3  C   UNL     1      33.985  20.964  15.084  0.00  0.00    +0.109 C 
ATOM      4  N   UNL     1      33.508  21.574  13.860  0.00  0.00    -0.297 N 
ATOM      5  C   UNL     1      34.385  22.017  12.878  0.00  0.00    +0.247 C 
ATOM      6  O   UNL     1      35.599  21.835  12.972  0.00  0.00    -0.270 OA
ATOM      7  C   UNL     1      32.066  21.743  13.940  0.00  0.00    +0.120 C 
ENDROOT
BRANCH   5   8
ATOM      8  C   UNL     1      33.875  22.672  11.629  0.00  0.00    +0.038 A 
ATOM      9  C   UNL     1      32.823  23.592  11.614  0.00  0.00    +0.013 A 
ATOM     10  C   UNL     1      32.308  24.075  10.412  0.00  0.00    +0.002 A 
ATOM     11  C   UNL     1      32.911  23.726   9.209  0.00  0.00    +0.015 A 
ATOM     12  C   UNL     1      34.052  22.918   9.206  0.00  0.00    +0.017 A 
ATOM     13  C   UNL     1      34.507  22.365  10.412  0.00  0.00    +0.028 A 
BRANCH  12  14
ATOM     14  S   UNL     1      34.904  22.553   7.685  0.00  0.00    -0.016 S 
BRANCH  14  15
ATOM     15  C   UNL     1      34.305  20.886   7.339  0.00  0.00    +0.448 C 
ATOM     16  F   UNL     1      34.544  20.465   6.075  0.00  0.00    -0.160 F 
ATOM     17  F   UNL     1      34.878  19.984   8.172  0.00  0.00    -0.160 F 
ATOM     18  F   UNL     1      32.965  20.811   7.532  0.00  0.00    -0.160 F 
ENDBRANCH  14  15
ENDBRANCH  12  14
ENDBRANCH   5   8
BRANCH   1  20
ATOM     19  N   UNL     1      30.886  22.690  16.221  0.00  0.00    -0.329 N 
ATOM     20  C   UNL     1      30.666  21.362  16.003  0.00  0.00    +0.215 C 
ATOM     21  O   UNL     1      29.835  20.759  16.666  0.00  0.00    -0.276 OA
ATOM     22  H   UNL     1      30.352  23.136  16.957  0.00  0.00    +0.145 HD
ATOM     23  H   UNL     1      31.607  23.220  15.753  0.00  0.00    +0.145 HD
ENDBRANCH   1  20
TORSDOF 4
ENDMDL
MODEL 3
REMARK VINA RESULT:      -6.0      1.541      1.718
REMARK  Name = ZINC000826139982
REMARK  4 active torsions:
REMARK  status: ('A' for Active; 'I' for Inactive)
REMARK    1  A    between atoms: C_2  and  C_4
REMARK    2  A    between atoms: C_8  and  C_10
REMARK    3  A    between atoms: C_14  and  S_15
REMARK    4  A    between atoms: S_15  and  C_16
REMARK                            x       y       z     vdW  Elec       q    Type
REMARK                         _______ _______ _______ _____ _____    ______ ____
ROOT
ATOM      1  C   UNL     1      36.506  26.146  10.520  0.00  0.00    +0.093 C 
ATOM      2  C   UNL     1      36.950  25.417   9.247  0.00  0.00    +0.033 C 
ATOM      3  C   UNL     1      35.687  24.775   8.688  0.00  0.00    +0.109 C 
ATOM      4  N   UNL     1      34.849  24.568   9.851  0.00  0.00    -0.297 N 
ATOM      5  C   UNL     1      33.880  23.572   9.880  0.00  0.00    +0.247 C 
ATOM      6  O   UNL     1      33.751  22.774   8.953  0.00  0.00    -0.270 OA
ATOM      7  C   UNL     1      35.110  25.617  10.824  0.00  0.00    +0.120 C 
ENDROOT
BRANCH   5   8
ATOM      8  C   UNL     1      33.001  23.389  11.082  0.00  0.00    +0.038 A 
ATOM      9  C   UNL     1      31.757  24.010  11.231  0.00  0.00    +0.013 A 
ATOM     10  C   UNL     1      31.038  23.904  12.420  0.00  0.00    +0.002 A 
ATOM     11  C   UNL     1      31.506  23.084  13.442  0.00  0.00    +0.015 A 
ATOM     12  C   UNL     1      32.678  22.342  13.264  0.00  0.00    +0.017 A 
ATOM     13  C   UNL     1      33.439  22.525  12.101  0.00  0.00    +0.028 A 
BRANCH  12  14
ATOM     14  S   UNL     1      33.230  21.202  14.516  0.00  0.00    -0.016 S 
BRANCH  14  15
ATOM     15  C   UNL     1      33.478  22.312  15.917  0.00  0.00    +0.448 C 
ATOM     16  F   UNL     1      34.327  21.834  16.857  0.00  0.00    -0.160 F 
ATOM     17  F   UNL     1      33.973  23.505  15.506  0.00  0.00    -0.160 F 
ATOM     18  F   UNL     1      32.301  22.564  16.540  0.00  0.00    -0.160 F 
ENDBRANCH  14  15
ENDBRANCH  12  14
ENDBRANCH   5   8
BRANCH   1  20
ATOM     19  N   UNL     1      36.103  28.319  11.530  0.00  0.00    -0.329 N 
ATOM     20  C   UNL     1      36.532  27.660  10.415  0.00  0.00    +0.215 C 
ATOM     21  O   UNL     1      36.843  28.285   9.413  0.00  0.00    -0.276 OA
ATOM     22  H   UNL     1      36.039  29.328  11.479  0.00  0.00    +0.145 HD
ATOM     23  H   UNL     1      35.767  27.852  12.359  0.00  0.00    +0.145 HD
ENDBRANCH   1  20
TORSDOF 4
ENDMDL
MODEL 4
REMARK VINA RESULT:      -5.9     22.345     24.595
REMARK  Name = ZINC000826139982
REMARK  4 active torsions:
REMARK  status: ('A' for Active; 'I' for Inactive)
REMARK    1  A    between atoms: C_2  and  C_4
REMARK    2  A    between atoms: C_8  and  C_10
REMARK    3  A    between atoms: C_14  and  S_15
REMARK    4  A    between atoms: S_15  and  C_16
REMARK                            x       y       z     vdW  Elec       q    Type
REMARK                         _______ _______ _______ _____ _____    ______ ____
ROOT
ATOM      1  C   UNL     1      19.024   3.928   0.211  0.00  0.00    +0.093 C 
ATOM      2  C   UNL     1      19.246   3.071   1.462  0.00  0.00    +0.033 C 
ATOM      3  C   UNL     1      19.628   4.052   2.562  0.00  0.00    +0.109 C 
ATOM      4  N   UNL     1      20.235   5.160   1.855  0.00  0.00    -0.297 N 
ATOM      5  C   UNL     1      21.163   5.993   2.468  0.00  0.00    +0.247 C 
ATOM      6  O   UNL     1      21.568   5.773   3.609  0.00  0.00    -0.270 OA
ATOM      7  C   UNL     1      19.614   5.292   0.546  0.00  0.00    +0.120 C 
ENDROOT
BRANCH   5   8
ATOM      8  C   UNL     1      21.763   7.153   1.730  0.00  0.00    +0.038 A 
ATOM      9  C   UNL     1      23.009   7.105   1.097  0.00  0.00    +0.013 A 
ATOM     10  C   UNL     1      23.573   8.248   0.533  0.00  0.00    +0.002 A 
ATOM     11  C   UNL     1      22.848   9.434   0.499  0.00  0.00    +0.015 A 
ATOM     12  C   UNL     1      21.544   9.473   1.000  0.00  0.00    +0.017 A 
ATOM     13  C   UNL     1      21.020   8.344   1.646  0.00  0.00    +0.028 A 
BRANCH  12  14
ATOM     14  S   UNL     1      20.560  10.952   0.863  0.00  0.00    -0.016 S 
BRANCH  14  15
ATOM     15  C   UNL     1      20.054  11.196   2.579  0.00  0.00    +0.448 C 
ATOM     16  F   UNL     1      19.081  10.350   2.993  0.00  0.00    -0.160 F 
ATOM     17  F   UNL     1      21.104  11.035   3.419  0.00  0.00    -0.160 F 
ATOM     18  F   UNL     1      19.586  12.455   2.763  0.00  0.00    -0.160 F 
ENDBRANCH  14  15
ENDBRANCH  12  14
ENDBRANCH   5   8
BRANCH   1  20
ATOM     19  N   UNL     1      17.180   5.271  -0.624  0.00  0.00    -0.329 N 
ATOM     20  C   UNL     1      17.577   4.026  -0.233  0.00  0.00    +0.215 C 
ATOM     21  O   UNL     1      16.773   3.106  -0.201  0.00  0.00    -0.276 OA
ATOM     22  H   UNL     1      16.204   5.396  -0.862  0.00  0.00    +0.145 HD
ATOM     23  H   UNL     1      17.782   6.081  -0.602  0.00  0.00    +0.145 HD
ENDBRANCH   1  20
TORSDOF 4
ENDMDL
MODEL 5
REMARK VINA RESULT:      -5.9      2.266      4.021
REMARK  Name = ZINC000826139982
REMARK  4 active torsions:
REMARK  status: ('A' for Active; 'I' for Inactive)
REMARK    1  A    between atoms: C_2  and  C_4
REMARK    2  A    between atoms: C_8  and  C_10
REMARK    3  A    between atoms: C_14  and  S_15
REMARK    4  A    between atoms: S_15  and  C_16
REMARK                            x       y       z     vdW  Elec       q    Type
REMARK                         _______ _______ _______ _____ _____    ______ ____
ROOT
ATOM      1  C   UNL     1      34.498  21.740   7.321  0.00  0.00    +0.093 C 
ATOM      2  C   UNL     1      35.288  22.973   6.869  0.00  0.00    +0.033 C 
ATOM      3  C   UNL     1      35.714  23.674   8.152  0.00  0.00    +0.109 C 
ATOM      4  N   UNL     1      34.700  23.297   9.115  0.00  0.00    -0.297 N 
ATOM      5  C   UNL     1      34.410  24.096  10.214  0.00  0.00    +0.247 C 
ATOM      6  O   UNL     1      34.942  25.195  10.368  0.00  0.00    -0.270 OA
ATOM      7  C   UNL     1      34.210  21.965   8.800  0.00  0.00    +0.120 C 
ENDROOT
BRANCH   5   8
ATOM      8  C   UNL     1      33.376  23.678  11.218  0.00  0.00    +0.038 A 
ATOM      9  C   UNL     1      32.026  24.031  11.129  0.00  0.00    +0.013 A 
ATOM     10  C   UNL     1      31.133  23.721  12.153  0.00  0.00    +0.002 A 
ATOM     11  C   UNL     1      31.558  22.958  13.236  0.00  0.00    +0.015 A 
ATOM     12  C   UNL     1      32.869  22.474  13.281  0.00  0.00    +0.017 A 
ATOM     13  C   UNL     1      33.782  22.867  12.292  0.00  0.00    +0.028 A 
BRANCH  12  14
ATOM     14  S   UNL     1      33.397  21.403  14.601  0.00  0.00    -0.016 S 
BRANCH  14  15
ATOM     15  C   UNL     1      32.113  20.134  14.559  0.00  0.00    +0.448 C 
ATOM     16  F   UNL     1      30.996  20.457  15.251  0.00  0.00    -0.160 F 
ATOM     17  F   UNL     1      31.731  19.878  13.285  0.00  0.00    -0.160 F 
ATOM     18  F   UNL     1      32.576  18.970  15.078  0.00  0.00    -0.160 F 
ENDBRANCH  14  15
ENDBRANCH  12  14
ENDBRANCH   5   8
BRANCH   1  20
ATOM     19  N   UNL     1      35.402  20.115   5.757  0.00  0.00    -0.329 N 
ATOM     20  C   UNL     1      35.202  20.419   7.071  0.00  0.00    +0.215 C 
ATOM     21  O   UNL     1      35.527  19.626   7.942  0.00  0.00    -0.276 OA
ATOM     22  H   UNL     1      35.806  19.211   5.544  0.00  0.00    +0.145 HD
ATOM     23  H   UNL     1      35.089  20.700   4.996  0.00  0.00    +0.145 HD
ENDBRANCH   1  20
TORSDOF 4
ENDMDL
MODEL 6
REMARK VINA RESULT:      -5.8      5.812      7.870
REMARK  Name = ZINC000826139982
REMARK  4 active torsions:
REMARK  status: ('A' for Active; 'I' for Inactive)
REMARK    1  A    between atoms: C_2  and  C_4
REMARK    2  A    between atoms: C_8  and  C_10
REMARK    3  A    between atoms: C_14  and  S_15
REMARK    4  A    between atoms: S_15  and  C_16
REMARK                            x       y       z     vdW  Elec       q    Type
REMARK                         _______ _______ _______ _____ _____    ______ ____
ROOT
ATOM      1  C   UNL     1      32.453  20.614  15.953  0.00  0.00    +0.093 C 
ATOM      2  C   UNL     1      33.384  21.798  15.665  0.00  0.00    +0.033 C 
ATOM      3  C   UNL     1      34.144  21.417  14.402  0.00  0.00    +0.109 C 
ATOM      4  N   UNL     1      34.165  19.969  14.423  0.00  0.00    -0.297 N 
ATOM      5  C   UNL     1      35.164  19.247  13.781  0.00  0.00    +0.247 C 
ATOM      6  O   UNL     1      36.115  19.810  13.239  0.00  0.00    -0.270 OA
ATOM      7  C   UNL     1      32.956  19.481  15.067  0.00  0.00    +0.120 C 
ENDROOT
BRANCH   5   8
ATOM      8  C   UNL     1      35.156  17.747  13.788  0.00  0.00    +0.038 A 
ATOM      9  C   UNL     1      35.669  16.978  14.837  0.00  0.00    +0.013 A 
ATOM     10  C   UNL     1      35.748  15.590  14.738  0.00  0.00    +0.002 A 
ATOM     11  C   UNL     1      35.217  14.943  13.628  0.00  0.00    +0.015 A 
ATOM     12  C   UNL     1      34.574  15.679  12.629  0.00  0.00    +0.017 A 
ATOM     13  C   UNL     1      34.578  17.080  12.695  0.00  0.00    +0.028 A 
BRANCH  12  14
ATOM     14  S   UNL     1      33.788  14.858  11.257  0.00  0.00    -0.016 S 
BRANCH  14  15
ATOM     15  C   UNL     1      32.264  14.272  12.027  0.00  0.00    +0.448 C 
ATOM     16  F   UNL     1      31.796  15.078  13.009  0.00  0.00    -0.160 F 
ATOM     17  F   UNL     1      31.275  14.151  11.108  0.00  0.00    -0.160 F 
ATOM     18  F   UNL     1      32.448  13.046  12.577  0.00  0.00    -0.160 F 
ENDBRANCH  14  15
ENDBRANCH  12  14
ENDBRANCH   5   8
BRANCH   1  20
ATOM     19  N   UNL     1      30.691  21.501  14.536  0.00  0.00    -0.329 N 
ATOM     20  C   UNL     1      30.981  20.905  15.727  0.00  0.00    +0.215 C 
ATOM     21  O   UNL     1      30.096  20.698  16.543  0.00  0.00    -0.276 OA
ATOM     22  H   UNL     1      29.730  21.776  14.374  0.00  0.00    +0.145 HD
ATOM     23  H   UNL     1      31.392  21.760  13.856  0.00  0.00    +0.145 HD
ENDBRANCH   1  20
TORSDOF 4
ENDMDL
MODEL 7
REMARK VINA RESULT:      -5.7      3.163      5.111
REMARK  Name = ZINC000826139982
REMARK  4 active torsions:
REMARK  status: ('A' for Active; 'I' for Inactive)
REMARK    1  A    between atoms: C_2  and  C_4
REMARK    2  A    between atoms: C_8  and  C_10
REMARK    3  A    between atoms: C_14  and  S_15
REMARK    4  A    between atoms: S_15  and  C_16
REMARK                            x       y       z     vdW  Elec       q    Type
REMARK                         _______ _______ _______ _____ _____    ______ ____
ROOT
ATOM      1  C   UNL     1      32.515  23.510  10.858  0.00  0.00    +0.093 C 
ATOM      2  C   UNL     1      31.391  24.392  11.412  0.00  0.00    +0.033 C 
ATOM      3  C   UNL     1      31.570  24.374  12.924  0.00  0.00    +0.109 C 
ATOM      4  N   UNL     1      32.219  23.108  13.190  0.00  0.00    -0.297 N 
ATOM      5  C   UNL     1      32.093  22.470  14.418  0.00  0.00    +0.247 C 
ATOM      6  O   UNL     1      31.358  22.914  15.300  0.00  0.00    -0.270 OA
ATOM      7  C   UNL     1      33.068  22.757  12.062  0.00  0.00    +0.120 C 
ENDROOT
BRANCH   5   8
ATOM      8  C   UNL     1      32.795  21.172  14.687  0.00  0.00    +0.038 A 
ATOM      9  C   UNL     1      32.480  19.975  14.036  0.00  0.00    +0.013 A 
ATOM     10  C   UNL     1      33.078  18.774  14.413  0.00  0.00    +0.002 A 
ATOM     11  C   UNL     1      34.080  18.770  15.377  0.00  0.00    +0.015 A 
ATOM     12  C   UNL     1      34.511  19.973  15.944  0.00  0.00    +0.017 A 
ATOM     13  C   UNL     1      33.842  21.164  15.624  0.00  0.00    +0.028 A 
BRANCH  12  14
ATOM     14  S   UNL     1      35.869  20.001  17.096  0.00  0.00    -0.016 S 
BRANCH  14  15
ATOM     15  C   UNL     1      35.253  18.904  18.391  0.00  0.00    +0.448 C 
ATOM     16  F   UNL     1      33.905  18.901  18.516  0.00  0.00    -0.160 F 
ATOM     17  F   UNL     1      35.633  17.625  18.161  0.00  0.00    -0.160 F 
ATOM     18  F   UNL     1      35.760  19.260  19.597  0.00  0.00    -0.160 F 
ENDBRANCH  14  15
ENDBRANCH  12  14
ENDBRANCH   5   8
BRANCH   1  20
ATOM     19  N   UNL     1      33.390  24.396   8.772  0.00  0.00    -0.329 N 
ATOM     20  C   UNL     1      33.598  24.269  10.114  0.00  0.00    +0.215 C 
ATOM     21  O   UNL     1      34.624  24.697  10.620  0.00  0.00    -0.276 OA
ATOM     22  H   UNL     1      34.122  24.835   8.226  0.00  0.00    +0.145 HD
ATOM     23  H   UNL     1      32.596  23.999   8.291  0.00  0.00    +0.145 HD
ENDBRANCH   1  20
TORSDOF 4
ENDMDL
MODEL 8
REMARK VINA RESULT:      -5.7      2.171      3.272
REMARK  Name = ZINC000826139982
REMARK  4 active torsions:
REMARK  status: ('A' for Active; 'I' for Inactive)
REMARK    1  A    between atoms: C_2  and  C_4
REMARK    2  A    between atoms: C_8  and  C_10
REMARK    3  A    between atoms: C_14  and  S_15
REMARK    4  A    between atoms: S_15  and  C_16
REMARK                            x       y       z     vdW  Elec       q    Type
REMARK                         _______ _______ _______ _____ _____    ______ ____
ROOT
ATOM      1  C   UNL     1      34.429  23.924   9.948  0.00  0.00    +0.093 C 
ATOM      2  C   UNL     1      33.109  23.757   9.187  0.00  0.00    +0.033 C 
ATOM      3  C   UNL     1      32.015  24.038  10.209  0.00  0.00    +0.109 C 
ATOM      4  N   UNL     1      32.616  23.686  11.479  0.00  0.00    -0.297 N 
ATOM      5  C   UNL     1      31.843  23.296  12.565  0.00  0.00    +0.247 C 
ATOM      6  O   UNL     1      30.624  23.154  12.468  0.00  0.00    -0.270 OA
ATOM      7  C   UNL     1      34.045  23.949  11.422  0.00  0.00    +0.120 C 
ENDROOT
BRANCH   5   8
ATOM      8  C   UNL     1      32.479  22.962  13.882  0.00  0.00    +0.038 A 
ATOM      9  C   UNL     1      32.139  23.590  15.085  0.00  0.00    +0.013 A 
ATOM     10  C   UNL     1      32.847  23.329  16.257  0.00  0.00    +0.002 A 
ATOM     11  C   UNL     1      33.839  22.354  16.265  0.00  0.00    +0.015 A 
ATOM     12  C   UNL     1      34.103  21.613  15.109  0.00  0.00    +0.017 A 
ATOM     13  C   UNL     1      33.448  21.945  13.914  0.00  0.00    +0.028 A 
BRANCH  12  14
ATOM     14  S   UNL     1      35.289  20.285  15.131  0.00  0.00    -0.016 S 
BRANCH  14  15
ATOM     15  C   UNL     1      34.229  18.876  15.519  0.00  0.00    +0.448 C 
ATOM     16  F   UNL     1      34.412  17.808  14.707  0.00  0.00    -0.160 F 
ATOM     17  F   UNL     1      34.438  18.450  16.788  0.00  0.00    -0.160 F 
ATOM     18  F   UNL     1      32.922  19.223  15.426  0.00  0.00    -0.160 F 
ENDBRANCH  14  15
ENDBRANCH  12  14
ENDBRANCH   5   8
BRANCH   1  20
ATOM     19  N   UNL     1      35.779  25.089   8.299  0.00  0.00    -0.329 N 
ATOM     20  C   UNL     1      35.233  25.146   9.547  0.00  0.00    +0.215 C 
ATOM     21  O   UNL     1      35.456  26.104  10.273  0.00  0.00    -0.276 OA
ATOM     22  H   UNL     1      36.381  25.854   8.017  0.00  0.00    +0.145 HD
ATOM     23  H   UNL     1      35.687  24.292   7.686  0.00  0.00    +0.145 HD
ENDBRANCH   1  20
TORSDOF 4
ENDMDL
MODEL 9
REMARK VINA RESULT:      -5.6      3.124      4.271
REMARK  Name = ZINC000826139982
REMARK  4 active torsions:
REMARK  status: ('A' for Active; 'I' for Inactive)
REMARK    1  A    between atoms: C_2  and  C_4
REMARK    2  A    between atoms: C_8  and  C_10
REMARK    3  A    between atoms: C_14  and  S_15
REMARK    4  A    between atoms: S_15  and  C_16
REMARK                            x       y       z     vdW  Elec       q    Type
REMARK                         _______ _______ _______ _____ _____    ______ ____
ROOT
ATOM      1  C   UNL     1      34.428  23.522  10.029  0.00  0.00    +0.093 C 
ATOM      2  C   UNL     1      33.088  23.756   9.321  0.00  0.00    +0.033 C 
ATOM      3  C   UNL     1      32.090  24.048  10.433  0.00  0.00    +0.109 C 
ATOM      4  N   UNL     1      32.630  23.358  11.586  0.00  0.00    -0.297 N 
ATOM      5  C   UNL     1      31.813  22.929  12.625  0.00  0.00    +0.247 C 
ATOM      6  O   UNL     1      30.588  23.044  12.569  0.00  0.00    -0.270 OA
ATOM      7  C   UNL     1      34.081  23.346  11.502  0.00  0.00    +0.120 C 
ENDROOT
BRANCH   5   8
ATOM      8  C   UNL     1      32.391  22.240  13.825  0.00  0.00    +0.038 A 
ATOM      9  C   UNL     1      32.073  20.928  14.189  0.00  0.00    +0.013 A 
ATOM     10  C   UNL     1      32.543  20.379  15.382  0.00  0.00    +0.002 A 
ATOM     11  C   UNL     1      33.426  21.101  16.176  0.00  0.00    +0.015 A 
ATOM     12  C   UNL     1      33.870  22.362  15.764  0.00  0.00    +0.017 A 
ATOM     13  C   UNL     1      33.322  22.941  14.610  0.00  0.00    +0.028 A 
BRANCH  12  14
ATOM     14  S   UNL     1      35.087  23.252  16.711  0.00  0.00    -0.016 S 
BRANCH  14  15
ATOM     15  C   UNL     1      34.036  24.322  17.715  0.00  0.00    +0.448 C 
ATOM     16  F   UNL     1      34.425  24.422  19.008  0.00  0.00    -0.160 F 
ATOM     17  F   UNL     1      34.007  25.580  17.212  0.00  0.00    -0.160 F 
ATOM     18  F   UNL     1      32.759  23.866  17.722  0.00  0.00    -0.160 F 
ENDBRANCH  14  15
ENDBRANCH  12  14
ENDBRANCH   5   8
BRANCH   1  20
ATOM     19  N   UNL     1      36.747  24.244  10.012  0.00  0.00    -0.329 N 
ATOM     20  C   UNL     1      35.452  24.620   9.811  0.00  0.00    +0.215 C 
ATOM     21  O   UNL     1      35.184  25.780   9.538  0.00  0.00    -0.276 OA
ATOM     22  H   UNL     1      37.458  24.963   9.945  0.00  0.00    +0.145 HD
ATOM     23  H   UNL     1      37.020  23.318  10.308  0.00  0.00    +0.145 HD
ENDBRANCH   1  20
TORSDOF 4
ENDMDL
