MODEL 1
REMARK VINA RESULT:      -6.3      0.000      0.000
REMARK  Name = ZINC000435351830
REMARK  5 active torsions:
REMARK  status: ('A' for Active; 'I' for Inactive)
REMARK    1  A    between atoms: C_2  and  C_3
REMARK    2  A    between atoms: C_7  and  C_8
REMARK    3  A    between atoms: C_8  and  C_9
REMARK    4  A    between atoms: N_11  and  C_12
REMARK    5  A    between atoms: C_12  and  C_13
REMARK                            x       y       z     vdW  Elec       q    Type
REMARK                         _______ _______ _______ _____ _____    ______ ____
ROOT
ATOM      1  C   UNL     1      33.476  19.893  12.880  0.00  0.00    +0.224 C 
ATOM      2  O   UNL     1      34.640  19.677  13.199  0.00  0.00    -0.275 OA
ATOM      3  N   UNL     1      33.092  20.502  11.714  0.00  0.00    -0.309 N 
ATOM      4  H   UNL     1      32.110  20.614  11.505  0.00  0.00    +0.149 HD
ENDROOT
BRANCH   1   5
ATOM      5  C   UNL     1      32.346  19.542  13.813  0.00  0.00    +0.072 C 
ATOM      6  C   UNL     1      31.356  18.466  13.383  0.00  0.00    +0.022 C 
ATOM      7  C   UNL     1      32.367  18.139  14.432  0.00  0.00    +0.022 C 
BRANCH   5  12
ATOM      8  C   UNL     1      32.505  22.696  15.991  0.00  0.00    +0.052 A 
ATOM      9  C   UNL     1      31.290  22.647  16.677  0.00  0.00    +0.019 A 
ATOM     10  C   UNL     1      30.380  21.627  16.401  0.00  0.00    +0.002 A 
ATOM     11  C   UNL     1      30.693  20.640  15.461  0.00  0.00    +0.005 A 
ATOM     12  C   UNL     1      31.922  20.647  14.780  0.00  0.00    -0.031 A 
ATOM     13  C   UNL     1      32.803  21.713  15.044  0.00  0.00    +0.023 A 
BRANCH   8  15
ATOM     14  N   UNL     1      34.229  24.560  16.520  0.00  0.00    -0.191 NA
ATOM     15  C   UNL     1      33.460  23.723  16.276  0.00  0.00    +0.099 C 
ENDBRANCH   8  15
ENDBRANCH   5  12
ENDBRANCH   1   5
BRANCH   3  16
ATOM     16  C   UNL     1      34.061  21.037  10.782  0.00  0.00    +0.159 C 
BRANCH  16  17
ATOM     17  C   UNL     1      33.449  21.952   9.745  0.00  0.00    +0.058 A 
ATOM     18  C   UNL     1      33.149  23.278  10.066  0.00  0.00    +0.028 A 
ATOM     19  C   UNL     1      32.562  24.095   9.101  0.00  0.00    +0.042 A 
ATOM     20  C   UNL     1      32.300  23.564   7.850  0.00  0.00    +0.141 A 
ATOM     21  F   UNL     1      31.731  24.318   6.900  0.00  0.00    -0.204 F 
ATOM     22  C   UNL     1      32.635  22.246   7.598  0.00  0.00    +0.149 A 
ATOM     23  N   UNL     1      33.208  21.427   8.513  0.00  0.00    -0.255 NA
ENDBRANCH  16  17
ENDBRANCH   3  16
TORSDOF 5
ENDMDL
MODEL 2
REMARK VINA RESULT:      -6.2      1.939      3.533
REMARK  Name = ZINC000435351830
REMARK  5 active torsions:
REMARK  status: ('A' for Active; 'I' for Inactive)
REMARK    1  A    between atoms: C_2  and  C_3
REMARK    2  A    between atoms: C_7  and  C_8
REMARK    3  A    between atoms: C_8  and  C_9
REMARK    4  A    between atoms: N_11  and  C_12
REMARK    5  A    between atoms: C_12  and  C_13
REMARK                            x       y       z     vdW  Elec       q    Type
REMARK                         _______ _______ _______ _____ _____    ______ ____
ROOT
ATOM      1  C   UNL     1      32.965  21.333  13.228  0.00  0.00    +0.224 C 
ATOM      2  O   UNL     1      33.423  22.365  13.706  0.00  0.00    -0.275 OA
ATOM      3  N   UNL     1      33.343  20.801  12.023  0.00  0.00    -0.309 N 
ATOM      4  H   UNL     1      32.944  19.926  11.712  0.00  0.00    +0.149 HD
ENDROOT
BRANCH   1   5
ATOM      5  C   UNL     1      31.866  20.581  13.935  0.00  0.00    +0.072 C 
ATOM      6  C   UNL     1      30.904  21.363  14.822  0.00  0.00    +0.022 C 
ATOM      7  C   UNL     1      30.427  20.875  13.493  0.00  0.00    +0.022 C 
BRANCH   5  12
ATOM      8  C   UNL     1      33.617  17.407  15.193  0.00  0.00    +0.052 A 
ATOM      9  C   UNL     1      32.841  16.394  14.629  0.00  0.00    +0.019 A 
ATOM     10  C   UNL     1      31.709  16.723  13.883  0.00  0.00    +0.002 A 
ATOM     11  C   UNL     1      31.366  18.063  13.678  0.00  0.00    +0.005 A 
ATOM     12  C   UNL     1      32.148  19.104  14.208  0.00  0.00    -0.031 A 
ATOM     13  C   UNL     1      33.259  18.744  14.994  0.00  0.00    +0.023 A 
BRANCH   8  15
ATOM     14  N   UNL     1      35.740  16.825  16.563  0.00  0.00    -0.191 NA
ATOM     15  C   UNL     1      34.793  17.090  15.943  0.00  0.00    +0.099 C 
ENDBRANCH   8  15
ENDBRANCH   5  12
ENDBRANCH   1   5
BRANCH   3  16
ATOM     16  C   UNL     1      34.275  21.483  11.152  0.00  0.00    +0.159 C 
BRANCH  16  17
ATOM     17  C   UNL     1      33.598  22.249  10.037  0.00  0.00    +0.058 A 
ATOM     18  C   UNL     1      33.084  23.527  10.273  0.00  0.00    +0.028 A 
ATOM     19  C   UNL     1      32.442  24.202   9.236  0.00  0.00    +0.042 A 
ATOM     20  C   UNL     1      32.340  23.585   8.002  0.00  0.00    +0.141 A 
ATOM     21  F   UNL     1      31.723  24.202   6.985  0.00  0.00    -0.204 F 
ATOM     22  C   UNL     1      32.882  22.324   7.837  0.00  0.00    +0.149 A 
ATOM     23  N   UNL     1      33.515  21.641   8.823  0.00  0.00    -0.255 NA
ENDBRANCH  16  17
ENDBRANCH   3  16
TORSDOF 5
ENDMDL
MODEL 3
REMARK VINA RESULT:      -6.2      2.067      4.380
REMARK  Name = ZINC000435351830
REMARK  5 active torsions:
REMARK  status: ('A' for Active; 'I' for Inactive)
REMARK    1  A    between atoms: C_2  and  C_3
REMARK    2  A    between atoms: C_7  and  C_8
REMARK    3  A    between atoms: C_8  and  C_9
REMARK    4  A    between atoms: N_11  and  C_12
REMARK    5  A    between atoms: C_12  and  C_13
REMARK                            x       y       z     vdW  Elec       q    Type
REMARK                         _______ _______ _______ _____ _____    ______ ____
ROOT
ATOM      1  C   UNL     1      32.879  21.183  13.176  0.00  0.00    +0.224 C 
ATOM      2  O   UNL     1      33.101  22.247  13.744  0.00  0.00    -0.275 OA
ATOM      3  N   UNL     1      33.456  20.799  11.994  0.00  0.00    -0.309 N 
ATOM      4  H   UNL     1      33.248  19.890  11.606  0.00  0.00    +0.149 HD
ENDROOT
BRANCH   1   5
ATOM      5  C   UNL     1      31.870  20.211  13.733  0.00  0.00    +0.072 C 
ATOM      6  C   UNL     1      30.766  20.748  14.637  0.00  0.00    +0.022 C 
ATOM      7  C   UNL     1      30.425  20.350  13.238  0.00  0.00    +0.022 C 
BRANCH   5  12
ATOM      8  C   UNL     1      32.261  16.455  13.056  0.00  0.00    +0.052 A 
ATOM      9  C   UNL     1      33.054  16.040  14.125  0.00  0.00    +0.019 A 
ATOM     10  C   UNL     1      33.522  16.977  15.047  0.00  0.00    +0.002 A 
ATOM     11  C   UNL     1      33.175  18.325  14.916  0.00  0.00    +0.005 A 
ATOM     12  C   UNL     1      32.350  18.767  13.866  0.00  0.00    -0.031 A 
ATOM     13  C   UNL     1      31.929  17.807  12.926  0.00  0.00    +0.023 A 
BRANCH   8  15
ATOM     14  N   UNL     1      31.357  14.726  11.348  0.00  0.00    -0.191 NA
ATOM     15  C   UNL     1      31.755  15.505  12.113  0.00  0.00    +0.099 C 
ENDBRANCH   8  15
ENDBRANCH   5  12
ENDBRANCH   1   5
BRANCH   3  16
ATOM     16  C   UNL     1      34.329  21.683  11.254  0.00  0.00    +0.159 C 
BRANCH  16  17
ATOM     17  C   UNL     1      33.641  22.368  10.094  0.00  0.00    +0.058 A 
ATOM     18  C   UNL     1      33.061  23.628  10.265  0.00  0.00    +0.028 A 
ATOM     19  C   UNL     1      32.410  24.228   9.189  0.00  0.00    +0.042 A 
ATOM     20  C   UNL     1      32.365  23.556   7.980  0.00  0.00    +0.141 A 
ATOM     21  F   UNL     1      31.742  24.099   6.926  0.00  0.00    -0.204 F 
ATOM     22  C   UNL     1      32.972  22.317   7.879  0.00  0.00    +0.149 A 
ATOM     23  N   UNL     1      33.614  21.708   8.905  0.00  0.00    -0.255 NA
ENDBRANCH  16  17
ENDBRANCH   3  16
TORSDOF 5
ENDMDL
MODEL 4
REMARK VINA RESULT:      -6.1      4.164      7.400
REMARK  Name = ZINC000435351830
REMARK  5 active torsions:
REMARK  status: ('A' for Active; 'I' for Inactive)
REMARK    1  A    between atoms: C_2  and  C_3
REMARK    2  A    between atoms: C_7  and  C_8
REMARK    3  A    between atoms: C_8  and  C_9
REMARK    4  A    between atoms: N_11  and  C_12
REMARK    5  A    between atoms: C_12  and  C_13
REMARK                            x       y       z     vdW  Elec       q    Type
REMARK                         _______ _______ _______ _____ _____    ______ ____
ROOT
ATOM      1  C   UNL     1      32.359  18.593  13.079  0.00  0.00    +0.224 C 
ATOM      2  O   UNL     1      33.140  19.321  12.476  0.00  0.00    -0.275 OA
ATOM      3  N   UNL     1      31.133  18.988  13.547  0.00  0.00    -0.309 N 
ATOM      4  H   UNL     1      30.530  18.319  14.004  0.00  0.00    +0.149 HD
ENDROOT
BRANCH   1   5
ATOM      5  C   UNL     1      32.735  17.171  13.411  0.00  0.00    +0.072 C 
ATOM      6  C   UNL     1      33.973  16.928  14.267  0.00  0.00    +0.022 C 
ATOM      7  C   UNL     1      32.624  16.750  14.882  0.00  0.00    +0.022 C 
BRANCH   5  12
ATOM      8  C   UNL     1      32.810  14.503  10.656  0.00  0.00    +0.052 A 
ATOM      9  C   UNL     1      31.454  14.256  10.442  0.00  0.00    +0.019 A 
ATOM     10  C   UNL     1      30.500  14.906  11.225  0.00  0.00    +0.002 A 
ATOM     11  C   UNL     1      30.898  15.821  12.204  0.00  0.00    +0.005 A 
ATOM     12  C   UNL     1      32.256  16.113  12.419  0.00  0.00    -0.031 A 
ATOM     13  C   UNL     1      33.199  15.410  11.645  0.00  0.00    +0.023 A 
BRANCH   8  15
ATOM     14  N   UNL     1      34.613  13.334   9.205  0.00  0.00    -0.191 NA
ATOM     15  C   UNL     1      33.802  13.861   9.848  0.00  0.00    +0.099 C 
ENDBRANCH   8  15
ENDBRANCH   5  12
ENDBRANCH   1   5
BRANCH   3  16
ATOM     16  C   UNL     1      30.689  20.361  13.443  0.00  0.00    +0.159 C 
BRANCH  16  17
ATOM     17  C   UNL     1      31.072  21.204  14.639  0.00  0.00    +0.058 A 
ATOM     18  C   UNL     1      30.305  21.160  15.806  0.00  0.00    +0.028 A 
ATOM     19  C   UNL     1      30.663  21.966  16.885  0.00  0.00    +0.042 A 
ATOM     20  C   UNL     1      31.775  22.782  16.767  0.00  0.00    +0.141 A 
ATOM     21  F   UNL     1      32.144  23.575  17.781  0.00  0.00    -0.204 F 
ATOM     22  C   UNL     1      32.494  22.765  15.586  0.00  0.00    +0.149 A 
ATOM     23  N   UNL     1      32.174  21.992  14.520  0.00  0.00    -0.255 NA
ENDBRANCH  16  17
ENDBRANCH   3  16
TORSDOF 5
ENDMDL
MODEL 5
REMARK VINA RESULT:      -6.0      4.540      6.810
REMARK  Name = ZINC000435351830
REMARK  5 active torsions:
REMARK  status: ('A' for Active; 'I' for Inactive)
REMARK    1  A    between atoms: C_2  and  C_3
REMARK    2  A    between atoms: C_7  and  C_8
REMARK    3  A    between atoms: C_8  and  C_9
REMARK    4  A    between atoms: N_11  and  C_12
REMARK    5  A    between atoms: C_12  and  C_13
REMARK                            x       y       z     vdW  Elec       q    Type
REMARK                         _______ _______ _______ _____ _____    ______ ____
ROOT
ATOM      1  C   UNL     1      32.716  21.655  14.351  0.00  0.00    +0.224 C 
ATOM      2  O   UNL     1      33.325  21.693  13.287  0.00  0.00    -0.275 OA
ATOM      3  N   UNL     1      32.989  22.456  15.429  0.00  0.00    -0.309 N 
ATOM      4  H   UNL     1      32.419  22.390  16.261  0.00  0.00    +0.149 HD
ENDROOT
BRANCH   1   5
ATOM      5  C   UNL     1      31.621  20.644  14.574  0.00  0.00    +0.072 C 
ATOM      6  C   UNL     1      30.341  21.100  15.267  0.00  0.00    +0.022 C 
ATOM      7  C   UNL     1      30.316  20.850  13.795  0.00  0.00    +0.022 C 
BRANCH   5  12
ATOM      8  C   UNL     1      33.876  17.587  15.112  0.00  0.00    +0.052 A 
ATOM      9  C   UNL     1      33.057  16.536  14.697  0.00  0.00    +0.019 A 
ATOM     10  C   UNL     1      31.748  16.795  14.294  0.00  0.00    +0.002 A 
ATOM     11  C   UNL     1      31.263  18.106  14.279  0.00  0.00    +0.005 A 
ATOM     12  C   UNL     1      32.075  19.188  14.660  0.00  0.00    -0.031 A 
ATOM     13  C   UNL     1      33.378  18.894  15.106  0.00  0.00    +0.023 A 
BRANCH   8  15
ATOM     14  N   UNL     1      36.328  17.133  15.822  0.00  0.00    -0.191 NA
ATOM     15  C   UNL     1      35.229  17.343  15.509  0.00  0.00    +0.099 C 
ENDBRANCH   8  15
ENDBRANCH   5  12
ENDBRANCH   1   5
BRANCH   3  16
ATOM     16  C   UNL     1      34.108  23.373  15.430  0.00  0.00    +0.159 C 
BRANCH  16  17
ATOM     17  C   UNL     1      34.092  24.333  16.598  0.00  0.00    +0.058 A 
ATOM     18  C   UNL     1      33.130  24.203  17.603  0.00  0.00    +0.028 A 
ATOM     19  C   UNL     1      33.120  25.116  18.656  0.00  0.00    +0.042 A 
ATOM     20  C   UNL     1      34.071  26.122  18.674  0.00  0.00    +0.141 A 
ATOM     21  F   UNL     1      34.087  27.020  19.667  0.00  0.00    -0.204 F 
ATOM     22  C   UNL     1      35.000  26.182  17.653  0.00  0.00    +0.149 A 
ATOM     23  N   UNL     1      35.039  25.310  16.616  0.00  0.00    -0.255 NA
ENDBRANCH  16  17
ENDBRANCH   3  16
TORSDOF 5
ENDMDL
MODEL 6
REMARK VINA RESULT:      -5.9      3.944      6.969
REMARK  Name = ZINC000435351830
REMARK  5 active torsions:
REMARK  status: ('A' for Active; 'I' for Inactive)
REMARK    1  A    between atoms: C_2  and  C_3
REMARK    2  A    between atoms: C_7  and  C_8
REMARK    3  A    between atoms: C_8  and  C_9
REMARK    4  A    between atoms: N_11  and  C_12
REMARK    5  A    between atoms: C_12  and  C_13
REMARK                            x       y       z     vdW  Elec       q    Type
REMARK                         _______ _______ _______ _____ _____    ______ ____
ROOT
ATOM      1  C   UNL     1      33.584  22.365  10.601  0.00  0.00    +0.224 C 
ATOM      2  O   UNL     1      34.087  21.405  10.029  0.00  0.00    -0.275 OA
ATOM      3  N   UNL     1      32.895  22.290  11.783  0.00  0.00    -0.309 N 
ATOM      4  H   UNL     1      32.539  23.133  12.212  0.00  0.00    +0.149 HD
ENDROOT
BRANCH   1   5
ATOM      5  C   UNL     1      33.640  23.741   9.987  0.00  0.00    +0.072 C 
ATOM      6  C   UNL     1      33.222  23.904   8.530  0.00  0.00    +0.022 C 
ATOM      7  C   UNL     1      32.302  24.385   9.604  0.00  0.00    +0.022 C 
BRANCH   5  12
ATOM      8  C   UNL     1      35.795  26.866  10.542  0.00  0.00    +0.052 A 
ATOM      9  C   UNL     1      36.585  26.494  11.630  0.00  0.00    +0.019 A 
ATOM     10  C   UNL     1      36.392  25.252  12.234  0.00  0.00    +0.002 A 
ATOM     11  C   UNL     1      35.429  24.370  11.737  0.00  0.00    +0.005 A 
ATOM     12  C   UNL     1      34.641  24.705  10.622  0.00  0.00    -0.031 A 
ATOM     13  C   UNL     1      34.825  25.983  10.059  0.00  0.00    +0.023 A 
BRANCH   8  15
ATOM     14  N   UNL     1      36.168  29.152   9.377  0.00  0.00    -0.191 NA
ATOM     15  C   UNL     1      35.993  28.127   9.896  0.00  0.00    +0.099 C 
ENDBRANCH   8  15
ENDBRANCH   5  12
ENDBRANCH   1   5
BRANCH   3  16
ATOM     16  C   UNL     1      32.621  21.022  12.423  0.00  0.00    +0.159 C 
BRANCH  16  17
ATOM     17  C   UNL     1      31.962  21.165  13.776  0.00  0.00    +0.058 A 
ATOM     18  C   UNL     1      30.737  20.544  14.031  0.00  0.00    +0.028 A 
ATOM     19  C   UNL     1      30.137  20.713  15.278  0.00  0.00    +0.042 A 
ATOM     20  C   UNL     1      30.779  21.488  16.227  0.00  0.00    +0.141 A 
ATOM     21  F   UNL     1      30.229  21.678  17.433  0.00  0.00    -0.204 F 
ATOM     22  C   UNL     1      31.996  22.063  15.909  0.00  0.00    +0.149 A 
ATOM     23  N   UNL     1      32.608  21.917  14.708  0.00  0.00    -0.255 NA
ENDBRANCH  16  17
ENDBRANCH   3  16
TORSDOF 5
ENDMDL
MODEL 7
REMARK VINA RESULT:      -5.9      4.462      7.151
REMARK  Name = ZINC000435351830
REMARK  5 active torsions:
REMARK  status: ('A' for Active; 'I' for Inactive)
REMARK    1  A    between atoms: C_2  and  C_3
REMARK    2  A    between atoms: C_7  and  C_8
REMARK    3  A    between atoms: C_8  and  C_9
REMARK    4  A    between atoms: N_11  and  C_12
REMARK    5  A    between atoms: C_12  and  C_13
REMARK                            x       y       z     vdW  Elec       q    Type
REMARK                         _______ _______ _______ _____ _____    ______ ____
ROOT
ATOM      1  C   UNL     1      32.806  21.446  14.199  0.00  0.00    +0.224 C 
ATOM      2  O   UNL     1      33.416  21.521  13.138  0.00  0.00    -0.275 OA
ATOM      3  N   UNL     1      33.045  22.241  15.289  0.00  0.00    -0.309 N 
ATOM      4  H   UNL     1      32.475  22.143  16.117  0.00  0.00    +0.149 HD
ENDROOT
BRANCH   1   5
ATOM      5  C   UNL     1      31.750  20.390  14.404  0.00  0.00    +0.072 C 
ATOM      6  C   UNL     1      30.537  20.733  15.262  0.00  0.00    +0.022 C 
ATOM      7  C   UNL     1      30.375  20.654  13.779  0.00  0.00    +0.022 C 
BRANCH   5  12
ATOM      8  C   UNL     1      31.892  16.711  13.328  0.00  0.00    +0.052 A 
ATOM      9  C   UNL     1      32.943  16.214  14.101  0.00  0.00    +0.019 A 
ATOM     10  C   UNL     1      33.656  17.074  14.936  0.00  0.00    +0.002 A 
ATOM     11  C   UNL     1      33.304  18.425  15.020  0.00  0.00    +0.005 A 
ATOM     12  C   UNL     1      32.229  18.945  14.277  0.00  0.00    -0.031 A 
ATOM     13  C   UNL     1      31.555  18.065  13.409  0.00  0.00    +0.023 A 
BRANCH   8  15
ATOM     14  N   UNL     1      30.530  15.135  11.783  0.00  0.00    -0.191 NA
ATOM     15  C   UNL     1      31.136  15.839  12.482  0.00  0.00    +0.099 C 
ENDBRANCH   8  15
ENDBRANCH   5  12
ENDBRANCH   1   5
BRANCH   3  16
ATOM     16  C   UNL     1      34.127  23.201  15.306  0.00  0.00    +0.159 C 
BRANCH  16  17
ATOM     17  C   UNL     1      34.040  24.179  16.456  0.00  0.00    +0.058 A 
ATOM     18  C   UNL     1      34.949  25.236  16.551  0.00  0.00    +0.028 A 
ATOM     19  C   UNL     1      34.865  26.109  17.634  0.00  0.00    +0.042 A 
ATOM     20  C   UNL     1      33.876  25.903  18.580  0.00  0.00    +0.141 A 
ATOM     21  F   UNL     1      33.770  26.718  19.638  0.00  0.00    -0.204 F 
ATOM     22  C   UNL     1      33.004  24.842  18.416  0.00  0.00    +0.149 A 
ATOM     23  N   UNL     1      33.057  23.978  17.374  0.00  0.00    -0.255 NA
ENDBRANCH  16  17
ENDBRANCH   3  16
TORSDOF 5
ENDMDL
MODEL 8
REMARK VINA RESULT:      -5.9      1.819      2.119
REMARK  Name = ZINC000435351830
REMARK  5 active torsions:
REMARK  status: ('A' for Active; 'I' for Inactive)
REMARK    1  A    between atoms: C_2  and  C_3
REMARK    2  A    between atoms: C_7  and  C_8
REMARK    3  A    between atoms: C_8  and  C_9
REMARK    4  A    between atoms: N_11  and  C_12
REMARK    5  A    between atoms: C_12  and  C_13
REMARK                            x       y       z     vdW  Elec       q    Type
REMARK                         _______ _______ _______ _____ _____    ______ ____
ROOT
ATOM      1  C   UNL     1      33.046  20.640  12.826  0.00  0.00    +0.224 C 
ATOM      2  O   UNL     1      34.132  20.188  13.174  0.00  0.00    -0.275 OA
ATOM      3  N   UNL     1      32.823  21.299  11.646  0.00  0.00    -0.309 N 
ATOM      4  H   UNL     1      31.891  21.612  11.413  0.00  0.00    +0.149 HD
ENDROOT
BRANCH   1   5
ATOM      5  C   UNL     1      31.849  20.550  13.737  0.00  0.00    +0.072 C 
ATOM      6  C   UNL     1      30.532  20.046  13.158  0.00  0.00    +0.022 C 
ATOM      7  C   UNL     1      31.320  19.145  14.051  0.00  0.00    +0.022 C 
BRANCH   5  12
ATOM      8  C   UNL     1      32.984  23.295  16.164  0.00  0.00    +0.052 A 
ATOM      9  C   UNL     1      32.053  23.184  17.197  0.00  0.00    +0.019 A 
ATOM     10  C   UNL     1      31.013  22.260  17.096  0.00  0.00    +0.002 A 
ATOM     11  C   UNL     1      30.917  21.429  15.976  0.00  0.00    +0.005 A 
ATOM     12  C   UNL     1      31.859  21.497  14.935  0.00  0.00    -0.031 A 
ATOM     13  C   UNL     1      32.872  22.469  15.042  0.00  0.00    +0.023 A 
BRANCH   8  15
ATOM     14  N   UNL     1      34.945  24.982  16.350  0.00  0.00    -0.191 NA
ATOM     15  C   UNL     1      34.070  24.223  16.260  0.00  0.00    +0.099 C 
ENDBRANCH   8  15
ENDBRANCH   5  12
ENDBRANCH   1   5
BRANCH   3  16
ATOM     16  C   UNL     1      33.902  21.602  10.730  0.00  0.00    +0.159 C 
BRANCH  16  17
ATOM     17  C   UNL     1      34.150  23.085  10.571  0.00  0.00    +0.058 A 
ATOM     18  C   UNL     1      35.082  23.734  11.385  0.00  0.00    +0.028 A 
ATOM     19  C   UNL     1      35.275  25.106  11.237  0.00  0.00    +0.042 A 
ATOM     20  C   UNL     1      34.538  25.783  10.280  0.00  0.00    +0.141 A 
ATOM     21  F   UNL     1      34.692  27.103  10.115  0.00  0.00    -0.204 F 
ATOM     22  C   UNL     1      33.641  25.074   9.501  0.00  0.00    +0.149 A 
ATOM     23  N   UNL     1      33.432  23.740   9.618  0.00  0.00    -0.255 NA
ENDBRANCH  16  17
ENDBRANCH   3  16
TORSDOF 5
ENDMDL
MODEL 9
REMARK VINA RESULT:      -5.9      2.563      4.721
REMARK  Name = ZINC000435351830
REMARK  5 active torsions:
REMARK  status: ('A' for Active; 'I' for Inactive)
REMARK    1  A    between atoms: C_2  and  C_3
REMARK    2  A    between atoms: C_7  and  C_8
REMARK    3  A    between atoms: C_8  and  C_9
REMARK    4  A    between atoms: N_11  and  C_12
REMARK    5  A    between atoms: C_12  and  C_13
REMARK                            x       y       z     vdW  Elec       q    Type
REMARK                         _______ _______ _______ _____ _____    ______ ____
ROOT
ATOM      1  C   UNL     1      31.653  21.739  13.412  0.00  0.00    +0.224 C 
ATOM      2  O   UNL     1      30.706  22.370  12.955  0.00  0.00    -0.275 OA
ATOM      3  N   UNL     1      32.920  21.756  12.892  0.00  0.00    -0.309 N 
ATOM      4  H   UNL     1      33.657  21.235  13.346  0.00  0.00    +0.149 HD
ENDROOT
BRANCH   1   5
ATOM      5  C   UNL     1      31.464  20.817  14.590  0.00  0.00    +0.072 C 
ATOM      6  C   UNL     1      31.259  21.432  15.969  0.00  0.00    +0.022 C 
ATOM      7  C   UNL     1      30.088  20.827  15.267  0.00  0.00    +0.022 C 
BRANCH   5  12
ATOM      8  C   UNL     1      31.922  17.162  13.515  0.00  0.00    +0.052 A 
ATOM      9  C   UNL     1      33.052  16.778  14.237  0.00  0.00    +0.019 A 
ATOM     10  C   UNL     1      33.715  17.711  15.035  0.00  0.00    +0.002 A 
ATOM     11  C   UNL     1      33.234  19.020  15.134  0.00  0.00    +0.005 A 
ATOM     12  C   UNL     1      32.079  19.425  14.443  0.00  0.00    -0.031 A 
ATOM     13  C   UNL     1      31.456  18.477  13.610  0.00  0.00    +0.023 A 
BRANCH   8  15
ATOM     14  N   UNL     1      30.633  15.444  12.063  0.00  0.00    -0.191 NA
ATOM     15  C   UNL     1      31.217  16.214  12.708  0.00  0.00    +0.099 C 
ENDBRANCH   8  15
ENDBRANCH   5  12
ENDBRANCH   1   5
BRANCH   3  16
ATOM     16  C   UNL     1      33.230  22.470  11.673  0.00  0.00    +0.159 C 
BRANCH  16  17
ATOM     17  C   UNL     1      33.658  21.563  10.541  0.00  0.00    +0.058 A 
ATOM     18  C   UNL     1      33.501  20.179  10.652  0.00  0.00    +0.028 A 
ATOM     19  C   UNL     1      33.927  19.361   9.606  0.00  0.00    +0.042 A 
ATOM     20  C   UNL     1      34.489  19.950   8.487  0.00  0.00    +0.141 A 
ATOM     21  F   UNL     1      34.916  19.194   7.467  0.00  0.00    -0.204 F 
ATOM     22  C   UNL     1      34.602  21.327   8.441  0.00  0.00    +0.149 A 
ATOM     23  N   UNL     1      34.196  22.150   9.438  0.00  0.00    -0.255 NA
ENDBRANCH  16  17
ENDBRANCH   3  16
TORSDOF 5
ENDMDL
