MODEL 1
REMARK VINA RESULT:      -6.9      0.000      0.000
REMARK  Name = ZINC000583127796
REMARK  2 active torsions:
REMARK  status: ('A' for Active; 'I' for Inactive)
REMARK    1  A    between atoms: C_2  and  C_4
REMARK    2  A    between atoms: C_7  and  C_8
REMARK                            x       y       z     vdW  Elec       q    Type
REMARK                         _______ _______ _______ _____ _____    ______ ____
ROOT
ATOM      1  C   UNL     1      31.891  17.166  15.963  0.00  0.00    +0.247 C 
ATOM      2  O   UNL     1      33.093  16.914  15.907  0.00  0.00    -0.270 OA
ATOM      3  N   UNL     1      31.393  18.379  16.468  0.00  0.00    -0.297 N 
ATOM      4  C   UNL     1      29.984  18.768  16.567  0.00  0.00    +0.108 C 
ATOM      5  C   UNL     1      29.701  20.094  15.883  0.00  0.00    +0.020 C 
ATOM      6  C   UNL     1      30.667  21.173  16.336  0.00  0.00    +0.011 C 
ATOM      7  C   UNL     1      32.151  20.747  16.206  0.00  0.00    -0.004 C 
ATOM      8  C   UNL     1      33.000  21.880  16.822  0.00  0.00    +0.020 C 
ATOM      9  C   UNL     1      34.397  21.848  16.240  0.00  0.00    +0.070 C 
ATOM     10  S   UNL     1      34.136  21.495  14.494  0.00  0.00    -0.160 S 
ATOM     11  C   UNL     1      32.568  20.611  14.724  0.00  0.00    +0.077 C 
ATOM     12  C   UNL     1      32.347  19.394  16.944  0.00  0.00    +0.115 C 
ENDROOT
BRANCH   1  16
ATOM     13  C   UNL     1      29.025  14.601  14.090  0.00  0.00    +0.037 A 
ATOM     14  C   UNL     1      28.981  14.776  15.477  0.00  0.00    +0.014 A 
ATOM     15  C   UNL     1      29.978  15.516  16.118  0.00  0.00    +0.014 A 
ATOM     16  C   UNL     1      30.960  16.168  15.366  0.00  0.00    +0.037 A 
ATOM     17  C   UNL     1      31.063  15.906  13.992  0.00  0.00    +0.014 A 
ATOM     18  C   UNL     1      30.103  15.113  13.358  0.00  0.00    +0.014 A 
BRANCH  13  20
ATOM     19  N   UNL     1      28.330  12.935  12.461  0.00  0.00    -0.325 N 
ATOM     20  C   UNL     1      27.944  13.880  13.370  0.00  0.00    +0.242 C 
ATOM     21  O   UNL     1      26.766  14.085  13.618  0.00  0.00    -0.270 OA
ATOM     22  H   UNL     1      27.587  12.365  12.075  0.00  0.00    +0.145 HD
ATOM     23  H   UNL     1      29.266  12.555  12.443  0.00  0.00    +0.145 HD
ENDBRANCH  13  20
ENDBRANCH   1  16
TORSDOF 2
ENDMDL
MODEL 2
REMARK VINA RESULT:      -6.8      1.141      1.641
REMARK  Name = ZINC000583127796
REMARK  2 active torsions:
REMARK  status: ('A' for Active; 'I' for Inactive)
REMARK    1  A    between atoms: C_2  and  C_4
REMARK    2  A    between atoms: C_7  and  C_8
REMARK                            x       y       z     vdW  Elec       q    Type
REMARK                         _______ _______ _______ _____ _____    ______ ____
ROOT
ATOM      1  C   UNL     1      31.904  16.709  16.237  0.00  0.00    +0.247 C 
ATOM      2  O   UNL     1      32.897  16.004  16.405  0.00  0.00    -0.270 OA
ATOM      3  N   UNL     1      31.833  18.039  16.682  0.00  0.00    -0.297 N 
ATOM      4  C   UNL     1      30.698  18.952  16.520  0.00  0.00    +0.108 C 
ATOM      5  C   UNL     1      31.094  20.253  15.846  0.00  0.00    +0.020 C 
ATOM      6  C   UNL     1      32.298  20.886  16.519  0.00  0.00    +0.011 C 
ATOM      7  C   UNL     1      33.491  19.909  16.663  0.00  0.00    -0.004 C 
ATOM      8  C   UNL     1      34.580  20.644  17.475  0.00  0.00    +0.020 C 
ATOM      9  C   UNL     1      35.937  20.045  17.174  0.00  0.00    +0.070 C 
ATOM     10  S   UNL     1      35.901  19.750  15.399  0.00  0.00    -0.160 S 
ATOM     11  C   UNL     1      34.100  19.560  15.286  0.00  0.00    +0.077 C 
ATOM     12  C   UNL     1      32.996  18.619  17.373  0.00  0.00    +0.115 C 
ENDROOT
BRANCH   1  16
ATOM     13  C   UNL     1      28.852  14.693  14.018  0.00  0.00    +0.037 A 
ATOM     14  C   UNL     1      29.861  15.373  13.328  0.00  0.00    +0.014 A 
ATOM     15  C   UNL     1      30.797  16.132  14.034  0.00  0.00    +0.014 A 
ATOM     16  C   UNL     1      30.791  16.130  15.433  0.00  0.00    +0.037 A 
ATOM     17  C   UNL     1      29.721  15.535  16.116  0.00  0.00    +0.014 A 
ATOM     18  C   UNL     1      28.746  14.827  15.407  0.00  0.00    +0.014 A 
BRANCH  13  20
ATOM     19  N   UNL     1      28.402  12.913  12.423  0.00  0.00    -0.325 N 
ATOM     20  C   UNL     1      27.884  13.821  13.304  0.00  0.00    +0.242 C 
ATOM     21  O   UNL     1      26.685  13.877  13.533  0.00  0.00    -0.270 OA
ATOM     22  H   UNL     1      27.744  12.242  12.044  0.00  0.00    +0.145 HD
ATOM     23  H   UNL     1      29.379  12.657  12.426  0.00  0.00    +0.145 HD
ENDBRANCH  13  20
ENDBRANCH   1  16
TORSDOF 2
ENDMDL
MODEL 3
REMARK VINA RESULT:      -6.6      4.847      7.103
REMARK  Name = ZINC000583127796
REMARK  2 active torsions:
REMARK  status: ('A' for Active; 'I' for Inactive)
REMARK    1  A    between atoms: C_2  and  C_4
REMARK    2  A    between atoms: C_7  and  C_8
REMARK                            x       y       z     vdW  Elec       q    Type
REMARK                         _______ _______ _______ _____ _____    ______ ____
ROOT
ATOM      1  C   UNL     1      33.150  22.158  12.911  0.00  0.00    +0.247 C 
ATOM      2  O   UNL     1      33.917  21.251  12.594  0.00  0.00    -0.270 OA
ATOM      3  N   UNL     1      33.125  23.396  12.249  0.00  0.00    -0.297 N 
ATOM      4  C   UNL     1      32.244  24.528  12.551  0.00  0.00    +0.108 C 
ATOM      5  C   UNL     1      31.464  24.994  11.335  0.00  0.00    +0.020 C 
ATOM      6  C   UNL     1      32.375  25.229  10.144  0.00  0.00    +0.011 C 
ATOM      7  C   UNL     1      33.284  24.015   9.832  0.00  0.00    -0.004 C 
ATOM      8  C   UNL     1      34.236  24.445   8.695  0.00  0.00    +0.020 C 
ATOM      9  C   UNL     1      34.725  23.224   7.946  0.00  0.00    +0.070 C 
ATOM     10  S   UNL     1      33.268  22.174   7.820  0.00  0.00    -0.160 S 
ATOM     11  C   UNL     1      32.458  22.815   9.313  0.00  0.00    +0.077 C 
ATOM     12  C   UNL     1      34.049  23.619  11.125  0.00  0.00    +0.115 C 
ENDROOT
BRANCH   1  16
ATOM     13  C   UNL     1      30.492  20.984  16.051  0.00  0.00    +0.037 A 
ATOM     14  C   UNL     1      30.084  20.838  14.721  0.00  0.00    +0.014 A 
ATOM     15  C   UNL     1      30.890  21.323  13.688  0.00  0.00    +0.014 A 
ATOM     16  C   UNL     1      32.150  21.859  13.974  0.00  0.00    +0.037 A 
ATOM     17  C   UNL     1      32.510  22.098  15.308  0.00  0.00    +0.014 A 
ATOM     18  C   UNL     1      31.675  21.671  16.345  0.00  0.00    +0.014 A 
BRANCH  13  20
ATOM     19  N   UNL     1      29.823  19.078  17.405  0.00  0.00    -0.325 N 
ATOM     20  C   UNL     1      29.693  20.417  17.168  0.00  0.00    +0.242 C 
ATOM     21  O   UNL     1      28.994  21.127  17.875  0.00  0.00    -0.270 OA
ATOM     22  H   UNL     1      29.375  18.733  18.246  0.00  0.00    +0.145 HD
ATOM     23  H   UNL     1      30.589  18.536  17.029  0.00  0.00    +0.145 HD
ENDBRANCH  13  20
ENDBRANCH   1  16
TORSDOF 2
ENDMDL
MODEL 4
REMARK VINA RESULT:      -6.6      5.521      7.371
REMARK  Name = ZINC000583127796
REMARK  2 active torsions:
REMARK  status: ('A' for Active; 'I' for Inactive)
REMARK    1  A    between atoms: C_2  and  C_4
REMARK    2  A    between atoms: C_7  and  C_8
REMARK                            x       y       z     vdW  Elec       q    Type
REMARK                         _______ _______ _______ _____ _____    ______ ____
ROOT
ATOM      1  C   UNL     1      33.213  22.015  12.891  0.00  0.00    +0.247 C 
ATOM      2  O   UNL     1      33.878  21.046  12.530  0.00  0.00    -0.270 OA
ATOM      3  N   UNL     1      33.260  23.255  12.233  0.00  0.00    -0.297 N 
ATOM      4  C   UNL     1      32.501  24.458  12.585  0.00  0.00    +0.108 C 
ATOM      5  C   UNL     1      31.698  24.999  11.416  0.00  0.00    +0.020 C 
ATOM      6  C   UNL     1      32.557  25.159  10.176  0.00  0.00    +0.011 C 
ATOM      7  C   UNL     1      33.336  23.871   9.811  0.00  0.00    -0.004 C 
ATOM      8  C   UNL     1      34.257  24.222   8.622  0.00  0.00    +0.020 C 
ATOM      9  C   UNL     1      34.592  22.967   7.845  0.00  0.00    +0.070 C 
ATOM     10  S   UNL     1      33.044  22.051   7.802  0.00  0.00    -0.160 S 
ATOM     11  C   UNL     1      32.379  22.751   9.339  0.00  0.00    +0.077 C 
ATOM     12  C   UNL     1      34.135  23.401  11.058  0.00  0.00    +0.115 C 
ENDROOT
BRANCH   1  16
ATOM     13  C   UNL     1      30.291  21.738  16.004  0.00  0.00    +0.037 A 
ATOM     14  C   UNL     1      31.623  22.003  16.340  0.00  0.00    +0.014 A 
ATOM     15  C   UNL     1      32.608  21.982  15.349  0.00  0.00    +0.014 A 
ATOM     16  C   UNL     1      32.252  21.799  14.009  0.00  0.00    +0.037 A 
ATOM     17  C   UNL     1      30.937  21.432  13.690  0.00  0.00    +0.014 A 
ATOM     18  C   UNL     1      29.961  21.389  14.689  0.00  0.00    +0.014 A 
BRANCH  13  20
ATOM     19  N   UNL     1      28.421  22.937  16.992  0.00  0.00    -0.325 N 
ATOM     20  C   UNL     1      29.210  21.821  17.019  0.00  0.00    +0.242 C 
ATOM     21  O   UNL     1      29.002  20.910  17.806  0.00  0.00    -0.270 OA
ATOM     22  H   UNL     1      27.612  22.920  17.602  0.00  0.00    +0.145 HD
ATOM     23  H   UNL     1      28.390  23.556  16.195  0.00  0.00    +0.145 HD
ENDBRANCH  13  20
ENDBRANCH   1  16
TORSDOF 2
ENDMDL
MODEL 5
REMARK VINA RESULT:      -6.4      3.501      6.321
REMARK  Name = ZINC000583127796
REMARK  2 active torsions:
REMARK  status: ('A' for Active; 'I' for Inactive)
REMARK    1  A    between atoms: C_2  and  C_4
REMARK    2  A    between atoms: C_7  and  C_8
REMARK                            x       y       z     vdW  Elec       q    Type
REMARK                         _______ _______ _______ _____ _____    ______ ____
ROOT
ATOM      1  C   UNL     1      31.875  19.948  15.756  0.00  0.00    +0.247 C 
ATOM      2  O   UNL     1      32.929  20.477  16.104  0.00  0.00    -0.270 OA
ATOM      3  N   UNL     1      31.830  18.717  15.081  0.00  0.00    -0.297 N 
ATOM      4  C   UNL     1      30.626  18.010  14.637  0.00  0.00    +0.108 C 
ATOM      5  C   UNL     1      30.565  16.586  15.160  0.00  0.00    +0.020 C 
ATOM      6  C   UNL     1      31.853  15.834  14.882  0.00  0.00    +0.011 C 
ATOM      7  C   UNL     1      33.112  16.590  15.376  0.00  0.00    -0.004 C 
ATOM      8  C   UNL     1      34.338  15.776  14.911  0.00  0.00    +0.020 C 
ATOM      9  C   UNL     1      35.524  16.080  15.801  0.00  0.00    +0.070 C 
ATOM     10  S   UNL     1      34.820  16.157  17.456  0.00  0.00    -0.160 S 
ATOM     11  C   UNL     1      33.159  16.653  16.920  0.00  0.00    +0.077 C 
ATOM     12  C   UNL     1      33.095  18.026  14.782  0.00  0.00    +0.115 C 
ENDROOT
BRANCH   1  16
ATOM     13  C   UNL     1      28.458  22.057  17.231  0.00  0.00    +0.037 A 
ATOM     14  C   UNL     1      28.596  20.695  17.519  0.00  0.00    +0.014 A 
ATOM     15  C   UNL     1      29.643  19.965  16.950  0.00  0.00    +0.014 A 
ATOM     16  C   UNL     1      30.611  20.615  16.177  0.00  0.00    +0.037 A 
ATOM     17  C   UNL     1      30.413  21.952  15.806  0.00  0.00    +0.014 A 
ATOM     18  C   UNL     1      29.330  22.668  16.324  0.00  0.00    +0.014 A 
BRANCH  13  20
ATOM     19  N   UNL     1      27.698  23.433  19.087  0.00  0.00    -0.325 N 
ATOM     20  C   UNL     1      27.399  22.876  17.875  0.00  0.00    +0.242 C 
ATOM     21  O   UNL     1      26.330  23.086  17.321  0.00  0.00    -0.270 OA
ATOM     22  H   UNL     1      27.018  24.091  19.450  0.00  0.00    +0.145 HD
ATOM     23  H   UNL     1      28.647  23.509  19.425  0.00  0.00    +0.145 HD
ENDBRANCH  13  20
ENDBRANCH   1  16
TORSDOF 2
ENDMDL
MODEL 6
REMARK VINA RESULT:      -6.3      3.409      6.585
REMARK  Name = ZINC000583127796
REMARK  2 active torsions:
REMARK  status: ('A' for Active; 'I' for Inactive)
REMARK    1  A    between atoms: C_2  and  C_4
REMARK    2  A    between atoms: C_7  and  C_8
REMARK                            x       y       z     vdW  Elec       q    Type
REMARK                         _______ _______ _______ _____ _____    ______ ____
ROOT
ATOM      1  C   UNL     1      30.869  17.091  15.483  0.00  0.00    +0.247 C 
ATOM      2  O   UNL     1      30.040  16.538  14.762  0.00  0.00    -0.270 OA
ATOM      3  N   UNL     1      31.992  16.423  15.999  0.00  0.00    -0.297 N 
ATOM      4  C   UNL     1      33.031  17.000  16.856  0.00  0.00    +0.108 C 
ATOM      5  C   UNL     1      34.424  16.804  16.287  0.00  0.00    +0.020 C 
ATOM      6  C   UNL     1      34.675  15.355  15.913  0.00  0.00    +0.011 C 
ATOM      7  C   UNL     1      33.575  14.771  14.992  0.00  0.00    -0.004 C 
ATOM      8  C   UNL     1      33.891  13.271  14.808  0.00  0.00    +0.020 C 
ATOM      9  C   UNL     1      33.268  12.769  13.523  0.00  0.00    +0.070 C 
ATOM     10  S   UNL     1      33.550  14.104  12.349  0.00  0.00    -0.160 S 
ATOM     11  C   UNL     1      33.608  15.425  13.592  0.00  0.00    +0.077 C 
ATOM     12  C   UNL     1      32.191  15.005  15.660  0.00  0.00    +0.115 C 
ENDROOT
BRANCH   1  16
ATOM     13  C   UNL     1      30.005  21.242  16.050  0.00  0.00    +0.037 A 
ATOM     14  C   UNL     1      30.731  20.844  14.922  0.00  0.00    +0.014 A 
ATOM     15  C   UNL     1      31.121  19.510  14.781  0.00  0.00    +0.014 A 
ATOM     16  C   UNL     1      30.700  18.554  15.710  0.00  0.00    +0.037 A 
ATOM     17  C   UNL     1      30.065  18.971  16.889  0.00  0.00    +0.014 A 
ATOM     18  C   UNL     1      29.729  20.317  17.063  0.00  0.00    +0.014 A 
BRANCH  13  20
ATOM     19  N   UNL     1      30.291  23.626  15.662  0.00  0.00    -0.325 N 
ATOM     20  C   UNL     1      29.515  22.637  16.197  0.00  0.00    +0.242 C 
ATOM     21  O   UNL     1      28.441  22.883  16.725  0.00  0.00    -0.270 OA
ATOM     22  H   UNL     1      29.883  24.553  15.656  0.00  0.00    +0.145 HD
ATOM     23  H   UNL     1      31.021  23.434  14.990  0.00  0.00    +0.145 HD
ENDBRANCH  13  20
ENDBRANCH   1  16
TORSDOF 2
ENDMDL
MODEL 7
REMARK VINA RESULT:      -6.3      7.229      9.426
REMARK  Name = ZINC000583127796
REMARK  2 active torsions:
REMARK  status: ('A' for Active; 'I' for Inactive)
REMARK    1  A    between atoms: C_2  and  C_4
REMARK    2  A    between atoms: C_7  and  C_8
REMARK                            x       y       z     vdW  Elec       q    Type
REMARK                         _______ _______ _______ _____ _____    ______ ____
ROOT
ATOM      1  C   UNL     1      26.492  24.106  19.297  0.00  0.00    +0.247 C 
ATOM      2  O   UNL     1      26.881  24.605  20.352  0.00  0.00    -0.270 OA
ATOM      3  N   UNL     1      25.233  24.390  18.743  0.00  0.00    -0.297 N 
ATOM      4  C   UNL     1      24.689  23.851  17.494  0.00  0.00    +0.108 C 
ATOM      5  C   UNL     1      24.242  24.942  16.539  0.00  0.00    +0.020 C 
ATOM      6  C   UNL     1      23.328  25.942  17.223  0.00  0.00    +0.011 C 
ATOM      7  C   UNL     1      23.929  26.513  18.531  0.00  0.00    -0.004 C 
ATOM      8  C   UNL     1      22.844  27.402  19.176  0.00  0.00    +0.020 C 
ATOM      9  C   UNL     1      23.492  28.426  20.083  0.00  0.00    +0.070 C 
ATOM     10  S   UNL     1      24.951  28.958  19.173  0.00  0.00    -0.160 S 
ATOM     11  C   UNL     1      25.152  27.414  18.240  0.00  0.00    +0.077 C 
ATOM     12  C   UNL     1      24.343  25.328  19.447  0.00  0.00    +0.115 C 
ENDROOT
BRANCH   1  16
ATOM     13  C   UNL     1      29.253  21.407  17.457  0.00  0.00    +0.037 A 
ATOM     14  C   UNL     1      29.726  22.615  17.980  0.00  0.00    +0.014 A 
ATOM     15  C   UNL     1      28.823  23.557  18.480  0.00  0.00    +0.014 A 
ATOM     16  C   UNL     1      27.460  23.254  18.553  0.00  0.00    +0.037 A 
ATOM     17  C   UNL     1      26.979  22.091  17.934  0.00  0.00    +0.014 A 
ATOM     18  C   UNL     1      27.875  21.174  17.376  0.00  0.00    +0.014 A 
BRANCH  13  20
ATOM     19  N   UNL     1      29.916  19.069  17.360  0.00  0.00    -0.325 N 
ATOM     20  C   UNL     1      30.188  20.354  16.983  0.00  0.00    +0.242 C 
ATOM     21  O   UNL     1      31.127  20.619  16.247  0.00  0.00    -0.270 OA
ATOM     22  H   UNL     1      30.484  18.352  16.925  0.00  0.00    +0.145 HD
ATOM     23  H   UNL     1      29.013  18.793  17.720  0.00  0.00    +0.145 HD
ENDBRANCH  13  20
ENDBRANCH   1  16
TORSDOF 2
ENDMDL
MODEL 8
REMARK VINA RESULT:      -6.3      1.954      2.393
REMARK  Name = ZINC000583127796
REMARK  2 active torsions:
REMARK  status: ('A' for Active; 'I' for Inactive)
REMARK    1  A    between atoms: C_2  and  C_4
REMARK    2  A    between atoms: C_7  and  C_8
REMARK                            x       y       z     vdW  Elec       q    Type
REMARK                         _______ _______ _______ _____ _____    ______ ____
ROOT
ATOM      1  C   UNL     1      30.694  18.659  16.343  0.00  0.00    +0.247 C 
ATOM      2  O   UNL     1      30.924  18.576  17.548  0.00  0.00    -0.270 OA
ATOM      3  N   UNL     1      30.511  19.888  15.688  0.00  0.00    -0.297 N 
ATOM      4  C   UNL     1      30.241  20.084  14.261  0.00  0.00    +0.108 C 
ATOM      5  C   UNL     1      31.238  21.025  13.608  0.00  0.00    +0.020 C 
ATOM      6  C   UNL     1      31.376  22.319  14.387  0.00  0.00    +0.011 C 
ATOM      7  C   UNL     1      31.678  22.090  15.889  0.00  0.00    -0.004 C 
ATOM      8  C   UNL     1      31.658  23.476  16.569  0.00  0.00    +0.020 C 
ATOM      9  C   UNL     1      32.486  23.437  17.836  0.00  0.00    +0.070 C 
ATOM     10  S   UNL     1      33.925  22.453  17.389  0.00  0.00    -0.160 S 
ATOM     11  C   UNL     1      33.091  21.496  16.093  0.00  0.00    +0.077 C 
ATOM     12  C   UNL     1      30.605  21.131  16.473  0.00  0.00    +0.115 C 
ENDROOT
BRANCH   1  16
ATOM     13  C   UNL     1      30.658  15.232  13.784  0.00  0.00    +0.037 A 
ATOM     14  C   UNL     1      29.667  15.363  14.762  0.00  0.00    +0.014 A 
ATOM     15  C   UNL     1      29.730  16.414  15.680  0.00  0.00    +0.014 A 
ATOM     16  C   UNL     1      30.722  17.392  15.559  0.00  0.00    +0.037 A 
ATOM     17  C   UNL     1      31.770  17.202  14.647  0.00  0.00    +0.014 A 
ATOM     18  C   UNL     1      31.743  16.115  13.769  0.00  0.00    +0.014 A 
BRANCH  13  20
ATOM     19  N   UNL     1      29.682  14.351  11.738  0.00  0.00    -0.325 N 
ATOM     20  C   UNL     1      30.583  14.168  12.749  0.00  0.00    +0.242 C 
ATOM     21  O   UNL     1      31.329  13.201  12.773  0.00  0.00    -0.270 OA
ATOM     22  H   UNL     1      29.733  13.685  10.976  0.00  0.00    +0.145 HD
ATOM     23  H   UNL     1      29.265  15.251  11.544  0.00  0.00    +0.145 HD
ENDBRANCH  13  20
ENDBRANCH   1  16
TORSDOF 2
ENDMDL
MODEL 9
REMARK VINA RESULT:      -6.2      9.444     11.564
REMARK  Name = ZINC000583127796
REMARK  2 active torsions:
REMARK  status: ('A' for Active; 'I' for Inactive)
REMARK    1  A    between atoms: C_2  and  C_4
REMARK    2  A    between atoms: C_7  and  C_8
REMARK                            x       y       z     vdW  Elec       q    Type
REMARK                         _______ _______ _______ _____ _____    ______ ____
ROOT
ATOM      1  C   UNL     1      24.608  26.010  20.230  0.00  0.00    +0.247 C 
ATOM      2  O   UNL     1      24.246  25.831  21.392  0.00  0.00    -0.270 OA
ATOM      3  N   UNL     1      24.441  27.235  19.564  0.00  0.00    -0.297 N 
ATOM      4  C   UNL     1      24.846  27.541  18.189  0.00  0.00    +0.108 C 
ATOM      5  C   UNL     1      25.743  28.764  18.108  0.00  0.00    +0.020 C 
ATOM      6  C   UNL     1      25.142  29.946  18.847  0.00  0.00    +0.011 C 
ATOM      7  C   UNL     1      24.739  29.605  20.303  0.00  0.00    -0.004 C 
ATOM      8  C   UNL     1      24.029  30.851  20.877  0.00  0.00    +0.020 C 
ATOM      9  C   UNL     1      24.127  30.846  22.387  0.00  0.00    +0.070 C 
ATOM     10  S   UNL     1      25.807  30.289  22.716  0.00  0.00    -0.160 S 
ATOM     11  C   UNL     1      25.982  29.336  21.182  0.00  0.00    +0.077 C 
ATOM     12  C   UNL     1      23.815  28.356  20.285  0.00  0.00    +0.115 C 
ENDROOT
BRANCH   1  16
ATOM     13  C   UNL     1      26.939  23.079  18.163  0.00  0.00    +0.037 A 
ATOM     14  C   UNL     1      25.623  23.318  17.752  0.00  0.00    +0.014 A 
ATOM     15  C   UNL     1      24.811  24.186  18.487  0.00  0.00    +0.014 A 
ATOM     16  C   UNL     1      25.342  24.895  19.570  0.00  0.00    +0.037 A 
ATOM     17  C   UNL     1      26.624  24.576  20.040  0.00  0.00    +0.014 A 
ATOM     18  C   UNL     1      27.416  23.660  19.343  0.00  0.00    +0.014 A 
BRANCH  13  20
ATOM     19  N   UNL     1      28.848  22.846  16.674  0.00  0.00    -0.325 N 
ATOM     20  C   UNL     1      27.850  22.218  17.366  0.00  0.00    +0.242 C 
ATOM     21  O   UNL     1      27.744  21.001  17.371  0.00  0.00    -0.270 OA
ATOM     22  H   UNL     1      29.535  22.239  16.243  0.00  0.00    +0.145 HD
ATOM     23  H   UNL     1      29.125  23.797  16.874  0.00  0.00    +0.145 HD
ENDBRANCH  13  20
ENDBRANCH   1  16
TORSDOF 2
ENDMDL
