MODEL 1
REMARK VINA RESULT:      -5.8      0.000      0.000
REMARK  Name = ZINC001228612316
REMARK  5 active torsions:
REMARK  status: ('A' for Active; 'I' for Inactive)
REMARK    1  A    between atoms: C_2  and  C_4
REMARK    2  A    between atoms: C_8  and  O_9
REMARK    3  A    between atoms: O_9  and  C_10
REMARK    4  A    between atoms: C_10  and  C_11
REMARK    5  A    between atoms: C_10  and  C_17
REMARK                            x       y       z     vdW  Elec       q    Type
REMARK                         _______ _______ _______ _____ _____    ______ ____
ROOT
ATOM      1  C   UNL     1      31.181  15.113  11.497  0.00  0.00    +0.040 A 
ATOM      2  C   UNL     1      32.424  14.704  11.009  0.00  0.00    +0.013 A 
ATOM      3  C   UNL     1      33.591  15.189  11.605  0.00  0.00    +0.004 A 
ATOM      4  C   UNL     1      33.513  16.068  12.690  0.00  0.00    +0.046 A 
ATOM      5  C   UNL     1      32.270  16.472  13.186  0.00  0.00    +0.122 A 
ATOM      6  C   UNL     1      31.113  16.015  12.564  0.00  0.00    +0.058 A 
ENDROOT
BRANCH   1   8
ATOM      7  N   UNL     1      29.766  14.605   9.579  0.00  0.00    -0.325 N 
ATOM      8  C   UNL     1      29.892  14.633  10.938  0.00  0.00    +0.242 C 
ATOM      9  O   UNL     1      28.994  14.215  11.659  0.00  0.00    -0.270 OA
ATOM     10  H   UNL     1      28.939  14.139   9.225  0.00  0.00    +0.145 HD
ATOM     11  H   UNL     1      30.563  14.673   8.963  0.00  0.00    +0.145 HD
ENDBRANCH   1   8
BRANCH   5  12
ATOM     12  O   UNL     1      32.299  17.325  14.254  0.00  0.00    -0.484 OA
BRANCH  12  13
ATOM     13  C   UNL     1      33.128  18.498  14.152  0.00  0.00    +0.208 C 
BRANCH  13  14
ATOM     14  C   UNL     1      32.239  19.722  14.075  0.00  0.00    +0.011 A 
ATOM     15  C   UNL     1      31.089  19.807  14.871  0.00  0.00    +0.010 A 
ATOM     16  C   UNL     1      30.270  20.926  14.797  0.00  0.00    +0.020 A 
ATOM     17  C   UNL     1      30.628  21.937  13.923  0.00  0.00    +0.111 A 
ATOM     18  N   UNL     1      31.723  21.896  13.133  0.00  0.00    -0.263 NA
ATOM     19  C   UNL     1      32.501  20.790  13.225  0.00  0.00    +0.118 A 
ENDBRANCH  13  14
BRANCH  13  20
ATOM     20  C   UNL     1      34.038  18.583  15.357  0.00  0.00    +0.034 C 
ATOM     21  C   UNL     1      35.283  19.445  15.366  0.00  0.00    +0.008 C 
ATOM     22  C   UNL     1      35.417  17.954  15.333  0.00  0.00    +0.008 C 
ENDBRANCH  13  20
ENDBRANCH  12  13
ENDBRANCH   5  12
TORSDOF 5
ENDMDL
MODEL 2
REMARK VINA RESULT:      -5.7      6.531      8.672
REMARK  Name = ZINC001228612316
REMARK  5 active torsions:
REMARK  status: ('A' for Active; 'I' for Inactive)
REMARK    1  A    between atoms: C_2  and  C_4
REMARK    2  A    between atoms: C_8  and  O_9
REMARK    3  A    between atoms: O_9  and  C_10
REMARK    4  A    between atoms: C_10  and  C_11
REMARK    5  A    between atoms: C_10  and  C_17
REMARK                            x       y       z     vdW  Elec       q    Type
REMARK                         _______ _______ _______ _____ _____    ______ ____
ROOT
ATOM      1  C   UNL     1      31.754  22.400  16.207  0.00  0.00    +0.040 A 
ATOM      2  C   UNL     1      32.394  22.163  14.988  0.00  0.00    +0.013 A 
ATOM      3  C   UNL     1      33.694  22.634  14.790  0.00  0.00    +0.004 A 
ATOM      4  C   UNL     1      34.352  23.329  15.810  0.00  0.00    +0.046 A 
ATOM      5  C   UNL     1      33.718  23.560  17.033  0.00  0.00    +0.122 A 
ATOM      6  C   UNL     1      32.410  23.120  17.209  0.00  0.00    +0.058 A 
ENDROOT
BRANCH   1   8
ATOM      7  N   UNL     1      29.774  21.123  15.582  0.00  0.00    -0.325 N 
ATOM      8  C   UNL     1      30.382  21.918  16.510  0.00  0.00    +0.242 C 
ATOM      9  O   UNL     1      29.835  22.167  17.578  0.00  0.00    -0.270 OA
ATOM     10  H   UNL     1      28.906  20.692  15.877  0.00  0.00    +0.145 HD
ATOM     11  H   UNL     1      30.288  20.676  14.837  0.00  0.00    +0.145 HD
ENDBRANCH   1   8
BRANCH   5  12
ATOM     12  O   UNL     1      34.448  24.239  17.969  0.00  0.00    -0.484 OA
BRANCH  12  13
ATOM     13  C   UNL     1      34.345  25.675  17.985  0.00  0.00    +0.208 C 
BRANCH  13  14
ATOM     14  C   UNL     1      33.749  26.110  19.307  0.00  0.00    +0.011 A 
ATOM     15  C   UNL     1      32.368  26.009  19.524  0.00  0.00    +0.010 A 
ATOM     16  C   UNL     1      31.819  26.414  20.734  0.00  0.00    +0.020 A 
ATOM     17  C   UNL     1      32.674  26.911  21.701  0.00  0.00    +0.111 A 
ATOM     18  N   UNL     1      34.009  27.032  21.535  0.00  0.00    -0.263 NA
ATOM     19  C   UNL     1      34.515  26.632  20.342  0.00  0.00    +0.118 A 
ENDBRANCH  13  14
BRANCH  13  20
ATOM     20  C   UNL     1      35.718  26.284  17.800  0.00  0.00    +0.034 C 
ATOM     21  C   UNL     1      35.920  27.617  17.111  0.00  0.00    +0.008 C 
ATOM     22  C   UNL     1      36.354  26.359  16.426  0.00  0.00    +0.008 C 
ENDBRANCH  13  20
ENDBRANCH  12  13
ENDBRANCH   5  12
TORSDOF 5
ENDMDL
MODEL 3
REMARK VINA RESULT:      -5.6      3.424      7.217
REMARK  Name = ZINC001228612316
REMARK  5 active torsions:
REMARK  status: ('A' for Active; 'I' for Inactive)
REMARK    1  A    between atoms: C_2  and  C_4
REMARK    2  A    between atoms: C_8  and  O_9
REMARK    3  A    between atoms: O_9  and  C_10
REMARK    4  A    between atoms: C_10  and  C_11
REMARK    5  A    between atoms: C_10  and  C_17
REMARK                            x       y       z     vdW  Elec       q    Type
REMARK                         _______ _______ _______ _____ _____    ______ ____
ROOT
ATOM      1  C   UNL     1      32.128  23.011  16.404  0.00  0.00    +0.040 A 
ATOM      2  C   UNL     1      31.105  22.529  17.224  0.00  0.00    +0.013 A 
ATOM      3  C   UNL     1      30.256  21.526  16.749  0.00  0.00    +0.004 A 
ATOM      4  C   UNL     1      30.438  21.003  15.465  0.00  0.00    +0.046 A 
ATOM      5  C   UNL     1      31.465  21.477  14.645  0.00  0.00    +0.122 A 
ATOM      6  C   UNL     1      32.283  22.501  15.111  0.00  0.00    +0.058 A 
ENDROOT
BRANCH   1   8
ATOM      7  N   UNL     1      32.800  24.744  17.980  0.00  0.00    -0.325 N 
ATOM      8  C   UNL     1      33.087  24.059  16.834  0.00  0.00    +0.242 C 
ATOM      9  O   UNL     1      34.132  24.264  16.227  0.00  0.00    -0.270 OA
ATOM     10  H   UNL     1      33.538  25.345  18.327  0.00  0.00    +0.145 HD
ATOM     11  H   UNL     1      32.112  24.419  18.643  0.00  0.00    +0.145 HD
ENDBRANCH   1   8
BRANCH   5  12
ATOM     12  O   UNL     1      31.566  20.895  13.412  0.00  0.00    -0.484 OA
BRANCH  12  13
ATOM     13  C   UNL     1      32.800  20.228  13.086  0.00  0.00    +0.208 C 
BRANCH  13  14
ATOM     14  C   UNL     1      32.814  18.868  13.750  0.00  0.00    +0.011 A 
ATOM     15  C   UNL     1      31.736  17.989  13.576  0.00  0.00    +0.010 A 
ATOM     16  C   UNL     1      31.744  16.743  14.190  0.00  0.00    +0.020 A 
ATOM     17  C   UNL     1      32.840  16.408  14.966  0.00  0.00    +0.111 A 
ATOM     18  N   UNL     1      33.897  17.224  15.166  0.00  0.00    -0.263 NA
ATOM     19  C   UNL     1      33.860  18.435  14.557  0.00  0.00    +0.118 A 
ENDBRANCH  13  14
BRANCH  13  20
ATOM     20  C   UNL     1      32.917  20.083  11.585  0.00  0.00    +0.034 C 
ATOM     21  C   UNL     1      34.078  19.360  10.934  0.00  0.00    +0.008 C 
ATOM     22  C   UNL     1      33.972  20.849  10.811  0.00  0.00    +0.008 C 
ENDBRANCH  13  20
ENDBRANCH  12  13
ENDBRANCH   5  12
TORSDOF 5
ENDMDL
MODEL 4
REMARK VINA RESULT:      -5.5      2.458      6.644
REMARK  Name = ZINC001228612316
REMARK  5 active torsions:
REMARK  status: ('A' for Active; 'I' for Inactive)
REMARK    1  A    between atoms: C_2  and  C_4
REMARK    2  A    between atoms: C_8  and  O_9
REMARK    3  A    between atoms: O_9  and  C_10
REMARK    4  A    between atoms: C_10  and  C_11
REMARK    5  A    between atoms: C_10  and  C_17
REMARK                            x       y       z     vdW  Elec       q    Type
REMARK                         _______ _______ _______ _____ _____    ______ ____
ROOT
ATOM      1  C   UNL     1      32.144  22.202  15.712  0.00  0.00    +0.040 A 
ATOM      2  C   UNL     1      30.785  21.950  15.916  0.00  0.00    +0.013 A 
ATOM      3  C   UNL     1      30.212  20.793  15.381  0.00  0.00    +0.004 A 
ATOM      4  C   UNL     1      30.997  19.891  14.656  0.00  0.00    +0.046 A 
ATOM      5  C   UNL     1      32.358  20.136  14.458  0.00  0.00    +0.122 A 
ATOM      6  C   UNL     1      32.914  21.307  14.962  0.00  0.00    +0.058 A 
ENDROOT
BRANCH   1   8
ATOM      7  N   UNL     1      32.291  23.994  17.357  0.00  0.00    -0.325 N 
ATOM      8  C   UNL     1      32.840  23.393  16.261  0.00  0.00    +0.242 C 
ATOM      9  O   UNL     1      33.901  23.790  15.795  0.00  0.00    -0.270 OA
ATOM     10  H   UNL     1      32.859  24.708  17.795  0.00  0.00    +0.145 HD
ATOM     11  H   UNL     1      31.591  23.540  17.925  0.00  0.00    +0.145 HD
ENDBRANCH   1   8
BRANCH   5  12
ATOM     12  O   UNL     1      33.041  19.190  13.745  0.00  0.00    -0.484 OA
BRANCH  12  13
ATOM     13  C   UNL     1      33.090  17.855  14.281  0.00  0.00    +0.208 C 
BRANCH  13  14
ATOM     14  C   UNL     1      32.656  16.878  13.207  0.00  0.00    +0.011 A 
ATOM     15  C   UNL     1      31.315  16.482  13.117  0.00  0.00    +0.010 A 
ATOM     16  C   UNL     1      30.917  15.582  12.137  0.00  0.00    +0.020 A 
ATOM     17  C   UNL     1      31.879  15.101  11.267  0.00  0.00    +0.111 A 
ATOM     18  N   UNL     1      33.182  15.451  11.319  0.00  0.00    -0.263 NA
ATOM     19  C   UNL     1      33.542  16.328  12.289  0.00  0.00    +0.118 A 
ENDBRANCH  13  14
BRANCH  13  20
ATOM     20  C   UNL     1      34.497  17.543  14.738  0.00  0.00    +0.034 C 
ATOM     21  C   UNL     1      34.777  16.644  15.924  0.00  0.00    +0.008 C 
ATOM     22  C   UNL     1      35.035  18.115  16.035  0.00  0.00    +0.008 C 
ENDBRANCH  13  20
ENDBRANCH  12  13
ENDBRANCH   5  12
TORSDOF 5
ENDMDL
MODEL 5
REMARK VINA RESULT:      -5.4      4.693      7.430
REMARK  Name = ZINC001228612316
REMARK  5 active torsions:
REMARK  status: ('A' for Active; 'I' for Inactive)
REMARK    1  A    between atoms: C_2  and  C_4
REMARK    2  A    between atoms: C_8  and  O_9
REMARK    3  A    between atoms: O_9  and  C_10
REMARK    4  A    between atoms: C_10  and  C_11
REMARK    5  A    between atoms: C_10  and  C_17
REMARK                            x       y       z     vdW  Elec       q    Type
REMARK                         _______ _______ _______ _____ _____    ______ ____
ROOT
ATOM      1  C   UNL     1      31.324  21.431  14.647  0.00  0.00    +0.040 A 
ATOM      2  C   UNL     1      30.371  20.980  15.564  0.00  0.00    +0.013 A 
ATOM      3  C   UNL     1      30.304  21.564  16.832  0.00  0.00    +0.004 A 
ATOM      4  C   UNL     1      31.179  22.600  17.174  0.00  0.00    +0.046 A 
ATOM      5  C   UNL     1      32.127  23.060  16.256  0.00  0.00    +0.122 A 
ATOM      6  C   UNL     1      32.212  22.448  15.009  0.00  0.00    +0.058 A 
ENDROOT
BRANCH   1   8
ATOM      7  N   UNL     1      32.167  21.611  12.368  0.00  0.00    -0.325 N 
ATOM      8  C   UNL     1      31.452  20.882  13.274  0.00  0.00    +0.242 C 
ATOM      9  O   UNL     1      30.992  19.786  12.973  0.00  0.00    -0.270 OA
ATOM     10  H   UNL     1      32.361  21.147  11.488  0.00  0.00    +0.145 HD
ATOM     11  H   UNL     1      32.783  22.361  12.646  0.00  0.00    +0.145 HD
ENDBRANCH   1   8
BRANCH   5  12
ATOM     12  O   UNL     1      32.929  24.083  16.682  0.00  0.00    -0.484 OA
BRANCH  12  13
ATOM     13  C   UNL     1      33.339  24.081  18.062  0.00  0.00    +0.208 C 
BRANCH  13  14
ATOM     14  C   UNL     1      34.721  23.468  18.162  0.00  0.00    +0.011 A 
ATOM     15  C   UNL     1      34.960  22.416  19.056  0.00  0.00    +0.010 A 
ATOM     16  C   UNL     1      36.228  21.857  19.154  0.00  0.00    +0.020 A 
ATOM     17  C   UNL     1      37.228  22.369  18.346  0.00  0.00    +0.111 A 
ATOM     18  N   UNL     1      37.044  23.384  17.474  0.00  0.00    -0.263 NA
ATOM     19  C   UNL     1      35.798  23.912  17.403  0.00  0.00    +0.118 A 
ENDBRANCH  13  14
BRANCH  13  20
ATOM     20  C   UNL     1      33.353  25.499  18.589  0.00  0.00    +0.034 C 
ATOM     21  C   UNL     1      33.869  25.838  19.971  0.00  0.00    +0.008 C 
ATOM     22  C   UNL     1      32.401  25.926  19.689  0.00  0.00    +0.008 C 
ENDBRANCH  13  20
ENDBRANCH  12  13
ENDBRANCH   5  12
TORSDOF 5
ENDMDL
MODEL 6
REMARK VINA RESULT:      -5.4      2.662      6.335
REMARK  Name = ZINC001228612316
REMARK  5 active torsions:
REMARK  status: ('A' for Active; 'I' for Inactive)
REMARK    1  A    between atoms: C_2  and  C_4
REMARK    2  A    between atoms: C_8  and  O_9
REMARK    3  A    between atoms: O_9  and  C_10
REMARK    4  A    between atoms: C_10  and  C_11
REMARK    5  A    between atoms: C_10  and  C_17
REMARK                            x       y       z     vdW  Elec       q    Type
REMARK                         _______ _______ _______ _____ _____    ______ ____
ROOT
ATOM      1  C   UNL     1      30.989  21.526  15.457  0.00  0.00    +0.040 A 
ATOM      2  C   UNL     1      30.882  22.188  14.231  0.00  0.00    +0.013 A 
ATOM      3  C   UNL     1      30.889  21.448  13.046  0.00  0.00    +0.004 A 
ATOM      4  C   UNL     1      30.992  20.053  13.090  0.00  0.00    +0.046 A 
ATOM      5  C   UNL     1      31.091  19.388  14.315  0.00  0.00    +0.122 A 
ATOM      6  C   UNL     1      31.120  20.134  15.488  0.00  0.00    +0.058 A 
ENDROOT
BRANCH   1   8
ATOM      7  N   UNL     1      31.740  23.351  16.888  0.00  0.00    -0.325 N 
ATOM      8  C   UNL     1      30.969  22.231  16.764  0.00  0.00    +0.242 C 
ATOM      9  O   UNL     1      30.243  21.866  17.680  0.00  0.00    -0.270 OA
ATOM     10  H   UNL     1      31.596  23.890  17.733  0.00  0.00    +0.145 HD
ATOM     11  H   UNL     1      32.124  23.831  16.087  0.00  0.00    +0.145 HD
ENDBRANCH   1   8
BRANCH   5  12
ATOM     12  O   UNL     1      31.176  18.025  14.252  0.00  0.00    -0.484 OA
BRANCH  12  13
ATOM     13  C   UNL     1      32.217  17.457  13.434  0.00  0.00    +0.208 C 
BRANCH  13  14
ATOM     14  C   UNL     1      33.530  17.537  14.184  0.00  0.00    +0.011 A 
ATOM     15  C   UNL     1      33.682  16.873  15.409  0.00  0.00    +0.010 A 
ATOM     16  C   UNL     1      34.883  16.951  16.102  0.00  0.00    +0.020 A 
ATOM     17  C   UNL     1      35.907  17.695  15.544  0.00  0.00    +0.111 A 
ATOM     18  N   UNL     1      35.804  18.355  14.370  0.00  0.00    -0.263 NA
ATOM     19  C   UNL     1      34.619  18.264  13.719  0.00  0.00    +0.118 A 
ENDBRANCH  13  14
BRANCH  13  20
ATOM     20  C   UNL     1      31.880  16.017  13.114  0.00  0.00    +0.034 C 
ATOM     21  C   UNL     1      32.315  15.359  11.821  0.00  0.00    +0.008 C 
ATOM     22  C   UNL     1      30.868  15.679  12.037  0.00  0.00    +0.008 C 
ENDBRANCH  13  20
ENDBRANCH  12  13
ENDBRANCH   5  12
TORSDOF 5
ENDMDL
MODEL 7
REMARK VINA RESULT:      -5.4      2.227      6.110
REMARK  Name = ZINC001228612316
REMARK  5 active torsions:
REMARK  status: ('A' for Active; 'I' for Inactive)
REMARK    1  A    between atoms: C_2  and  C_4
REMARK    2  A    between atoms: C_8  and  O_9
REMARK    3  A    between atoms: O_9  and  C_10
REMARK    4  A    between atoms: C_10  and  C_11
REMARK    5  A    between atoms: C_10  and  C_17
REMARK                            x       y       z     vdW  Elec       q    Type
REMARK                         _______ _______ _______ _____ _____    ______ ____
ROOT
ATOM      1  C   UNL     1      31.828  21.397  15.391  0.00  0.00    +0.040 A 
ATOM      2  C   UNL     1      32.888  22.303  15.303  0.00  0.00    +0.013 A 
ATOM      3  C   UNL     1      33.956  22.032  14.444  0.00  0.00    +0.004 A 
ATOM      4  C   UNL     1      33.956  20.867  13.670  0.00  0.00    +0.046 A 
ATOM      5  C   UNL     1      32.893  19.964  13.749  0.00  0.00    +0.122 A 
ATOM      6  C   UNL     1      31.851  20.222  14.634  0.00  0.00    +0.058 A 
ENDROOT
BRANCH   1   8
ATOM      7  N   UNL     1      29.447  21.124  15.831  0.00  0.00    -0.325 N 
ATOM      8  C   UNL     1      30.645  21.615  16.262  0.00  0.00    +0.242 C 
ATOM      9  O   UNL     1      30.743  22.156  17.357  0.00  0.00    -0.270 OA
ATOM     10  H   UNL     1      28.692  21.157  16.506  0.00  0.00    +0.145 HD
ATOM     11  H   UNL     1      29.380  20.444  15.088  0.00  0.00    +0.145 HD
ENDBRANCH   1   8
BRANCH   5  12
ATOM     12  O   UNL     1      32.981  18.860  12.946  0.00  0.00    -0.484 OA
BRANCH  12  13
ATOM     13  C   UNL     1      32.831  17.569  13.564  0.00  0.00    +0.208 C 
BRANCH  13  14
ATOM     14  C   UNL     1      32.408  16.566  12.510  0.00  0.00    +0.011 A 
ATOM     15  C   UNL     1      31.116  16.025  12.533  0.00  0.00    +0.010 A 
ATOM     16  C   UNL     1      30.729  15.100  11.571  0.00  0.00    +0.020 A 
ATOM     17  C   UNL     1      31.653  14.743  10.605  0.00  0.00    +0.111 A 
ATOM     18  N   UNL     1      32.910  15.234  10.548  0.00  0.00    -0.263 NA
ATOM     19  C   UNL     1      33.260  16.131  11.502  0.00  0.00    +0.118 A 
ENDBRANCH  13  14
BRANCH  13  20
ATOM     20  C   UNL     1      34.142  17.151  14.192  0.00  0.00    +0.034 C 
ATOM     21  C   UNL     1      34.254  15.934  15.087  0.00  0.00    +0.008 C 
ATOM     22  C   UNL     1      34.369  17.303  15.684  0.00  0.00    +0.008 C 
ENDBRANCH  13  20
ENDBRANCH  12  13
ENDBRANCH   5  12
TORSDOF 5
ENDMDL
MODEL 8
REMARK VINA RESULT:      -5.4      4.793      6.768
REMARK  Name = ZINC001228612316
REMARK  5 active torsions:
REMARK  status: ('A' for Active; 'I' for Inactive)
REMARK    1  A    between atoms: C_2  and  C_4
REMARK    2  A    between atoms: C_8  and  O_9
REMARK    3  A    between atoms: O_9  and  C_10
REMARK    4  A    between atoms: C_10  and  C_11
REMARK    5  A    between atoms: C_10  and  C_17
REMARK                            x       y       z     vdW  Elec       q    Type
REMARK                         _______ _______ _______ _____ _____    ______ ____
ROOT
ATOM      1  C   UNL     1      31.380  21.479  15.345  0.00  0.00    +0.040 A 
ATOM      2  C   UNL     1      30.627  20.355  14.997  0.00  0.00    +0.013 A 
ATOM      3  C   UNL     1      30.960  19.631  13.848  0.00  0.00    +0.004 A 
ATOM      4  C   UNL     1      32.046  20.026  13.061  0.00  0.00    +0.046 A 
ATOM      5  C   UNL     1      32.806  21.144  13.411  0.00  0.00    +0.122 A 
ATOM      6  C   UNL     1      32.447  21.880  14.535  0.00  0.00    +0.058 A 
ENDROOT
BRANCH   1   8
ATOM      7  N   UNL     1      31.747  23.495  16.664  0.00  0.00    -0.325 N 
ATOM      8  C   UNL     1      31.110  22.292  16.557  0.00  0.00    +0.242 C 
ATOM      9  O   UNL     1      30.298  21.936  17.403  0.00  0.00    -0.270 OA
ATOM     10  H   UNL     1      31.435  24.090  17.422  0.00  0.00    +0.145 HD
ATOM     11  H   UNL     1      32.195  23.939  15.875  0.00  0.00    +0.145 HD
ENDBRANCH   1   8
BRANCH   5  12
ATOM     12  O   UNL     1      33.853  21.442  12.583  0.00  0.00    -0.484 OA
BRANCH  12  13
ATOM     13  C   UNL     1      33.547  21.835  11.232  0.00  0.00    +0.208 C 
BRANCH  13  14
ATOM     14  C   UNL     1      34.049  23.245  11.006  0.00  0.00    +0.011 A 
ATOM     15  C   UNL     1      33.367  24.103  10.133  0.00  0.00    +0.010 A 
ATOM     16  C   UNL     1      33.830  25.395   9.919  0.00  0.00    +0.020 A 
ATOM     17  C   UNL     1      34.971  25.796  10.591  0.00  0.00    +0.111 A 
ATOM     18  N   UNL     1      35.663  25.003  11.437  0.00  0.00    -0.263 NA
ATOM     19  C   UNL     1      35.190  23.746  11.623  0.00  0.00    +0.118 A 
ENDBRANCH  13  14
BRANCH  13  20
ATOM     20  C   UNL     1      34.208  20.879  10.264  0.00  0.00    +0.034 C 
ATOM     21  C   UNL     1      33.851  20.850   8.792  0.00  0.00    +0.008 C 
ATOM     22  C   UNL     1      33.435  19.715   9.675  0.00  0.00    +0.008 C 
ENDBRANCH  13  20
ENDBRANCH  12  13
ENDBRANCH   5  12
TORSDOF 5
ENDMDL
MODEL 9
REMARK VINA RESULT:      -5.3      6.062      8.109
REMARK  Name = ZINC001228612316
REMARK  5 active torsions:
REMARK  status: ('A' for Active; 'I' for Inactive)
REMARK    1  A    between atoms: C_2  and  C_4
REMARK    2  A    between atoms: C_8  and  O_9
REMARK    3  A    between atoms: O_9  and  C_10
REMARK    4  A    between atoms: C_10  and  C_11
REMARK    5  A    between atoms: C_10  and  C_17
REMARK                            x       y       z     vdW  Elec       q    Type
REMARK                         _______ _______ _______ _____ _____    ______ ____
ROOT
ATOM      1  C   UNL     1      31.764  22.311  14.983  0.00  0.00    +0.040 A 
ATOM      2  C   UNL     1      32.911  22.228  14.189  0.00  0.00    +0.013 A 
ATOM      3  C   UNL     1      34.069  22.905  14.578  0.00  0.00    +0.004 A 
ATOM      4  C   UNL     1      34.082  23.652  15.760  0.00  0.00    +0.046 A 
ATOM      5  C   UNL     1      32.940  23.730  16.562  0.00  0.00    +0.122 A 
ATOM      6  C   UNL     1      31.780  23.083  16.149  0.00  0.00    +0.058 A 
ENDROOT
BRANCH   1   8
ATOM      7  N   UNL     1      29.676  21.276  15.695  0.00  0.00    -0.325 N 
ATOM      8  C   UNL     1      30.498  21.608  14.657  0.00  0.00    +0.242 C 
ATOM      9  O   UNL     1      30.164  21.388  13.499  0.00  0.00    -0.270 OA
ATOM     10  H   UNL     1      28.760  20.932  15.435  0.00  0.00    +0.145 HD
ATOM     11  H   UNL     1      29.780  21.680  16.614  0.00  0.00    +0.145 HD
ENDBRANCH   1   8
BRANCH   5  12
ATOM     12  O   UNL     1      33.056  24.476  17.702  0.00  0.00    -0.484 OA
BRANCH  12  13
ATOM     13  C   UNL     1      34.336  24.493  18.362  0.00  0.00    +0.208 C 
BRANCH  13  14
ATOM     14  C   UNL     1      34.367  25.647  19.342  0.00  0.00    +0.011 A 
ATOM     15  C   UNL     1      33.289  25.861  20.211  0.00  0.00    +0.010 A 
ATOM     16  C   UNL     1      33.314  26.923  21.106  0.00  0.00    +0.020 A 
ATOM     17  C   UNL     1      34.426  27.746  21.107  0.00  0.00    +0.111 A 
ATOM     18  N   UNL     1      35.484  27.581  20.285  0.00  0.00    -0.263 NA
ATOM     19  C   UNL     1      35.430  26.539  19.420  0.00  0.00    +0.118 A 
ENDBRANCH  13  14
BRANCH  13  20
ATOM     20  C   UNL     1      34.551  23.182  19.086  0.00  0.00    +0.034 C 
ATOM     21  C   UNL     1      35.680  22.985  20.076  0.00  0.00    +0.008 C 
ATOM     22  C   UNL     1      35.733  22.295  18.748  0.00  0.00    +0.008 C 
ENDBRANCH  13  20
ENDBRANCH  12  13
ENDBRANCH   5  12
TORSDOF 5
ENDMDL
