MODEL 1
REMARK VINA RESULT:      -7.5      0.000      0.000
REMARK  Name = ZINC000583127796
REMARK  2 active torsions:
REMARK  status: ('A' for Active; 'I' for Inactive)
REMARK    1  A    between atoms: C_2  and  C_4
REMARK    2  A    between atoms: C_7  and  C_8
REMARK                            x       y       z     vdW  Elec       q    Type
REMARK                         _______ _______ _______ _____ _____    ______ ____
ROOT
ATOM      1  C   UNL     1      31.669  22.540  14.136  0.00  0.00    +0.247 C 
ATOM      2  O   UNL     1      32.628  21.770  14.051  0.00  0.00    -0.270 OA
ATOM      3  N   UNL     1      31.649  23.804  13.527  0.00  0.00    -0.297 N 
ATOM      4  C   UNL     1      30.561  24.782  13.576  0.00  0.00    +0.108 C 
ATOM      5  C   UNL     1      30.112  25.226  12.196  0.00  0.00    +0.020 C 
ATOM      6  C   UNL     1      31.285  25.652  11.334  0.00  0.00    +0.011 C 
ATOM      7  C   UNL     1      32.416  24.596  11.283  0.00  0.00    -0.004 C 
ATOM      8  C   UNL     1      33.582  25.228  10.493  0.00  0.00    +0.020 C 
ATOM      9  C   UNL     1      34.443  24.143   9.885  0.00  0.00    +0.070 C 
ATOM     10  S   UNL     1      33.262  22.912   9.313  0.00  0.00    -0.160 S 
ATOM     11  C   UNL     1      31.971  23.328  10.520  0.00  0.00    +0.077 C 
ATOM     12  C   UNL     1      32.820  24.226  12.735  0.00  0.00    +0.115 C 
ENDROOT
BRANCH   1  16
ATOM     13  C   UNL     1      28.394  20.812  16.286  0.00  0.00    +0.037 A 
ATOM     14  C   UNL     1      28.343  20.863  14.891  0.00  0.00    +0.014 A 
ATOM     15  C   UNL     1      29.345  21.530  14.183  0.00  0.00    +0.014 A 
ATOM     16  C   UNL     1      30.455  22.044  14.856  0.00  0.00    +0.037 A 
ATOM     17  C   UNL     1      30.457  22.078  16.257  0.00  0.00    +0.014 A 
ATOM     18  C   UNL     1      29.418  21.472  16.972  0.00  0.00    +0.014 A 
BRANCH  13  20
ATOM     19  N   UNL     1      27.652  18.754  17.348  0.00  0.00    -0.325 N 
ATOM     20  C   UNL     1      27.372  20.063  17.066  0.00  0.00    +0.242 C 
ATOM     21  O   UNL     1      26.359  20.602  17.479  0.00  0.00    -0.270 OA
ATOM     22  H   UNL     1      27.012  18.291  17.980  0.00  0.00    +0.145 HD
ATOM     23  H   UNL     1      28.585  18.372  17.271  0.00  0.00    +0.145 HD
ENDBRANCH  13  20
ENDBRANCH   1  16
TORSDOF 2
ENDMDL
MODEL 2
REMARK VINA RESULT:      -7.4      0.499      1.166
REMARK  Name = ZINC000583127796
REMARK  2 active torsions:
REMARK  status: ('A' for Active; 'I' for Inactive)
REMARK    1  A    between atoms: C_2  and  C_4
REMARK    2  A    between atoms: C_7  and  C_8
REMARK                            x       y       z     vdW  Elec       q    Type
REMARK                         _______ _______ _______ _____ _____    ______ ____
ROOT
ATOM      1  C   UNL     1      31.669  22.520  14.307  0.00  0.00    +0.247 C 
ATOM      2  O   UNL     1      32.704  21.858  14.207  0.00  0.00    -0.270 OA
ATOM      3  N   UNL     1      31.507  23.777  13.704  0.00  0.00    -0.297 N 
ATOM      4  C   UNL     1      30.321  24.632  13.770  0.00  0.00    +0.108 C 
ATOM      5  C   UNL     1      29.811  25.031  12.398  0.00  0.00    +0.020 C 
ATOM      6  C   UNL     1      30.922  25.583  11.524  0.00  0.00    +0.011 C 
ATOM      7  C   UNL     1      32.159  24.655  11.455  0.00  0.00    -0.004 C 
ATOM      8  C   UNL     1      33.241  25.411  10.655  0.00  0.00    +0.020 C 
ATOM      9  C   UNL     1      34.206  24.427  10.033  0.00  0.00    +0.070 C 
ATOM     10  S   UNL     1      33.157  23.078   9.469  0.00  0.00    -0.160 S 
ATOM     11  C   UNL     1      31.844  23.349  10.692  0.00  0.00    +0.077 C 
ATOM     12  C   UNL     1      32.617  24.326  12.901  0.00  0.00    +0.115 C 
ENDROOT
BRANCH   1  16
ATOM     13  C   UNL     1      28.197  21.048  16.334  0.00  0.00    +0.037 A 
ATOM     14  C   UNL     1      29.319  21.416  17.082  0.00  0.00    +0.014 A 
ATOM     15  C   UNL     1      30.498  21.783  16.429  0.00  0.00    +0.014 A 
ATOM     16  C   UNL     1      30.525  21.895  15.038  0.00  0.00    +0.037 A 
ATOM     17  C   UNL     1      29.433  21.433  14.289  0.00  0.00    +0.014 A 
ATOM     18  C   UNL     1      28.273  20.999  14.939  0.00  0.00    +0.014 A 
BRANCH  13  20
ATOM     19  N   UNL     1      26.450  19.430  16.825  0.00  0.00    -0.325 N 
ATOM     20  C   UNL     1      26.910  20.706  16.997  0.00  0.00    +0.242 C 
ATOM     21  O   UNL     1      26.320  21.507  17.703  0.00  0.00    -0.270 OA
ATOM     22  H   UNL     1      25.642  19.172  17.378  0.00  0.00    +0.145 HD
ATOM     23  H   UNL     1      27.044  18.681  16.496  0.00  0.00    +0.145 HD
ENDBRANCH  13  20
ENDBRANCH   1  16
TORSDOF 2
ENDMDL
MODEL 3
REMARK VINA RESULT:      -6.6      3.189      5.307
REMARK  Name = ZINC000583127796
REMARK  2 active torsions:
REMARK  status: ('A' for Active; 'I' for Inactive)
REMARK    1  A    between atoms: C_2  and  C_4
REMARK    2  A    between atoms: C_7  and  C_8
REMARK                            x       y       z     vdW  Elec       q    Type
REMARK                         _______ _______ _______ _____ _____    ______ ____
ROOT
ATOM      1  C   UNL     1      33.684  24.022  10.019  0.00  0.00    +0.247 C 
ATOM      2  O   UNL     1      34.538  24.909  10.073  0.00  0.00    -0.270 OA
ATOM      3  N   UNL     1      33.673  23.035   9.021  0.00  0.00    -0.297 N 
ATOM      4  C   UNL     1      32.703  21.949   8.874  0.00  0.00    +0.108 C 
ATOM      5  C   UNL     1      33.360  20.583   8.804  0.00  0.00    +0.020 C 
ATOM      6  C   UNL     1      34.480  20.551   7.781  0.00  0.00    +0.011 C 
ATOM      7  C   UNL     1      35.504  21.698   7.964  0.00  0.00    -0.004 C 
ATOM      8  C   UNL     1      36.488  21.613   6.778  0.00  0.00    +0.020 C 
ATOM      9  C   UNL     1      37.807  22.251   7.154  0.00  0.00    +0.070 C 
ATOM     10  S   UNL     1      38.080  21.729   8.854  0.00  0.00    -0.160 S 
ATOM     11  C   UNL     1      36.323  21.522   9.262  0.00  0.00    +0.077 C 
ATOM     12  C   UNL     1      34.739  23.049   8.000  0.00  0.00    +0.115 C 
ENDROOT
BRANCH   1  16
ATOM     13  C   UNL     1      30.719  23.522  13.066  0.00  0.00    +0.037 A 
ATOM     14  C   UNL     1      30.455  24.374  11.990  0.00  0.00    +0.014 A 
ATOM     15  C   UNL     1      31.455  24.640  11.053  0.00  0.00    +0.014 A 
ATOM     16  C   UNL     1      32.678  23.970  11.124  0.00  0.00    +0.037 A 
ATOM     17  C   UNL     1      32.974  23.194  12.253  0.00  0.00    +0.014 A 
ATOM     18  C   UNL     1      31.997  22.981  13.230  0.00  0.00    +0.014 A 
BRANCH  13  20
ATOM     19  N   UNL     1      29.429  24.077  15.051  0.00  0.00    -0.325 N 
ATOM     20  C   UNL     1      29.658  23.175  14.050  0.00  0.00    +0.242 C 
ATOM     21  O   UNL     1      28.988  22.162  13.939  0.00  0.00    -0.270 OA
ATOM     22  H   UNL     1      28.627  23.892  15.640  0.00  0.00    +0.145 HD
ATOM     23  H   UNL     1      29.758  25.032  15.005  0.00  0.00    +0.145 HD
ENDBRANCH  13  20
ENDBRANCH   1  16
TORSDOF 2
ENDMDL
MODEL 4
REMARK VINA RESULT:      -6.5      2.066      3.035
REMARK  Name = ZINC000583127796
REMARK  2 active torsions:
REMARK  status: ('A' for Active; 'I' for Inactive)
REMARK    1  A    between atoms: C_2  and  C_4
REMARK    2  A    between atoms: C_7  and  C_8
REMARK                            x       y       z     vdW  Elec       q    Type
REMARK                         _______ _______ _______ _____ _____    ______ ____
ROOT
ATOM      1  C   UNL     1      31.070  23.175  13.761  0.00  0.00    +0.247 C 
ATOM      2  O   UNL     1      30.754  24.366  13.739  0.00  0.00    -0.270 OA
ATOM      3  N   UNL     1      32.167  22.664  13.051  0.00  0.00    -0.297 N 
ATOM      4  C   UNL     1      32.614  21.270  13.015  0.00  0.00    +0.108 C 
ATOM      5  C   UNL     1      34.074  21.114  13.397  0.00  0.00    +0.020 C 
ATOM      6  C   UNL     1      34.963  22.067  12.619  0.00  0.00    +0.011 C 
ATOM      7  C   UNL     1      34.482  23.537  12.685  0.00  0.00    -0.004 C 
ATOM      8  C   UNL     1      35.395  24.348  11.741  0.00  0.00    +0.020 C 
ATOM      9  C   UNL     1      35.418  25.800  12.167  0.00  0.00    +0.070 C 
ATOM     10  S   UNL     1      35.469  25.731  13.964  0.00  0.00    -0.160 S 
ATOM     11  C   UNL     1      34.644  24.121  14.106  0.00  0.00    +0.077 C 
ATOM     12  C   UNL     1      32.991  23.594  12.256  0.00  0.00    +0.115 C 
ENDROOT
BRANCH   1  16
ATOM     13  C   UNL     1      28.546  20.863  16.332  0.00  0.00    +0.037 A 
ATOM     14  C   UNL     1      29.702  21.446  16.857  0.00  0.00    +0.014 A 
ATOM     15  C   UNL     1      30.595  22.101  16.007  0.00  0.00    +0.014 A 
ATOM     16  C   UNL     1      30.282  22.274  14.657  0.00  0.00    +0.037 A 
ATOM     17  C   UNL     1      29.174  21.605  14.117  0.00  0.00    +0.014 A 
ATOM     18  C   UNL     1      28.313  20.890  14.955  0.00  0.00    +0.014 A 
BRANCH  13  20
ATOM     19  N   UNL     1      27.702  18.865  17.434  0.00  0.00    -0.325 N 
ATOM     20  C   UNL     1      27.546  20.207  17.219  0.00  0.00    +0.242 C 
ATOM     21  O   UNL     1      26.663  20.842  17.769  0.00  0.00    -0.270 OA
ATOM     22  H   UNL     1      27.094  18.455  18.132  0.00  0.00    +0.145 HD
ATOM     23  H   UNL     1      28.567  18.382  17.231  0.00  0.00    +0.145 HD
ENDBRANCH  13  20
ENDBRANCH   1  16
TORSDOF 2
ENDMDL
MODEL 5
REMARK VINA RESULT:      -6.2      3.279      7.296
REMARK  Name = ZINC000583127796
REMARK  2 active torsions:
REMARK  status: ('A' for Active; 'I' for Inactive)
REMARK    1  A    between atoms: C_2  and  C_4
REMARK    2  A    between atoms: C_7  and  C_8
REMARK                            x       y       z     vdW  Elec       q    Type
REMARK                         _______ _______ _______ _____ _____    ______ ____
ROOT
ATOM      1  C   UNL     1      30.411  23.827  13.102  0.00  0.00    +0.247 C 
ATOM      2  O   UNL     1      29.253  24.000  12.719  0.00  0.00    -0.270 OA
ATOM      3  N   UNL     1      30.765  23.763  14.459  0.00  0.00    -0.297 N 
ATOM      4  C   UNL     1      32.109  23.565  15.004  0.00  0.00    +0.108 C 
ATOM      5  C   UNL     1      32.180  22.397  15.971  0.00  0.00    +0.020 C 
ATOM      6  C   UNL     1      31.091  22.473  17.025  0.00  0.00    +0.011 C 
ATOM      7  C   UNL     1      29.677  22.666  16.425  0.00  0.00    -0.004 C 
ATOM      8  C   UNL     1      28.711  22.865  17.613  0.00  0.00    +0.020 C 
ATOM      9  C   UNL     1      27.308  22.470  17.209  0.00  0.00    +0.070 C 
ATOM     10  S   UNL     1      27.537  20.994  16.207  0.00  0.00    -0.160 S 
ATOM     11  C   UNL     1      29.214  21.410  15.654  0.00  0.00    +0.077 C 
ATOM     12  C   UNL     1      29.702  23.893  15.474  0.00  0.00    +0.115 C 
ENDROOT
BRANCH   1  16
ATOM     13  C   UNL     1      33.124  22.979   9.900  0.00  0.00    +0.037 A 
ATOM     14  C   UNL     1      33.261  22.293  11.110  0.00  0.00    +0.014 A 
ATOM     15  C   UNL     1      32.462  22.644  12.201  0.00  0.00    +0.014 A 
ATOM     16  C   UNL     1      31.452  23.595  12.053  0.00  0.00    +0.037 A 
ATOM     17  C   UNL     1      31.381  24.347  10.872  0.00  0.00    +0.014 A 
ATOM     18  C   UNL     1      32.227  24.046   9.800  0.00  0.00    +0.014 A 
BRANCH  13  20
ATOM     19  N   UNL     1      34.705  23.565   8.148  0.00  0.00    -0.325 N 
ATOM     20  C   UNL     1      33.921  22.593   8.704  0.00  0.00    +0.242 C 
ATOM     21  O   UNL     1      33.916  21.453   8.272  0.00  0.00    -0.270 OA
ATOM     22  H   UNL     1      35.333  23.262   7.414  0.00  0.00    +0.145 HD
ATOM     23  H   UNL     1      34.946  24.414   8.641  0.00  0.00    +0.145 HD
ENDBRANCH  13  20
ENDBRANCH   1  16
TORSDOF 2
ENDMDL
MODEL 6
REMARK VINA RESULT:      -6.1      3.523      7.857
REMARK  Name = ZINC000583127796
REMARK  2 active torsions:
REMARK  status: ('A' for Active; 'I' for Inactive)
REMARK    1  A    between atoms: C_2  and  C_4
REMARK    2  A    between atoms: C_7  and  C_8
REMARK                            x       y       z     vdW  Elec       q    Type
REMARK                         _______ _______ _______ _____ _____    ______ ____
ROOT
ATOM      1  C   UNL     1      32.522  23.891  11.982  0.00  0.00    +0.247 C 
ATOM      2  O   UNL     1      31.529  24.601  11.808  0.00  0.00    -0.270 OA
ATOM      3  N   UNL     1      32.876  23.372  13.237  0.00  0.00    -0.297 N 
ATOM      4  C   UNL     1      34.033  22.527  13.539  0.00  0.00    +0.108 C 
ATOM      5  C   UNL     1      33.647  21.236  14.238  0.00  0.00    +0.020 C 
ATOM      6  C   UNL     1      32.742  21.491  15.429  0.00  0.00    +0.011 C 
ATOM      7  C   UNL     1      31.517  22.373  15.083  0.00  0.00    -0.004 C 
ATOM      8  C   UNL     1      30.781  22.655  16.410  0.00  0.00    +0.020 C 
ATOM      9  C   UNL     1      29.326  22.966  16.138  0.00  0.00    +0.070 C 
ATOM     10  S   UNL     1      28.862  21.806  14.844  0.00  0.00    -0.160 S 
ATOM     11  C   UNL     1      30.531  21.630  14.153  0.00  0.00    +0.077 C 
ATOM     12  C   UNL     1      32.015  23.673  14.397  0.00  0.00    +0.115 C 
ENDROOT
BRANCH   1  16
ATOM     13  C   UNL     1      34.621  23.097   8.336  0.00  0.00    +0.037 A 
ATOM     14  C   UNL     1      33.631  22.207   8.761  0.00  0.00    +0.014 A 
ATOM     15  C   UNL     1      33.023  22.388  10.005  0.00  0.00    +0.014 A 
ATOM     16  C   UNL     1      33.317  23.516  10.773  0.00  0.00    +0.037 A 
ATOM     17  C   UNL     1      34.376  24.352  10.391  0.00  0.00    +0.014 A 
ATOM     18  C   UNL     1      35.036  24.133   9.177  0.00  0.00    +0.014 A 
BRANCH  13  20
ATOM     19  N   UNL     1      35.582  24.126   6.354  0.00  0.00    -0.325 N 
ATOM     20  C   UNL     1      35.248  22.965   6.993  0.00  0.00    +0.242 C 
ATOM     21  O   UNL     1      35.500  21.874   6.509  0.00  0.00    -0.270 OA
ATOM     22  H   UNL     1      36.118  24.024   5.501  0.00  0.00    +0.145 HD
ATOM     23  H   UNL     1      35.650  25.011   6.839  0.00  0.00    +0.145 HD
ENDBRANCH  13  20
ENDBRANCH   1  16
TORSDOF 2
ENDMDL
MODEL 7
REMARK VINA RESULT:      -6.0      2.538      3.167
REMARK  Name = ZINC000583127796
REMARK  2 active torsions:
REMARK  status: ('A' for Active; 'I' for Inactive)
REMARK    1  A    between atoms: C_2  and  C_4
REMARK    2  A    between atoms: C_7  and  C_8
REMARK                            x       y       z     vdW  Elec       q    Type
REMARK                         _______ _______ _______ _____ _____    ______ ____
ROOT
ATOM      1  C   UNL     1      31.268  22.966  16.829  0.00  0.00    +0.247 C 
ATOM      2  O   UNL     1      32.115  22.580  17.637  0.00  0.00    -0.270 OA
ATOM      3  N   UNL     1      31.595  23.670  15.660  0.00  0.00    -0.297 N 
ATOM      4  C   UNL     1      30.661  24.168  14.648  0.00  0.00    +0.108 C 
ATOM      5  C   UNL     1      31.005  23.690  13.250  0.00  0.00    +0.020 C 
ATOM      6  C   UNL     1      32.465  23.935  12.915  0.00  0.00    +0.011 C 
ATOM      7  C   UNL     1      33.435  23.386  13.990  0.00  0.00    -0.004 C 
ATOM      8  C   UNL     1      34.854  23.833  13.580  0.00  0.00    +0.020 C 
ATOM      9  C   UNL     1      35.883  22.896  14.175  0.00  0.00    +0.070 C 
ATOM     10  S   UNL     1      35.146  21.265  13.999  0.00  0.00    -0.160 S 
ATOM     11  C   UNL     1      33.425  21.841  14.023  0.00  0.00    +0.077 C 
ATOM     12  C   UNL     1      33.016  23.948  15.375  0.00  0.00    +0.115 C 
ENDROOT
BRANCH   1  16
ATOM     13  C   UNL     1      27.126  21.953  17.215  0.00  0.00    +0.037 A 
ATOM     14  C   UNL     1      27.606  23.110  17.834  0.00  0.00    +0.014 A 
ATOM     15  C   UNL     1      28.974  23.389  17.818  0.00  0.00    +0.014 A 
ATOM     16  C   UNL     1      29.847  22.579  17.089  0.00  0.00    +0.037 A 
ATOM     17  C   UNL     1      29.380  21.372  16.552  0.00  0.00    +0.014 A 
ATOM     18  C   UNL     1      28.020  21.054  16.627  0.00  0.00    +0.014 A 
BRANCH  13  20
ATOM     19  N   UNL     1      24.820  22.721  17.293  0.00  0.00    -0.325 N 
ATOM     20  C   UNL     1      25.669  21.656  17.166  0.00  0.00    +0.242 C 
ATOM     21  O   UNL     1      25.252  20.527  16.969  0.00  0.00    -0.270 OA
ATOM     22  H   UNL     1      23.839  22.526  17.135  0.00  0.00    +0.145 HD
ATOM     23  H   UNL     1      25.128  23.676  17.170  0.00  0.00    +0.145 HD
ENDBRANCH  13  20
ENDBRANCH   1  16
TORSDOF 2
ENDMDL
MODEL 8
REMARK VINA RESULT:      -6.0      1.812      2.304
REMARK  Name = ZINC000583127796
REMARK  2 active torsions:
REMARK  status: ('A' for Active; 'I' for Inactive)
REMARK    1  A    between atoms: C_2  and  C_4
REMARK    2  A    between atoms: C_7  and  C_8
REMARK                            x       y       z     vdW  Elec       q    Type
REMARK                         _______ _______ _______ _____ _____    ______ ____
ROOT
ATOM      1  C   UNL     1      32.945  23.350  14.108  0.00  0.00    +0.247 C 
ATOM      2  O   UNL     1      34.034  22.886  14.451  0.00  0.00    -0.270 OA
ATOM      3  N   UNL     1      32.765  24.073  12.919  0.00  0.00    -0.297 N 
ATOM      4  C   UNL     1      31.516  24.661  12.433  0.00  0.00    +0.108 C 
ATOM      5  C   UNL     1      31.166  24.212  11.027  0.00  0.00    +0.020 C 
ATOM      6  C   UNL     1      32.337  24.379  10.076  0.00  0.00    +0.011 C 
ATOM      7  C   UNL     1      33.643  23.735  10.602  0.00  0.00    -0.004 C 
ATOM      8  C   UNL     1      34.759  24.109   9.602  0.00  0.00    +0.020 C 
ATOM      9  C   UNL     1      35.876  23.092   9.671  0.00  0.00    +0.070 C 
ATOM     10  S   UNL     1      35.026  21.515   9.837  0.00  0.00    -0.160 S 
ATOM     11  C   UNL     1      33.541  22.194  10.630  0.00  0.00    +0.077 C 
ATOM     12  C   UNL     1      33.926  24.274  12.030  0.00  0.00    +0.115 C 
ENDROOT
BRANCH   1  16
ATOM     13  C   UNL     1      29.355  22.644  16.330  0.00  0.00    +0.037 A 
ATOM     14  C   UNL     1      30.269  23.592  16.795  0.00  0.00    +0.014 A 
ATOM     15  C   UNL     1      31.497  23.747  16.149  0.00  0.00    +0.014 A 
ATOM     16  C   UNL     1      31.766  23.042  14.974  0.00  0.00    +0.037 A 
ATOM     17  C   UNL     1      30.892  22.025  14.567  0.00  0.00    +0.014 A 
ATOM     18  C   UNL     1      29.691  21.818  15.253  0.00  0.00    +0.014 A 
BRANCH  13  20
ATOM     19  N   UNL     1      27.274  23.631  17.108  0.00  0.00    -0.325 N 
ATOM     20  C   UNL     1      28.016  22.493  16.962  0.00  0.00    +0.242 C 
ATOM     21  O   UNL     1      27.580  21.401  17.286  0.00  0.00    -0.270 OA
ATOM     22  H   UNL     1      26.320  23.501  17.425  0.00  0.00    +0.145 HD
ATOM     23  H   UNL     1      27.481  24.481  16.602  0.00  0.00    +0.145 HD
ENDBRANCH  13  20
ENDBRANCH   1  16
TORSDOF 2
ENDMDL
MODEL 9
REMARK VINA RESULT:      -5.9      5.058      7.470
REMARK  Name = ZINC000583127796
REMARK  2 active torsions:
REMARK  status: ('A' for Active; 'I' for Inactive)
REMARK    1  A    between atoms: C_2  and  C_4
REMARK    2  A    between atoms: C_7  and  C_8
REMARK                            x       y       z     vdW  Elec       q    Type
REMARK                         _______ _______ _______ _____ _____    ______ ____
ROOT
ATOM      1  C   UNL     1      31.967  23.200  17.777  0.00  0.00    +0.247 C 
ATOM      2  O   UNL     1      31.719  22.462  18.733  0.00  0.00    -0.270 OA
ATOM      3  N   UNL     1      31.476  22.963  16.484  0.00  0.00    -0.297 N 
ATOM      4  C   UNL     1      31.720  23.779  15.293  0.00  0.00    +0.108 C 
ATOM      5  C   UNL     1      30.436  24.211  14.609  0.00  0.00    +0.020 C 
ATOM      6  C   UNL     1      29.502  23.039  14.373  0.00  0.00    +0.011 C 
ATOM      7  C   UNL     1      29.246  22.200  15.649  0.00  0.00    -0.004 C 
ATOM      8  C   UNL     1      28.403  20.980  15.220  0.00  0.00    +0.020 C 
ATOM      9  C   UNL     1      27.620  20.452  16.401  0.00  0.00    +0.070 C 
ATOM     10  S   UNL     1      27.062  21.933  17.257  0.00  0.00    -0.160 S 
ATOM     11  C   UNL     1      28.422  22.992  16.689  0.00  0.00    +0.077 C 
ATOM     12  C   UNL     1      30.613  21.788  16.258  0.00  0.00    +0.115 C 
ENDROOT
BRANCH   1  16
ATOM     13  C   UNL     1      34.397  26.556  18.854  0.00  0.00    +0.037 A 
ATOM     14  C   UNL     1      33.032  26.578  19.153  0.00  0.00    +0.014 A 
ATOM     15  C   UNL     1      32.206  25.547  18.702  0.00  0.00    +0.014 A 
ATOM     16  C   UNL     1      32.757  24.439  18.055  0.00  0.00    +0.037 A 
ATOM     17  C   UNL     1      34.105  24.465  17.672  0.00  0.00    +0.014 A 
ATOM     18  C   UNL     1      34.922  25.531  18.062  0.00  0.00    +0.014 A 
BRANCH  13  20
ATOM     19  N   UNL     1      36.484  27.792  18.683  0.00  0.00    -0.325 N 
ATOM     20  C   UNL     1      35.314  27.610  19.367  0.00  0.00    +0.242 C 
ATOM     21  O   UNL     1      35.013  28.314  20.316  0.00  0.00    -0.270 OA
ATOM     22  H   UNL     1      37.041  28.590  18.964  0.00  0.00    +0.145 HD
ATOM     23  H   UNL     1      36.627  27.434  17.749  0.00  0.00    +0.145 HD
ENDBRANCH  13  20
ENDBRANCH   1  16
TORSDOF 2
ENDMDL
