MODEL 1
REMARK VINA RESULT:      -7.6      0.000      0.000
REMARK  Name = ZINC000329563636
REMARK  3 active torsions:
REMARK  status: ('A' for Active; 'I' for Inactive)
REMARK    1  A    between atoms: C_1  and  C_2
REMARK    2  A    between atoms: C_2  and  N_3
REMARK    3  A    between atoms: N_9  and  C_10
REMARK                            x       y       z     vdW  Elec       q    Type
REMARK                         _______ _______ _______ _____ _____    ______ ____
ROOT
ATOM      1  C   UNL     1      28.015  22.051  18.304  0.00  0.00    +0.112 C 
ATOM      2  C   UNL     1      27.822  20.698  17.611  0.00  0.00    +0.075 C 
ATOM      3  C   UNL     1      28.840  20.389  16.503  0.00  0.00    +0.113 C 
ATOM      4  C   UNL     1      30.179  19.784  17.000  0.00  0.00    +0.048 C 
ATOM      5  C   UNL     1      30.205  18.341  16.507  0.00  0.00    +0.004 C 
ATOM      6  C   UNL     1      29.400  18.379  15.223  0.00  0.00    +0.004 C 
ATOM      7  C   UNL     1      28.241  19.296  15.578  0.00  0.00    +0.048 C 
ATOM      8  O   UNL     1      29.102  21.541  15.677  0.00  0.00    -0.485 OA
ATOM      9  C   UNL     1      29.545  22.622  16.393  0.00  0.00    +0.126 A 
ATOM     10  C   UNL     1      30.490  23.448  15.786  0.00  0.00    +0.046 A 
ATOM     11  C   UNL     1      31.011  24.541  16.481  0.00  0.00    +0.004 A 
ATOM     12  C   UNL     1      30.567  24.820  17.772  0.00  0.00    +0.001 A 
ATOM     13  C   UNL     1      29.596  24.010  18.363  0.00  0.00    +0.009 A 
ATOM     14  C   UNL     1      29.078  22.901  17.675  0.00  0.00    +0.015 A 
ENDROOT
BRANCH   1  21
ATOM     15  N   UNL     1      23.382  26.277  19.073  0.00  0.00    -0.299 N 
ATOM     16  C   UNL     1      24.219  26.030  20.246  0.00  0.00    +0.127 C 
ATOM     17  C   UNL     1      24.401  24.538  20.502  0.00  0.00    +0.129 C 
ATOM     18  N   UNL     1      25.003  23.931  19.325  0.00  0.00    -0.275 N 
ATOM     19  C   UNL     1      26.229  23.315  19.447  0.00  0.00    +0.303 C 
ATOM     20  O   UNL     1      26.838  23.262  20.514  0.00  0.00    -0.253 OA
ATOM     21  N   UNL     1      26.751  22.791  18.301  0.00  0.00    -0.292 N 
ATOM     22  C   UNL     1      24.239  24.121  18.089  0.00  0.00    +0.205 C 
ATOM     23  C   UNL     1      23.419  25.424  17.971  0.00  0.00    +0.233 C 
ATOM     24  O   UNL     1      22.795  25.664  16.934  0.00  0.00    -0.274 OA
ATOM     25  H   UNL     1      26.114  22.534  17.564  0.00  0.00    +0.151 HD
BRANCH  15  27
ATOM     26  C   UNL     1      21.369  27.662  19.489  0.00  0.00    +0.024 C 
ATOM     27  C   UNL     1      22.780  27.597  18.923  0.00  0.00    +0.104 C 
ENDBRANCH  15  27
ENDBRANCH   1  21
TORSDOF 2
ENDMDL
MODEL 2
REMARK VINA RESULT:      -7.3      4.084      7.891
REMARK  Name = ZINC000329563636
REMARK  3 active torsions:
REMARK  status: ('A' for Active; 'I' for Inactive)
REMARK    1  A    between atoms: C_1  and  C_2
REMARK    2  A    between atoms: C_2  and  N_3
REMARK    3  A    between atoms: N_9  and  C_10
REMARK                            x       y       z     vdW  Elec       q    Type
REMARK                         _______ _______ _______ _____ _____    ______ ____
ROOT
ATOM      1  C   UNL     1      30.815  22.761  16.714  0.00  0.00    +0.112 C 
ATOM      2  C   UNL     1      29.837  23.342  17.742  0.00  0.00    +0.075 C 
ATOM      3  C   UNL     1      28.649  22.433  18.088  0.00  0.00    +0.113 C 
ATOM      4  C   UNL     1      28.940  21.368  19.178  0.00  0.00    +0.048 C 
ATOM      5  C   UNL     1      28.128  21.776  20.402  0.00  0.00    +0.004 C 
ATOM      6  C   UNL     1      26.920  22.483  19.820  0.00  0.00    +0.004 C 
ATOM      7  C   UNL     1      27.522  23.310  18.696  0.00  0.00    +0.048 C 
ATOM      8  O   UNL     1      28.100  21.796  16.918  0.00  0.00    -0.485 OA
ATOM      9  C   UNL     1      29.027  21.062  16.224  0.00  0.00    +0.126 A 
ATOM     10  C   UNL     1      28.590  19.886  15.618  0.00  0.00    +0.046 A 
ATOM     11  C   UNL     1      29.496  19.075  14.932  0.00  0.00    +0.004 A 
ATOM     12  C   UNL     1      30.833  19.455  14.834  0.00  0.00    +0.001 A 
ATOM     13  C   UNL     1      31.259  20.650  15.415  0.00  0.00    +0.009 A 
ATOM     14  C   UNL     1      30.357  21.464  16.117  0.00  0.00    +0.015 A 
ENDROOT
BRANCH   1  21
ATOM     15  N   UNL     1      32.714  25.866  11.550  0.00  0.00    -0.299 N 
ATOM     16  C   UNL     1      33.765  25.188  12.308  0.00  0.00    +0.127 C 
ATOM     17  C   UNL     1      33.667  25.490  13.799  0.00  0.00    +0.129 C 
ATOM     18  N   UNL     1      32.358  25.068  14.277  0.00  0.00    -0.275 N 
ATOM     19  C   UNL     1      32.287  24.100  15.254  0.00  0.00    +0.303 C 
ATOM     20  O   UNL     1      33.288  23.575  15.738  0.00  0.00    -0.253 OA
ATOM     21  N   UNL     1      31.032  23.730  15.638  0.00  0.00    -0.292 N 
ATOM     22  C   UNL     1      31.230  25.692  13.579  0.00  0.00    +0.205 C 
ATOM     23  C   UNL     1      31.446  26.060  12.096  0.00  0.00    +0.233 C 
ATOM     24  O   UNL     1      30.517  26.542  11.442  0.00  0.00    -0.274 OA
ATOM     25  H   UNL     1      30.282  24.390  15.507  0.00  0.00    +0.151 HD
BRANCH  15  27
ATOM     26  C   UNL     1      33.506  24.787   9.464  0.00  0.00    +0.024 C 
ATOM     27  C   UNL     1      32.894  26.020  10.111  0.00  0.00    +0.104 C 
ENDBRANCH  15  27
ENDBRANCH   1  21
TORSDOF 2
ENDMDL
MODEL 3
REMARK VINA RESULT:      -6.9      5.641      9.023
REMARK  Name = ZINC000329563636
REMARK  3 active torsions:
REMARK  status: ('A' for Active; 'I' for Inactive)
REMARK    1  A    between atoms: C_1  and  C_2
REMARK    2  A    between atoms: C_2  and  N_3
REMARK    3  A    between atoms: N_9  and  C_10
REMARK                            x       y       z     vdW  Elec       q    Type
REMARK                         _______ _______ _______ _____ _____    ______ ____
ROOT
ATOM      1  C   UNL     1      30.696  23.230  14.326  0.00  0.00    +0.112 C 
ATOM      2  C   UNL     1      29.970  21.907  14.061  0.00  0.00    +0.075 C 
ATOM      3  C   UNL     1      29.986  20.914  15.232  0.00  0.00    +0.113 C 
ATOM      4  C   UNL     1      28.881  21.143  16.295  0.00  0.00    +0.048 C 
ATOM      5  C   UNL     1      27.923  19.963  16.178  0.00  0.00    +0.004 C 
ATOM      6  C   UNL     1      28.804  18.824  15.705  0.00  0.00    +0.004 C 
ATOM      7  C   UNL     1      29.699  19.494  14.676  0.00  0.00    +0.048 C 
ATOM      8  O   UNL     1      31.276  20.861  15.873  0.00  0.00    -0.485 OA
ATOM      9  C   UNL     1      31.698  22.083  16.326  0.00  0.00    +0.126 A 
ATOM     10  C   UNL     1      32.427  22.109  17.514  0.00  0.00    +0.046 A 
ATOM     11  C   UNL     1      32.849  23.328  18.048  0.00  0.00    +0.004 A 
ATOM     12  C   UNL     1      32.563  24.516  17.380  0.00  0.00    +0.001 A 
ATOM     13  C   UNL     1      31.862  24.483  16.173  0.00  0.00    +0.009 A 
ATOM     14  C   UNL     1      31.423  23.262  15.637  0.00  0.00    +0.015 A 
ENDROOT
BRANCH   1  21
ATOM     15  N   UNL     1      34.961  25.719  10.387  0.00  0.00    -0.299 N 
ATOM     16  C   UNL     1      33.886  26.616  10.810  0.00  0.00    +0.127 C 
ATOM     17  C   UNL     1      32.519  25.955  10.675  0.00  0.00    +0.129 C 
ATOM     18  N   UNL     1      32.503  24.744  11.483  0.00  0.00    -0.275 N 
ATOM     19  C   UNL     1      31.594  24.642  12.512  0.00  0.00    +0.303 C 
ATOM     20  O   UNL     1      30.795  25.539  12.779  0.00  0.00    -0.253 OA
ATOM     21  N   UNL     1      31.649  23.495  13.247  0.00  0.00    -0.292 N 
ATOM     22  C   UNL     1      33.546  23.774  11.138  0.00  0.00    +0.205 C 
ATOM     23  C   UNL     1      34.876  24.344  10.599  0.00  0.00    +0.233 C 
ATOM     24  O   UNL     1      35.809  23.580  10.338  0.00  0.00    -0.274 OA
ATOM     25  H   UNL     1      32.032  22.671  12.812  0.00  0.00    +0.151 HD
BRANCH  15  27
ATOM     26  C   UNL     1      36.137  27.695   9.461  0.00  0.00    +0.024 C 
ATOM     27  C   UNL     1      36.258  26.304  10.066  0.00  0.00    +0.104 C 
ENDBRANCH  15  27
ENDBRANCH   1  21
TORSDOF 2
ENDMDL
MODEL 4
REMARK VINA RESULT:      -6.6      4.332      7.086
REMARK  Name = ZINC000329563636
REMARK  3 active torsions:
REMARK  status: ('A' for Active; 'I' for Inactive)
REMARK    1  A    between atoms: C_1  and  C_2
REMARK    2  A    between atoms: C_2  and  N_3
REMARK    3  A    between atoms: N_9  and  C_10
REMARK                            x       y       z     vdW  Elec       q    Type
REMARK                         _______ _______ _______ _____ _____    ______ ____
ROOT
ATOM      1  C   UNL     1      32.334  17.647  15.498  0.00  0.00    +0.112 C 
ATOM      2  C   UNL     1      32.517  17.390  13.998  0.00  0.00    +0.075 C 
ATOM      3  C   UNL     1      33.977  17.341  13.525  0.00  0.00    +0.113 C 
ATOM      4  C   UNL     1      34.672  15.965  13.701  0.00  0.00    +0.048 C 
ATOM      5  C   UNL     1      34.896  15.415  12.297  0.00  0.00    +0.004 C 
ATOM      6  C   UNL     1      35.066  16.656  11.442  0.00  0.00    +0.004 C 
ATOM      7  C   UNL     1      34.005  17.594  11.994  0.00  0.00    +0.048 C 
ATOM      8  O   UNL     1      34.776  18.372  14.136  0.00  0.00    -0.485 OA
ATOM      9  C   UNL     1      34.755  18.323  15.506  0.00  0.00    +0.126 A 
ATOM     10  C   UNL     1      35.928  18.665  16.176  0.00  0.00    +0.046 A 
ATOM     11  C   UNL     1      35.982  18.594  17.570  0.00  0.00    +0.004 A 
ATOM     12  C   UNL     1      34.855  18.206  18.290  0.00  0.00    +0.001 A 
ATOM     13  C   UNL     1      33.673  17.897  17.616  0.00  0.00    +0.009 A 
ATOM     14  C   UNL     1      33.615  17.953  16.215  0.00  0.00    +0.015 A 
ENDROOT
BRANCH   1  21
ATOM     15  N   UNL     1      27.888  21.622  17.583  0.00  0.00    -0.299 N 
ATOM     16  C   UNL     1      27.537  20.203  17.613  0.00  0.00    +0.127 C 
ATOM     17  C   UNL     1      27.866  19.515  16.293  0.00  0.00    +0.129 C 
ATOM     18  N   UNL     1      29.288  19.670  16.026  0.00  0.00    -0.275 N 
ATOM     19  C   UNL     1      30.073  18.543  15.920  0.00  0.00    +0.303 C 
ATOM     20  O   UNL     1      29.618  17.408  16.047  0.00  0.00    -0.253 OA
ATOM     21  N   UNL     1      31.401  18.758  15.697  0.00  0.00    -0.292 N 
ATOM     22  C   UNL     1      29.745  21.062  15.975  0.00  0.00    +0.205 C 
ATOM     23  C   UNL     1      28.996  22.074  16.869  0.00  0.00    +0.233 C 
ATOM     24  O   UNL     1      29.367  23.250  16.907  0.00  0.00    -0.274 OA
ATOM     25  H   UNL     1      31.674  19.622  15.256  0.00  0.00    +0.151 HD
BRANCH  15  27
ATOM     26  C   UNL     1      27.461  21.983  19.999  0.00  0.00    +0.024 C 
ATOM     27  C   UNL     1      27.284  22.501  18.578  0.00  0.00    +0.104 C 
ENDBRANCH  15  27
ENDBRANCH   1  21
TORSDOF 2
ENDMDL
MODEL 5
REMARK VINA RESULT:      -6.5      4.365      7.196
REMARK  Name = ZINC000329563636
REMARK  3 active torsions:
REMARK  status: ('A' for Active; 'I' for Inactive)
REMARK    1  A    between atoms: C_1  and  C_2
REMARK    2  A    between atoms: C_2  and  N_3
REMARK    3  A    between atoms: N_9  and  C_10
REMARK                            x       y       z     vdW  Elec       q    Type
REMARK                         _______ _______ _______ _____ _____    ______ ____
ROOT
ATOM      1  C   UNL     1      30.481  23.397  17.907  0.00  0.00    +0.112 C 
ATOM      2  C   UNL     1      31.068  22.444  16.859  0.00  0.00    +0.075 C 
ATOM      3  C   UNL     1      30.178  21.243  16.508  0.00  0.00    +0.113 C 
ATOM      4  C   UNL     1      29.094  21.527  15.436  0.00  0.00    +0.048 C 
ATOM      5  C   UNL     1      29.502  20.739  14.196  0.00  0.00    +0.004 C 
ATOM      6  C   UNL     1      30.240  19.538  14.753  0.00  0.00    +0.004 C 
ATOM      7  C   UNL     1      31.069  20.142  15.874  0.00  0.00    +0.048 C 
ATOM      8  O   UNL     1      29.567  20.667  17.679  0.00  0.00    -0.485 OA
ATOM      9  C   UNL     1      28.824  21.570  18.394  0.00  0.00    +0.126 A 
ATOM     10  C   UNL     1      27.665  21.101  19.009  0.00  0.00    +0.046 A 
ATOM     11  C   UNL     1      26.845  21.983  19.717  0.00  0.00    +0.004 A 
ATOM     12  C   UNL     1      27.200  23.325  19.828  0.00  0.00    +0.001 A 
ATOM     13  C   UNL     1      28.379  23.783  19.238  0.00  0.00    +0.009 A 
ATOM     14  C   UNL     1      29.201  22.905  18.514  0.00  0.00    +0.015 A 
ENDROOT
BRANCH   1  21
ATOM     15  N   UNL     1      33.824  25.579  22.802  0.00  0.00    -0.299 N 
ATOM     16  C   UNL     1      33.371  26.585  21.842  0.00  0.00    +0.127 C 
ATOM     17  C   UNL     1      33.669  26.166  20.407  0.00  0.00    +0.129 C 
ATOM     18  N   UNL     1      33.009  24.895  20.145  0.00  0.00    -0.275 N 
ATOM     19  C   UNL     1      32.059  24.831  19.150  0.00  0.00    +0.303 C 
ATOM     20  O   UNL     1      31.742  25.809  18.475  0.00  0.00    -0.253 OA
ATOM     21  N   UNL     1      31.459  23.619  18.973  0.00  0.00    -0.292 N 
ATOM     22  C   UNL     1      33.395  23.814  21.056  0.00  0.00    +0.205 C 
ATOM     23  C   UNL     1      33.778  24.221  22.496  0.00  0.00    +0.233 C 
ATOM     24  O   UNL     1      34.064  23.351  23.323  0.00  0.00    -0.274 OA
ATOM     25  H   UNL     1      31.961  22.795  19.264  0.00  0.00    +0.151 HD
BRANCH  15  27
ATOM     26  C   UNL     1      34.375  27.449  24.334  0.00  0.00    +0.024 C 
ATOM     27  C   UNL     1      33.991  25.983  24.194  0.00  0.00    +0.104 C 
ENDBRANCH  15  27
ENDBRANCH   1  21
TORSDOF 2
ENDMDL
MODEL 6
REMARK VINA RESULT:      -6.5      4.895      9.843
REMARK  Name = ZINC000329563636
REMARK  3 active torsions:
REMARK  status: ('A' for Active; 'I' for Inactive)
REMARK    1  A    between atoms: C_1  and  C_2
REMARK    2  A    between atoms: C_2  and  N_3
REMARK    3  A    between atoms: N_9  and  C_10
REMARK                            x       y       z     vdW  Elec       q    Type
REMARK                         _______ _______ _______ _____ _____    ______ ____
ROOT
ATOM      1  C   UNL     1      31.572  20.815  16.886  0.00  0.00    +0.112 C 
ATOM      2  C   UNL     1      31.717  22.223  17.474  0.00  0.00    +0.075 C 
ATOM      3  C   UNL     1      30.392  22.926  17.803  0.00  0.00    +0.113 C 
ATOM      4  C   UNL     1      29.789  22.564  19.186  0.00  0.00    +0.048 C 
ATOM      5  C   UNL     1      29.900  23.820  20.042  0.00  0.00    +0.004 C 
ATOM      6  C   UNL     1      29.806  24.955  19.041  0.00  0.00    +0.004 C 
ATOM      7  C   UNL     1      30.654  24.453  17.883  0.00  0.00    +0.048 C 
ATOM      8  O   UNL     1      29.405  22.722  16.773  0.00  0.00    -0.485 OA
ATOM      9  C   UNL     1      29.152  21.397  16.529  0.00  0.00    +0.126 A 
ATOM     10  C   UNL     1      27.844  21.045  16.203  0.00  0.00    +0.046 A 
ATOM     11  C   UNL     1      27.515  19.705  15.984  0.00  0.00    +0.004 A 
ATOM     12  C   UNL     1      28.501  18.725  16.069  0.00  0.00    +0.001 A 
ATOM     13  C   UNL     1      29.816  19.086  16.364  0.00  0.00    +0.009 A 
ATOM     14  C   UNL     1      30.151  20.430  16.598  0.00  0.00    +0.015 A 
ENDROOT
BRANCH   1  21
ATOM     15  N   UNL     1      34.852  18.875  11.848  0.00  0.00    -0.299 N 
ATOM     16  C   UNL     1      35.168  18.205  13.109  0.00  0.00    +0.127 C 
ATOM     17  C   UNL     1      35.378  19.206  14.239  0.00  0.00    +0.129 C 
ATOM     18  N   UNL     1      34.170  20.004  14.388  0.00  0.00    -0.275 N 
ATOM     19  C   UNL     1      33.489  19.966  15.585  0.00  0.00    +0.303 C 
ATOM     20  O   UNL     1      33.863  19.279  16.535  0.00  0.00    -0.253 OA
ATOM     21  N   UNL     1      32.351  20.714  15.651  0.00  0.00    -0.292 N 
ATOM     22  C   UNL     1      33.765  20.720  13.175  0.00  0.00    +0.205 C 
ATOM     23  C   UNL     1      34.106  20.052  11.826  0.00  0.00    +0.233 C 
ATOM     24  O   UNL     1      33.747  20.582  10.771  0.00  0.00    -0.274 OA
ATOM     25  H   UNL     1      32.269  21.506  15.034  0.00  0.00    +0.151 HD
BRANCH  15  27
ATOM     26  C   UNL     1      36.427  18.246  10.039  0.00  0.00    +0.024 C 
ATOM     27  C   UNL     1      35.022  18.123  10.609  0.00  0.00    +0.104 C 
ENDBRANCH  15  27
ENDBRANCH   1  21
TORSDOF 2
ENDMDL
MODEL 7
REMARK VINA RESULT:      -6.4      4.573      7.521
REMARK  Name = ZINC000329563636
REMARK  3 active torsions:
REMARK  status: ('A' for Active; 'I' for Inactive)
REMARK    1  A    between atoms: C_1  and  C_2
REMARK    2  A    between atoms: C_2  and  N_3
REMARK    3  A    between atoms: N_9  and  C_10
REMARK                            x       y       z     vdW  Elec       q    Type
REMARK                         _______ _______ _______ _____ _____    ______ ____
ROOT
ATOM      1  C   UNL     1      29.597  21.370  14.822  0.00  0.00    +0.112 C 
ATOM      2  C   UNL     1      30.711  20.317  14.806  0.00  0.00    +0.075 C 
ATOM      3  C   UNL     1      30.960  19.620  16.151  0.00  0.00    +0.113 C 
ATOM      4  C   UNL     1      30.023  18.419  16.445  0.00  0.00    +0.048 C 
ATOM      5  C   UNL     1      30.898  17.172  16.394  0.00  0.00    +0.004 C 
ATOM      6  C   UNL     1      32.262  17.664  16.836  0.00  0.00    +0.004 C 
ATOM      7  C   UNL     1      32.383  19.003  16.128  0.00  0.00    +0.048 C 
ATOM      8  O   UNL     1      30.922  20.548  17.253  0.00  0.00    -0.485 OA
ATOM      9  C   UNL     1      29.743  21.241  17.328  0.00  0.00    +0.126 A 
ATOM     10  C   UNL     1      29.257  21.544  18.599  0.00  0.00    +0.046 A 
ATOM     11  C   UNL     1      28.039  22.212  18.741  0.00  0.00    +0.004 A 
ATOM     12  C   UNL     1      27.322  22.598  17.611  0.00  0.00    +0.001 A 
ATOM     13  C   UNL     1      27.828  22.321  16.340  0.00  0.00    +0.009 A 
ATOM     14  C   UNL     1      29.045  21.638  16.190  0.00  0.00    +0.015 A 
ENDROOT
BRANCH   1  21
ATOM     15  N   UNL     1      32.872  25.881  11.849  0.00  0.00    -0.299 N 
ATOM     16  C   UNL     1      33.664  24.919  12.615  0.00  0.00    +0.127 C 
ATOM     17  C   UNL     1      33.097  24.713  14.015  0.00  0.00    +0.129 C 
ATOM     18  N   UNL     1      31.724  24.246  13.900  0.00  0.00    -0.275 N 
ATOM     19  C   UNL     1      31.393  23.015  14.421  0.00  0.00    +0.303 C 
ATOM     20  O   UNL     1      32.216  22.292  14.979  0.00  0.00    -0.253 OA
ATOM     21  N   UNL     1      30.097  22.625  14.256  0.00  0.00    -0.292 N 
ATOM     22  C   UNL     1      30.842  25.143  13.146  0.00  0.00    +0.205 C 
ATOM     23  C   UNL     1      31.491  25.969  12.015  0.00  0.00    +0.233 C 
ATOM     24  O   UNL     1      30.791  26.704  11.314  0.00  0.00    -0.274 OA
ATOM     25  H   UNL     1      29.398  23.340  14.135  0.00  0.00    +0.151 HD
BRANCH  15  27
ATOM     26  C   UNL     1      33.707  25.497   9.546  0.00  0.00    +0.024 C 
ATOM     27  C   UNL     1      33.482  26.494  10.674  0.00  0.00    +0.104 C 
ENDBRANCH  15  27
ENDBRANCH   1  21
TORSDOF 2
ENDMDL
MODEL 8
REMARK VINA RESULT:      -6.4      5.637     10.380
REMARK  Name = ZINC000329563636
REMARK  3 active torsions:
REMARK  status: ('A' for Active; 'I' for Inactive)
REMARK    1  A    between atoms: C_1  and  C_2
REMARK    2  A    between atoms: C_2  and  N_3
REMARK    3  A    between atoms: N_9  and  C_10
REMARK                            x       y       z     vdW  Elec       q    Type
REMARK                         _______ _______ _______ _____ _____    ______ ____
ROOT
ATOM      1  C   UNL     1      31.858  19.966  16.824  0.00  0.00    +0.112 C 
ATOM      2  C   UNL     1      32.628  21.270  17.061  0.00  0.00    +0.075 C 
ATOM      3  C   UNL     1      31.763  22.538  17.079  0.00  0.00    +0.113 C 
ATOM      4  C   UNL     1      31.096  22.851  18.444  0.00  0.00    +0.048 C 
ATOM      5  C   UNL     1      31.774  24.109  18.974  0.00  0.00    +0.004 C 
ATOM      6  C   UNL     1      32.171  24.865  17.721  0.00  0.00    +0.004 C 
ATOM      7  C   UNL     1      32.679  23.761  16.808  0.00  0.00    +0.048 C 
ATOM      8  O   UNL     1      30.764  22.522  16.041  0.00  0.00    -0.485 OA
ATOM      9  C   UNL     1      29.942  21.428  16.106  0.00  0.00    +0.126 A 
ATOM     10  C   UNL     1      28.606  21.608  15.752  0.00  0.00    +0.046 A 
ATOM     11  C   UNL     1      27.711  20.540  15.838  0.00  0.00    +0.004 A 
ATOM     12  C   UNL     1      28.159  19.288  16.254  0.00  0.00    +0.001 A 
ATOM     13  C   UNL     1      29.504  19.105  16.576  0.00  0.00    +0.009 A 
ATOM     14  C   UNL     1      30.408  20.177  16.505  0.00  0.00    +0.015 A 
ENDROOT
BRANCH   1  21
ATOM     15  N   UNL     1      34.312  15.538  13.046  0.00  0.00    -0.299 N 
ATOM     16  C   UNL     1      34.677  15.442  14.459  0.00  0.00    +0.127 C 
ATOM     17  C   UNL     1      35.129  16.788  15.014  0.00  0.00    +0.129 C 
ATOM     18  N   UNL     1      34.051  17.751  14.843  0.00  0.00    -0.275 N 
ATOM     19  C   UNL     1      33.505  18.345  15.959  0.00  0.00    +0.303 C 
ATOM     20  O   UNL     1      33.892  18.090  17.098  0.00  0.00    -0.253 OA
ATOM     21  N   UNL     1      32.481  19.216  15.732  0.00  0.00    -0.292 N 
ATOM     22  C   UNL     1      33.608  17.922  13.456  0.00  0.00    +0.205 C 
ATOM     23  C   UNL     1      33.718  16.689  12.533  0.00  0.00    +0.233 C 
ATOM     24  O   UNL     1      33.314  16.757  11.369  0.00  0.00    -0.274 OA
ATOM     25  H   UNL     1      32.430  19.663  14.831  0.00  0.00    +0.151 HD
BRANCH  15  27
ATOM     26  C   UNL     1      35.041  13.172  12.906  0.00  0.00    +0.024 C 
ATOM     27  C   UNL     1      34.253  14.306  12.267  0.00  0.00    +0.104 C 
ENDBRANCH  15  27
ENDBRANCH   1  21
TORSDOF 2
ENDMDL
MODEL 9
REMARK VINA RESULT:      -6.4      5.318      8.501
REMARK  Name = ZINC000329563636
REMARK  3 active torsions:
REMARK  status: ('A' for Active; 'I' for Inactive)
REMARK    1  A    between atoms: C_1  and  C_2
REMARK    2  A    between atoms: C_2  and  N_3
REMARK    3  A    between atoms: N_9  and  C_10
REMARK                            x       y       z     vdW  Elec       q    Type
REMARK                         _______ _______ _______ _____ _____    ______ ____
ROOT
ATOM      1  C   UNL     1      33.364  25.121  14.810  0.00  0.00    +0.112 C 
ATOM      2  C   UNL     1      34.897  25.103  14.834  0.00  0.00    +0.075 C 
ATOM      3  C   UNL     1      35.569  25.687  13.583  0.00  0.00    +0.113 C 
ATOM      4  C   UNL     1      35.728  27.230  13.591  0.00  0.00    +0.048 C 
ATOM      5  C   UNL     1      37.223  27.505  13.708  0.00  0.00    +0.004 C 
ATOM      6  C   UNL     1      37.869  26.315  13.027  0.00  0.00    +0.004 C 
ATOM      7  C   UNL     1      37.023  25.149  13.512  0.00  0.00    +0.048 C 
ATOM      8  O   UNL     1      34.907  25.271  12.373  0.00  0.00    -0.485 OA
ATOM      9  C   UNL     1      33.577  25.599  12.351  0.00  0.00    +0.126 A 
ATOM     10  C   UNL     1      33.027  25.963  11.123  0.00  0.00    +0.046 A 
ATOM     11  C   UNL     1      31.687  26.348  11.045  0.00  0.00    +0.004 A 
ATOM     12  C   UNL     1      30.894  26.345  12.190  0.00  0.00    +0.001 A 
ATOM     13  C   UNL     1      31.441  25.949  13.412  0.00  0.00    +0.009 A 
ATOM     14  C   UNL     1      32.791  25.573  13.501  0.00  0.00    +0.015 A 
ENDROOT
BRANCH   1  21
ATOM     15  N   UNL     1      29.807  20.093  16.216  0.00  0.00    -0.299 N 
ATOM     16  C   UNL     1      29.515  21.310  16.973  0.00  0.00    +0.127 C 
ATOM     17  C   UNL     1      30.787  21.947  17.523  0.00  0.00    +0.129 C 
ATOM     18  N   UNL     1      31.676  22.253  16.413  0.00  0.00    -0.275 N 
ATOM     19  C   UNL     1      32.038  23.563  16.190  0.00  0.00    +0.303 C 
ATOM     20  O   UNL     1      31.635  24.487  16.894  0.00  0.00    -0.253 OA
ATOM     21  N   UNL     1      32.851  23.784  15.118  0.00  0.00    -0.292 N 
ATOM     22  C   UNL     1      32.032  21.094  15.587  0.00  0.00    +0.205 C 
ATOM     23  C   UNL     1      30.975  19.975  15.465  0.00  0.00    +0.233 C 
ATOM     24  O   UNL     1      31.197  18.999  14.745  0.00  0.00    -0.274 OA
ATOM     25  H   UNL     1      33.431  23.026  14.798  0.00  0.00    +0.151 HD
BRANCH  15  27
ATOM     26  C   UNL     1      27.351  19.758  16.279  0.00  0.00    +0.024 C 
ATOM     27  C   UNL     1      28.715  19.156  15.974  0.00  0.00    +0.104 C 
ENDBRANCH  15  27
ENDBRANCH   1  21
TORSDOF 2
ENDMDL
