MODEL 1
REMARK VINA RESULT:      -7.1      0.000      0.000
REMARK  Name = ZINC000543478179
REMARK  8 active torsions:
REMARK  status: ('A' for Active; 'I' for Inactive)
REMARK    1  A    between atoms: C_1  and  C_2
REMARK    2  A    between atoms: C_2  and  N_3
REMARK    3  A    between atoms: N_9  and  C_10
REMARK    4  A    between atoms: C_10  and  C_11
REMARK    5  A    between atoms: C_10  and  C_12
REMARK    6  A    between atoms: C_15  and  O_16
REMARK    7  A    between atoms: O_16  and  C_17
REMARK    8  A    between atoms: C_17  and  C_18
REMARK                            x       y       z     vdW  Elec       q    Type
REMARK                         _______ _______ _______ _____ _____    ______ ____
ROOT
ATOM      1  C   UNL     1      26.823  20.730  16.700  0.00  0.00    +0.102 C 
ATOM      2  C   UNL     1      26.294  19.299  16.577  0.00  0.00    +0.033 C 
ENDROOT
BRANCH   1   9
ATOM      3  N   UNL     1      23.415  24.863  17.646  0.00  0.00    -0.299 N 
ATOM      4  C   UNL     1      24.181  24.945  18.888  0.00  0.00    +0.127 C 
ATOM      5  C   UNL     1      24.452  23.560  19.482  0.00  0.00    +0.129 C 
ATOM      6  N   UNL     1      25.152  22.715  18.510  0.00  0.00    -0.275 N 
ATOM      7  C   UNL     1      26.227  21.978  18.919  0.00  0.00    +0.303 C 
ATOM      8  O   UNL     1      26.634  22.024  20.085  0.00  0.00    -0.253 OA
ATOM      9  N   UNL     1      26.922  21.171  18.089  0.00  0.00    -0.293 N 
ATOM     10  C   UNL     1      24.590  22.744  17.168  0.00  0.00    +0.205 C 
ATOM     11  C   UNL     1      23.496  23.755  16.827  0.00  0.00    +0.233 C 
ATOM     12  O   UNL     1      22.831  23.622  15.796  0.00  0.00    -0.274 OA
ATOM     13  H   UNL     1      27.681  20.751  18.613  0.00  0.00    +0.151 HD
BRANCH   3  15
ATOM     14  C   UNL     1      21.439  26.183  18.227  0.00  0.00    +0.024 C 
ATOM     15  C   UNL     1      22.576  25.976  17.244  0.00  0.00    +0.104 C 
ENDBRANCH   3  15
ENDBRANCH   1   9
BRANCH   1  16
ATOM     16  C   UNL     1      28.158  20.908  16.001  0.00  0.00    -0.024 A 
ATOM     17  C   UNL     1      28.488  20.181  14.851  0.00  0.00    +0.009 A 
ATOM     18  C   UNL     1      29.729  20.343  14.234  0.00  0.00    +0.049 A 
ATOM     19  C   UNL     1      30.687  21.209  14.779  0.00  0.00    +0.156 A 
ATOM     20  C   UNL     1      30.344  21.960  15.901  0.00  0.00    +0.165 A 
ATOM     21  F   UNL     1      31.218  22.831  16.430  0.00  0.00    -0.202 F 
ATOM     22  C   UNL     1      29.104  21.809  16.518  0.00  0.00    +0.047 A 
BRANCH  19  23
ATOM     23  O   UNL     1      31.952  21.368  14.288  0.00  0.00    -0.489 OA
BRANCH  23  24
ATOM     24  C   UNL     1      32.027  21.613  12.884  0.00  0.00    +0.232 C 
BRANCH  24  25
ATOM     25  C   UNL     1      31.930  23.084  12.631  0.00  0.00    +0.027 C 
ATOM     26  C   UNL     1      30.617  23.668  12.176  0.00  0.00    +0.007 C 
ATOM     27  C   UNL     1      31.779  23.606  11.224  0.00  0.00    +0.007 C 
ENDBRANCH  24  25
ENDBRANCH  23  24
ENDBRANCH  19  23
ENDBRANCH   1  16
TORSDOF 6
ENDMDL
MODEL 2
REMARK VINA RESULT:      -6.3      4.618      6.956
REMARK  Name = ZINC000543478179
REMARK  8 active torsions:
REMARK  status: ('A' for Active; 'I' for Inactive)
REMARK    1  A    between atoms: C_1  and  C_2
REMARK    2  A    between atoms: C_2  and  N_3
REMARK    3  A    between atoms: N_9  and  C_10
REMARK    4  A    between atoms: C_10  and  C_11
REMARK    5  A    between atoms: C_10  and  C_12
REMARK    6  A    between atoms: C_15  and  O_16
REMARK    7  A    between atoms: O_16  and  C_17
REMARK    8  A    between atoms: C_17  and  C_18
REMARK                            x       y       z     vdW  Elec       q    Type
REMARK                         _______ _______ _______ _____ _____    ______ ____
ROOT
ATOM      1  C   UNL     1      29.974  20.687  15.169  0.00  0.00    +0.102 C 
ATOM      2  C   UNL     1      29.866  21.664  13.997  0.00  0.00    +0.033 C 
ENDROOT
BRANCH   1   9
ATOM      3  N   UNL     1      31.531  23.243  19.711  0.00  0.00    -0.299 N 
ATOM      4  C   UNL     1      30.229  22.774  20.181  0.00  0.00    +0.127 C 
ATOM      5  C   UNL     1      29.143  22.948  19.115  0.00  0.00    +0.129 C 
ATOM      6  N   UNL     1      29.520  22.248  17.883  0.00  0.00    -0.275 N 
ATOM      7  C   UNL     1      28.592  21.477  17.244  0.00  0.00    +0.303 C 
ATOM      8  O   UNL     1      27.449  21.339  17.691  0.00  0.00    -0.253 OA
ATOM      9  N   UNL     1      28.856  20.806  16.101  0.00  0.00    -0.293 N 
ATOM     10  C   UNL     1      30.891  22.478  17.452  0.00  0.00    +0.205 C 
ATOM     11  C   UNL     1      31.858  23.224  18.370  0.00  0.00    +0.233 C 
ATOM     12  O   UNL     1      32.925  23.656  17.925  0.00  0.00    -0.274 OA
ATOM     13  H   UNL     1      28.026  20.292  15.834  0.00  0.00    +0.151 HD
BRANCH   3  15
ATOM     14  C   UNL     1      32.369  22.987  21.996  0.00  0.00    +0.024 C 
ATOM     15  C   UNL     1      32.514  23.711  20.670  0.00  0.00    +0.104 C 
ENDBRANCH   3  15
ENDBRANCH   1   9
BRANCH   1  16
ATOM     16  C   UNL     1      30.112  19.249  14.703  0.00  0.00    -0.024 A 
ATOM     17  C   UNL     1      31.300  18.770  14.140  0.00  0.00    +0.009 A 
ATOM     18  C   UNL     1      31.402  17.449  13.698  0.00  0.00    +0.049 A 
ATOM     19  C   UNL     1      30.299  16.588  13.774  0.00  0.00    +0.156 A 
ATOM     20  C   UNL     1      29.129  17.054  14.369  0.00  0.00    +0.165 A 
ATOM     21  F   UNL     1      28.064  16.247  14.498  0.00  0.00    -0.202 F 
ATOM     22  C   UNL     1      29.023  18.368  14.820  0.00  0.00    +0.047 A 
BRANCH  19  23
ATOM     23  O   UNL     1      30.284  15.309  13.293  0.00  0.00    -0.489 OA
BRANCH  23  24
ATOM     24  C   UNL     1      31.564  14.785  12.937  0.00  0.00    +0.232 C 
BRANCH  24  25
ATOM     25  C   UNL     1      31.410  13.841  11.786  0.00  0.00    +0.027 C 
ATOM     26  C   UNL     1      31.830  12.402  11.953  0.00  0.00    +0.007 C 
ATOM     27  C   UNL     1      32.626  13.318  11.064  0.00  0.00    +0.007 C 
ENDBRANCH  24  25
ENDBRANCH  23  24
ENDBRANCH  19  23
ENDBRANCH   1  16
TORSDOF 6
ENDMDL
MODEL 3
REMARK VINA RESULT:      -6.3      4.166      9.396
REMARK  Name = ZINC000543478179
REMARK  8 active torsions:
REMARK  status: ('A' for Active; 'I' for Inactive)
REMARK    1  A    between atoms: C_1  and  C_2
REMARK    2  A    between atoms: C_2  and  N_3
REMARK    3  A    between atoms: N_9  and  C_10
REMARK    4  A    between atoms: C_10  and  C_11
REMARK    5  A    between atoms: C_10  and  C_12
REMARK    6  A    between atoms: C_15  and  O_16
REMARK    7  A    between atoms: O_16  and  C_17
REMARK    8  A    between atoms: C_17  and  C_18
REMARK                            x       y       z     vdW  Elec       q    Type
REMARK                         _______ _______ _______ _____ _____    ______ ____
ROOT
ATOM      1  C   UNL     1      29.311  19.231  15.007  0.00  0.00    +0.102 C 
ATOM      2  C   UNL     1      28.552  19.194  13.679  0.00  0.00    +0.033 C 
ENDROOT
BRANCH   1   9
ATOM      3  N   UNL     1      32.660  15.373  13.141  0.00  0.00    -0.299 N 
ATOM      4  C   UNL     1      33.674  16.360  13.507  0.00  0.00    +0.127 C 
ATOM      5  C   UNL     1      33.262  17.777  13.098  0.00  0.00    +0.129 C 
ATOM      6  N   UNL     1      31.973  18.127  13.701  0.00  0.00    -0.275 N 
ATOM      7  C   UNL     1      31.823  19.351  14.290  0.00  0.00    +0.303 C 
ATOM      8  O   UNL     1      32.755  20.159  14.343  0.00  0.00    -0.253 OA
ATOM      9  N   UNL     1      30.667  19.754  14.862  0.00  0.00    -0.293 N 
ATOM     10  C   UNL     1      30.950  17.099  13.584  0.00  0.00    +0.205 C 
ATOM     11  C   UNL     1      31.326  15.715  13.055  0.00  0.00    +0.233 C 
ATOM     12  O   UNL     1      30.444  14.927  12.702  0.00  0.00    -0.274 OA
ATOM     13  H   UNL     1      30.807  20.680  15.247  0.00  0.00    +0.151 HD
BRANCH   3  15
ATOM     14  C   UNL     1      33.218  13.236  14.195  0.00  0.00    +0.024 C 
ATOM     15  C   UNL     1      33.053  13.998  12.893  0.00  0.00    +0.104 C 
ENDBRANCH   3  15
ENDBRANCH   1   9
BRANCH   1  16
ATOM     16  C   UNL     1      28.563  20.015  16.071  0.00  0.00    -0.024 A 
ATOM     17  C   UNL     1      27.188  19.850  16.274  0.00  0.00    +0.009 A 
ATOM     18  C   UNL     1      26.513  20.594  17.243  0.00  0.00    +0.049 A 
ATOM     19  C   UNL     1      27.195  21.553  18.004  0.00  0.00    +0.156 A 
ATOM     20  C   UNL     1      28.570  21.689  17.829  0.00  0.00    +0.165 A 
ATOM     21  F   UNL     1      29.266  22.567  18.567  0.00  0.00    -0.202 F 
ATOM     22  C   UNL     1      29.251  20.944  16.868  0.00  0.00    +0.047 A 
BRANCH  19  23
ATOM     23  O   UNL     1      26.600  22.380  18.915  0.00  0.00    -0.489 OA
BRANCH  23  24
ATOM     24  C   UNL     1      25.195  22.185  19.079  0.00  0.00    +0.232 C 
BRANCH  24  25
ATOM     25  C   UNL     1      24.496  23.502  18.969  0.00  0.00    +0.027 C 
ATOM     26  C   UNL     1      23.024  23.583  19.288  0.00  0.00    +0.007 C 
ATOM     27  C   UNL     1      23.494  23.742  17.868  0.00  0.00    +0.007 C 
ENDBRANCH  24  25
ENDBRANCH  23  24
ENDBRANCH  19  23
ENDBRANCH   1  16
TORSDOF 6
ENDMDL
MODEL 4
REMARK VINA RESULT:      -6.2      3.150      8.359
REMARK  Name = ZINC000543478179
REMARK  8 active torsions:
REMARK  status: ('A' for Active; 'I' for Inactive)
REMARK    1  A    between atoms: C_1  and  C_2
REMARK    2  A    between atoms: C_2  and  N_3
REMARK    3  A    between atoms: N_9  and  C_10
REMARK    4  A    between atoms: C_10  and  C_11
REMARK    5  A    between atoms: C_10  and  C_12
REMARK    6  A    between atoms: C_15  and  O_16
REMARK    7  A    between atoms: O_16  and  C_17
REMARK    8  A    between atoms: C_17  and  C_18
REMARK                            x       y       z     vdW  Elec       q    Type
REMARK                         _______ _______ _______ _____ _____    ______ ____
ROOT
ATOM      1  C   UNL     1      29.784  20.453  14.584  0.00  0.00    +0.102 C 
ATOM      2  C   UNL     1      29.355  19.115  13.976  0.00  0.00    +0.033 C 
ENDROOT
BRANCH   1   9
ATOM      3  N   UNL     1      34.212  23.560  15.154  0.00  0.00    -0.299 N 
ATOM      4  C   UNL     1      33.470  24.432  14.244  0.00  0.00    +0.127 C 
ATOM      5  C   UNL     1      32.797  23.639  13.120  0.00  0.00    +0.129 C 
ATOM      6  N   UNL     1      31.908  22.616  13.679  0.00  0.00    -0.275 N 
ATOM      7  C   UNL     1      30.656  22.461  13.155  0.00  0.00    +0.303 C 
ATOM      8  O   UNL     1      30.250  23.178  12.235  0.00  0.00    -0.253 OA
ATOM      9  N   UNL     1      29.780  21.538  13.607  0.00  0.00    -0.293 N 
ATOM     10  C   UNL     1      32.489  21.835  14.760  0.00  0.00    +0.205 C 
ATOM     11  C   UNL     1      33.837  22.247  15.352  0.00  0.00    +0.233 C 
ATOM     12  O   UNL     1      34.462  21.463  16.071  0.00  0.00    -0.274 OA
ATOM     13  H   UNL     1      28.919  21.631  13.081  0.00  0.00    +0.151 HD
BRANCH   3  15
ATOM     14  C   UNL     1      35.669  25.504  15.448  0.00  0.00    +0.024 C 
ATOM     15  C   UNL     1      35.346  24.088  15.888  0.00  0.00    +0.104 C 
ENDBRANCH   3  15
ENDBRANCH   1   9
BRANCH   1  16
ATOM     16  C   UNL     1      28.938  20.832  15.786  0.00  0.00    -0.024 A 
ATOM     17  C   UNL     1      27.621  20.379  15.929  0.00  0.00    +0.009 A 
ATOM     18  C   UNL     1      26.851  20.754  17.031  0.00  0.00    +0.049 A 
ATOM     19  C   UNL     1      27.371  21.628  17.996  0.00  0.00    +0.156 A 
ATOM     20  C   UNL     1      28.693  22.047  17.873  0.00  0.00    +0.165 A 
ATOM     21  F   UNL     1      29.240  22.851  18.799  0.00  0.00    -0.202 F 
ATOM     22  C   UNL     1      29.470  21.670  16.780  0.00  0.00    +0.047 A 
BRANCH  19  23
ATOM     23  O   UNL     1      26.663  22.110  19.061  0.00  0.00    -0.489 OA
BRANCH  23  24
ATOM     24  C   UNL     1      25.273  22.326  18.813  0.00  0.00    +0.232 C 
BRANCH  24  25
ATOM     25  C   UNL     1      24.799  23.490  19.624  0.00  0.00    +0.027 C 
ATOM     26  C   UNL     1      23.319  23.749  19.746  0.00  0.00    +0.007 C 
ATOM     27  C   UNL     1      24.181  24.688  18.948  0.00  0.00    +0.007 C 
ENDBRANCH  24  25
ENDBRANCH  23  24
ENDBRANCH  19  23
ENDBRANCH   1  16
TORSDOF 6
ENDMDL
MODEL 5
REMARK VINA RESULT:      -6.2      5.717      8.427
REMARK  Name = ZINC000543478179
REMARK  8 active torsions:
REMARK  status: ('A' for Active; 'I' for Inactive)
REMARK    1  A    between atoms: C_1  and  C_2
REMARK    2  A    between atoms: C_2  and  N_3
REMARK    3  A    between atoms: N_9  and  C_10
REMARK    4  A    between atoms: C_10  and  C_11
REMARK    5  A    between atoms: C_10  and  C_12
REMARK    6  A    between atoms: C_15  and  O_16
REMARK    7  A    between atoms: O_16  and  C_17
REMARK    8  A    between atoms: C_17  and  C_18
REMARK                            x       y       z     vdW  Elec       q    Type
REMARK                         _______ _______ _______ _____ _____    ______ ____
ROOT
ATOM      1  C   UNL     1      31.224  21.399  14.213  0.00  0.00    +0.102 C 
ATOM      2  C   UNL     1      31.143  22.067  15.588  0.00  0.00    +0.033 C 
ENDROOT
BRANCH   1   9
ATOM      3  N   UNL     1      31.854  15.997  14.221  0.00  0.00    -0.299 N 
ATOM      4  C   UNL     1      30.551  16.046  13.561  0.00  0.00    +0.127 C 
ATOM      5  C   UNL     1      29.617  17.065  14.221  0.00  0.00    +0.129 C 
ATOM      6  N   UNL     1      30.234  18.395  14.226  0.00  0.00    -0.275 N 
ATOM      7  C   UNL     1      29.488  19.477  13.856  0.00  0.00    +0.303 C 
ATOM      8  O   UNL     1      28.311  19.357  13.498  0.00  0.00    -0.253 OA
ATOM      9  N   UNL     1      29.978  20.736  13.840  0.00  0.00    -0.293 N 
ATOM     10  C   UNL     1      31.623  18.416  14.659  0.00  0.00    +0.205 C 
ATOM     11  C   UNL     1      32.371  17.100  14.870  0.00  0.00    +0.233 C 
ATOM     12  O   UNL     1      33.442  17.088  15.481  0.00  0.00    -0.274 OA
ATOM     13  H   UNL     1      29.249  21.358  13.512  0.00  0.00    +0.151 HD
BRANCH   3  15
ATOM     14  C   UNL     1      32.138  13.853  13.074  0.00  0.00    +0.024 C 
ATOM     15  C   UNL     1      32.639  14.777  14.169  0.00  0.00    +0.104 C 
ENDBRANCH   3  15
ENDBRANCH   1   9
BRANCH   1  16
ATOM     16  C   UNL     1      31.639  22.376  13.127  0.00  0.00    -0.024 A 
ATOM     17  C   UNL     1      32.973  22.504  12.725  0.00  0.00    +0.009 A 
ATOM     18  C   UNL     1      33.339  23.422  11.739  0.00  0.00    +0.049 A 
ATOM     19  C   UNL     1      32.379  24.263  11.161  0.00  0.00    +0.156 A 
ATOM     20  C   UNL     1      31.046  24.108  11.532  0.00  0.00    +0.165 A 
ATOM     21  F   UNL     1      30.090  24.866  10.971  0.00  0.00    -0.202 F 
ATOM     22  C   UNL     1      30.672  23.188  12.511  0.00  0.00    +0.047 A 
BRANCH  19  23
ATOM     23  O   UNL     1      32.660  25.243  10.250  0.00  0.00    -0.489 OA
BRANCH  23  24
ATOM     24  C   UNL     1      33.559  24.858   9.209  0.00  0.00    +0.232 C 
BRANCH  24  25
ATOM     25  C   UNL     1      32.810  24.096   8.163  0.00  0.00    +0.027 C 
ATOM     26  C   UNL     1      32.918  22.592   8.128  0.00  0.00    +0.007 C 
ATOM     27  C   UNL     1      33.552  23.415   7.040  0.00  0.00    +0.007 C 
ENDBRANCH  24  25
ENDBRANCH  23  24
ENDBRANCH  19  23
ENDBRANCH   1  16
TORSDOF 6
ENDMDL
MODEL 6
REMARK VINA RESULT:      -6.1      4.417      7.702
REMARK  Name = ZINC000543478179
REMARK  8 active torsions:
REMARK  status: ('A' for Active; 'I' for Inactive)
REMARK    1  A    between atoms: C_1  and  C_2
REMARK    2  A    between atoms: C_2  and  N_3
REMARK    3  A    between atoms: N_9  and  C_10
REMARK    4  A    between atoms: C_10  and  C_11
REMARK    5  A    between atoms: C_10  and  C_12
REMARK    6  A    between atoms: C_15  and  O_16
REMARK    7  A    between atoms: O_16  and  C_17
REMARK    8  A    between atoms: C_17  and  C_18
REMARK                            x       y       z     vdW  Elec       q    Type
REMARK                         _______ _______ _______ _____ _____    ______ ____
ROOT
ATOM      1  C   UNL     1      21.961  25.719  20.176  0.00  0.00    +0.102 C 
ATOM      2  C   UNL     1      22.258  25.555  21.668  0.00  0.00    +0.033 C 
ENDROOT
BRANCH   1   9
ATOM      3  N   UNL     1      17.158  28.166  19.447  0.00  0.00    -0.299 N 
ATOM      4  C   UNL     1      17.997  29.173  18.801  0.00  0.00    +0.127 C 
ATOM      5  C   UNL     1      19.279  29.440  19.595  0.00  0.00    +0.129 C 
ATOM      6  N   UNL     1      20.032  28.196  19.780  0.00  0.00    -0.275 N 
ATOM      7  C   UNL     1      21.381  28.194  19.562  0.00  0.00    +0.303 C 
ATOM      8  O   UNL     1      21.975  29.211  19.192  0.00  0.00    -0.253 OA
ATOM      9  N   UNL     1      22.148  27.093  19.716  0.00  0.00    -0.293 N 
ATOM     10  C   UNL     1      19.230  27.061  20.211  0.00  0.00    +0.205 C 
ATOM     11  C   UNL     1      17.707  27.178  20.241  0.00  0.00    +0.233 C 
ATOM     12  O   UNL     1      17.033  26.339  20.844  0.00  0.00    -0.274 OA
ATOM     13  H   UNL     1      23.102  27.333  19.477  0.00  0.00    +0.151 HD
BRANCH   3  15
ATOM     14  C   UNL     1      15.208  29.599  19.084  0.00  0.00    +0.024 C 
ATOM     15  C   UNL     1      15.723  28.179  19.230  0.00  0.00    +0.104 C 
ENDBRANCH   3  15
ENDBRANCH   1   9
BRANCH   1  16
ATOM     16  C   UNL     1      22.782  24.769  19.322  0.00  0.00    -0.024 A 
ATOM     17  C   UNL     1      23.792  23.973  19.874  0.00  0.00    +0.009 A 
ATOM     18  C   UNL     1      24.550  23.120  19.070  0.00  0.00    +0.049 A 
ATOM     19  C   UNL     1      24.340  23.076  17.685  0.00  0.00    +0.156 A 
ATOM     20  C   UNL     1      23.309  23.840  17.142  0.00  0.00    +0.165 A 
ATOM     21  F   UNL     1      23.049  23.794  15.826  0.00  0.00    -0.202 F 
ATOM     22  C   UNL     1      22.543  24.687  17.940  0.00  0.00    +0.047 A 
BRANCH  19  23
ATOM     23  O   UNL     1      25.087  22.333  16.814  0.00  0.00    -0.489 OA
BRANCH  23  24
ATOM     24  C   UNL     1      26.059  21.486  17.426  0.00  0.00    +0.232 C 
BRANCH  24  25
ATOM     25  C   UNL     1      26.562  20.500  16.419  0.00  0.00    +0.027 C 
ATOM     26  C   UNL     1      26.252  19.036  16.604  0.00  0.00    +0.007 C 
ATOM     27  C   UNL     1      27.660  19.533  16.783  0.00  0.00    +0.007 C 
ENDBRANCH  24  25
ENDBRANCH  23  24
ENDBRANCH  19  23
ENDBRANCH   1  16
TORSDOF 6
ENDMDL
MODEL 7
REMARK VINA RESULT:      -6.0      6.549      9.191
REMARK  Name = ZINC000543478179
REMARK  8 active torsions:
REMARK  status: ('A' for Active; 'I' for Inactive)
REMARK    1  A    between atoms: C_1  and  C_2
REMARK    2  A    between atoms: C_2  and  N_3
REMARK    3  A    between atoms: N_9  and  C_10
REMARK    4  A    between atoms: C_10  and  C_11
REMARK    5  A    between atoms: C_10  and  C_12
REMARK    6  A    between atoms: C_15  and  O_16
REMARK    7  A    between atoms: O_16  and  C_17
REMARK    8  A    between atoms: C_17  and  C_18
REMARK                            x       y       z     vdW  Elec       q    Type
REMARK                         _______ _______ _______ _____ _____    ______ ____
ROOT
ATOM      1  C   UNL     1      31.967  22.755  20.835  0.00  0.00    +0.102 C 
ATOM      2  C   UNL     1      31.224  22.411  22.129  0.00  0.00    +0.033 C 
ENDROOT
BRANCH   1   9
ATOM      3  N   UNL     1      35.788  26.166  22.665  0.00  0.00    -0.299 N 
ATOM      4  C   UNL     1      36.677  25.161  22.086  0.00  0.00    +0.127 C 
ATOM      5  C   UNL     1      36.205  23.738  22.397  0.00  0.00    +0.129 C 
ATOM      6  N   UNL     1      34.834  23.538  21.919  0.00  0.00    -0.275 N 
ATOM      7  C   UNL     1      34.526  22.397  21.234  0.00  0.00    +0.303 C 
ATOM      8  O   UNL     1      35.382  21.541  20.990  0.00  0.00    -0.253 OA
ATOM      9  N   UNL     1      33.287  22.134  20.766  0.00  0.00    -0.293 N 
ATOM     10  C   UNL     1      33.912  24.612  22.258  0.00  0.00    +0.205 C 
ATOM     11  C   UNL     1      34.449  25.904  22.875  0.00  0.00    +0.233 C 
ATOM     12  O   UNL     1      33.675  26.704  23.406  0.00  0.00    -0.274 OA
ATOM     13  H   UNL     1      33.312  21.247  20.277  0.00  0.00    +0.151 HD
BRANCH   3  15
ATOM     14  C   UNL     1      37.162  28.030  21.873  0.00  0.00    +0.024 C 
ATOM     15  C   UNL     1      36.309  27.478  23.001  0.00  0.00    +0.104 C 
ENDBRANCH   3  15
ENDBRANCH   1   9
BRANCH   1  16
ATOM     16  C   UNL     1      31.159  22.398  19.601  0.00  0.00    -0.024 A 
ATOM     17  C   UNL     1      29.863  22.890  19.403  0.00  0.00    +0.009 A 
ATOM     18  C   UNL     1      29.128  22.534  18.271  0.00  0.00    +0.049 A 
ATOM     19  C   UNL     1      29.660  21.643  17.330  0.00  0.00    +0.156 A 
ATOM     20  C   UNL     1      30.963  21.184  17.507  0.00  0.00    +0.165 A 
ATOM     21  F   UNL     1      31.523  20.362  16.606  0.00  0.00    -0.202 F 
ATOM     22  C   UNL     1      31.706  21.541  18.631  0.00  0.00    +0.047 A 
BRANCH  19  23
ATOM     23  O   UNL     1      28.981  21.179  16.237  0.00  0.00    -0.489 OA
BRANCH  23  24
ATOM     24  C   UNL     1      27.595  20.917  16.456  0.00  0.00    +0.232 C 
BRANCH  24  25
ATOM     25  C   UNL     1      27.416  19.484  16.846  0.00  0.00    +0.027 C 
ATOM     26  C   UNL     1      27.479  18.418  15.781  0.00  0.00    +0.007 C 
ATOM     27  C   UNL     1      26.168  18.737  16.446  0.00  0.00    +0.007 C 
ENDBRANCH  24  25
ENDBRANCH  23  24
ENDBRANCH  19  23
ENDBRANCH   1  16
TORSDOF 6
ENDMDL
MODEL 8
REMARK VINA RESULT:      -6.0      7.091     11.843
REMARK  Name = ZINC000543478179
REMARK  8 active torsions:
REMARK  status: ('A' for Active; 'I' for Inactive)
REMARK    1  A    between atoms: C_1  and  C_2
REMARK    2  A    between atoms: C_2  and  N_3
REMARK    3  A    between atoms: N_9  and  C_10
REMARK    4  A    between atoms: C_10  and  C_11
REMARK    5  A    between atoms: C_10  and  C_12
REMARK    6  A    between atoms: C_15  and  O_16
REMARK    7  A    between atoms: O_16  and  C_17
REMARK    8  A    between atoms: C_17  and  C_18
REMARK                            x       y       z     vdW  Elec       q    Type
REMARK                         _______ _______ _______ _____ _____    ______ ____
ROOT
ATOM      1  C   UNL     1      33.286  16.128  14.987  0.00  0.00    +0.102 C 
ATOM      2  C   UNL     1      33.903  16.561  16.319  0.00  0.00    +0.033 C 
ENDROOT
BRANCH   1   9
ATOM      3  N   UNL     1      35.475  13.865  10.552  0.00  0.00    -0.299 N 
ATOM      4  C   UNL     1      34.642  12.737  10.963  0.00  0.00    +0.127 C 
ATOM      5  C   UNL     1      34.696  12.511  12.476  0.00  0.00    +0.129 C 
ATOM      6  N   UNL     1      34.290  13.727  13.188  0.00  0.00    -0.275 N 
ATOM      7  C   UNL     1      33.415  13.628  14.232  0.00  0.00    +0.303 C 
ATOM      8  O   UNL     1      32.942  12.540  14.576  0.00  0.00    -0.253 OA
ATOM      9  N   UNL     1      32.997  14.697  14.944  0.00  0.00    -0.293 N 
ATOM     10  C   UNL     1      34.905  14.951  12.696  0.00  0.00    +0.205 C 
ATOM     11  C   UNL     1      35.726  14.920  11.407  0.00  0.00    +0.233 C 
ATOM     12  O   UNL     1      36.462  15.867  11.119  0.00  0.00    -0.274 OA
ATOM     13  H   UNL     1      32.339  14.376  15.645  0.00  0.00    +0.151 HD
BRANCH   3  15
ATOM     14  C   UNL     1      37.169  12.910   9.066  0.00  0.00    +0.024 C 
ATOM     15  C   UNL     1      36.027  13.900   9.210  0.00  0.00    +0.104 C 
ENDBRANCH   3  15
ENDBRANCH   1   9
BRANCH   1  16
ATOM     16  C   UNL     1      32.036  16.921  14.652  0.00  0.00    -0.024 A 
ATOM     17  C   UNL     1      32.064  18.314  14.518  0.00  0.00    +0.009 A 
ATOM     18  C   UNL     1      30.900  19.029  14.230  0.00  0.00    +0.049 A 
ATOM     19  C   UNL     1      29.671  18.367  14.109  0.00  0.00    +0.156 A 
ATOM     20  C   UNL     1      29.650  16.978  14.204  0.00  0.00    +0.165 A 
ATOM     21  F   UNL     1      28.500  16.303  14.054  0.00  0.00    -0.202 F 
ATOM     22  C   UNL     1      30.809  16.257  14.484  0.00  0.00    +0.047 A 
BRANCH  19  23
ATOM     23  O   UNL     1      28.473  18.994  13.909  0.00  0.00    -0.489 OA
BRANCH  23  24
ATOM     24  C   UNL     1      28.129  19.966  14.896  0.00  0.00    +0.232 C 
BRANCH  24  25
ATOM     25  C   UNL     1      27.702  19.271  16.149  0.00  0.00    +0.027 C 
ATOM     26  C   UNL     1      26.604  18.238  16.081  0.00  0.00    +0.007 C 
ATOM     27  C   UNL     1      26.351  19.558  16.756  0.00  0.00    +0.007 C 
ENDBRANCH  24  25
ENDBRANCH  23  24
ENDBRANCH  19  23
ENDBRANCH   1  16
TORSDOF 6
ENDMDL
MODEL 9
REMARK VINA RESULT:      -5.9      4.792      7.952
REMARK  Name = ZINC000543478179
REMARK  8 active torsions:
REMARK  status: ('A' for Active; 'I' for Inactive)
REMARK    1  A    between atoms: C_1  and  C_2
REMARK    2  A    between atoms: C_2  and  N_3
REMARK    3  A    between atoms: N_9  and  C_10
REMARK    4  A    between atoms: C_10  and  C_11
REMARK    5  A    between atoms: C_10  and  C_12
REMARK    6  A    between atoms: C_15  and  O_16
REMARK    7  A    between atoms: O_16  and  C_17
REMARK    8  A    between atoms: C_17  and  C_18
REMARK                            x       y       z     vdW  Elec       q    Type
REMARK                         _______ _______ _______ _____ _____    ______ ____
ROOT
ATOM      1  C   UNL     1      29.215  20.381  15.595  0.00  0.00    +0.102 C 
ATOM      2  C   UNL     1      27.848  20.434  16.282  0.00  0.00    +0.033 C 
ENDROOT
BRANCH   1   9
ATOM      3  N   UNL     1      32.986  23.225  12.896  0.00  0.00    -0.299 N 
ATOM      4  C   UNL     1      33.744  23.002  14.126  0.00  0.00    +0.127 C 
ATOM      5  C   UNL     1      32.875  23.197  15.373  0.00  0.00    +0.129 C 
ATOM      6  N   UNL     1      31.710  22.307  15.327  0.00  0.00    -0.275 N 
ATOM      7  C   UNL     1      31.366  21.602  16.445  0.00  0.00    +0.303 C 
ATOM      8  O   UNL     1      32.026  21.681  17.486  0.00  0.00    -0.253 OA
ATOM      9  N   UNL     1      30.304  20.767  16.488  0.00  0.00    -0.293 N 
ATOM     10  C   UNL     1      31.013  22.289  14.050  0.00  0.00    +0.205 C 
ATOM     11  C   UNL     1      31.625  22.998  12.842  0.00  0.00    +0.233 C 
ATOM     12  O   UNL     1      30.939  23.219  11.841  0.00  0.00    -0.274 OA
ATOM     13  H   UNL     1      30.267  20.346  17.408  0.00  0.00    +0.151 HD
BRANCH   3  15
ATOM     14  C   UNL     1      34.424  22.512  11.050  0.00  0.00    +0.024 C 
ATOM     15  C   UNL     1      33.675  23.662  11.697  0.00  0.00    +0.104 C 
ENDBRANCH   3  15
ENDBRANCH   1   9
BRANCH   1  16
ATOM     16  C   UNL     1      29.497  19.019  14.989  0.00  0.00    -0.024 A 
ATOM     17  C   UNL     1      30.760  18.687  14.482  0.00  0.00    +0.009 A 
ATOM     18  C   UNL     1      30.995  17.436  13.910  0.00  0.00    +0.049 A 
ATOM     19  C   UNL     1      29.958  16.501  13.795  0.00  0.00    +0.156 A 
ATOM     20  C   UNL     1      28.713  16.816  14.334  0.00  0.00    +0.165 A 
ATOM     21  F   UNL     1      27.705  15.932  14.280  0.00  0.00    -0.202 F 
ATOM     22  C   UNL     1      28.473  18.061  14.914  0.00  0.00    +0.047 A 
BRANCH  19  23
ATOM     23  O   UNL     1      30.079  15.287  13.178  0.00  0.00    -0.489 OA
BRANCH  23  24
ATOM     24  C   UNL     1      31.413  14.917  12.832  0.00  0.00    +0.232 C 
BRANCH  24  25
ATOM     25  C   UNL     1      31.383  13.681  11.990  0.00  0.00    +0.027 C 
ATOM     26  C   UNL     1      32.427  12.615  12.209  0.00  0.00    +0.007 C 
ATOM     27  C   UNL     1      32.450  13.441  10.952  0.00  0.00    +0.007 C 
ENDBRANCH  24  25
ENDBRANCH  23  24
ENDBRANCH  19  23
ENDBRANCH   1  16
TORSDOF 6
ENDMDL
