MODEL 1
REMARK VINA RESULT:      -6.8      0.000      0.000
REMARK  Name = ZINC000560333501
REMARK  5 active torsions:
REMARK  status: ('A' for Active; 'I' for Inactive)
REMARK    1  A    between atoms: C_2  and  C_3
REMARK    2  A    between atoms: C_7  and  C_8
REMARK    3  A    between atoms: C_8  and  C_9
REMARK    4  A    between atoms: N_11  and  C_12
REMARK    5  A    between atoms: C_12  and  C_13
REMARK                            x       y       z     vdW  Elec       q    Type
REMARK                         _______ _______ _______ _____ _____    ______ ____
ROOT
ATOM      1  C   UNL     1      29.464  22.850  16.718  0.00  0.00    +0.217 C 
ATOM      2  O   UNL     1      28.435  22.496  17.299  0.00  0.00    -0.275 OA
ATOM      3  N   UNL     1      30.452  23.609  17.322  0.00  0.00    -0.315 N 
ATOM      4  H   UNL     1      31.361  23.588  16.875  0.00  0.00    +0.149 HD
ENDROOT
BRANCH   1   5
ATOM      5  C   UNL     1      29.710  22.471  15.276  0.00  0.00    +0.131 C 
BRANCH   5  10
ATOM      6  C   UNL     1      32.082  19.475  15.589  0.00  0.00    +0.052 A 
ATOM      7  C   UNL     1      31.439  18.539  14.771  0.00  0.00    +0.019 A 
ATOM      8  C   UNL     1      30.263  18.887  14.108  0.00  0.00    +0.002 A 
ATOM      9  C   UNL     1      29.728  20.169  14.254  0.00  0.00    +0.004 A 
ATOM     10  C   UNL     1      30.362  21.122  15.064  0.00  0.00    -0.037 A 
ATOM     11  C   UNL     1      31.541  20.759  15.737  0.00  0.00    +0.023 A 
BRANCH   6  13
ATOM     12  N   UNL     1      34.253  18.809  16.843  0.00  0.00    -0.191 NA
ATOM     13  C   UNL     1      33.280  19.109  16.285  0.00  0.00    +0.099 C 
ENDBRANCH   6  13
ENDBRANCH   5  10
ENDBRANCH   1   5
BRANCH   3  14
ATOM     14  C   UNL     1      30.440  23.723  18.769  0.00  0.00    +0.108 C 
BRANCH  14  15
ATOM     15  C   UNL     1      31.433  22.830  19.537  0.00  0.00    +0.011 C 
ATOM     16  C   UNL     1      31.147  22.747  21.034  0.00  0.00    +0.033 C 
ATOM     17  C   UNL     1      31.234  24.124  21.674  0.00  0.00    +0.161 C 
ATOM     18  O   UNL     1      32.412  24.846  21.323  0.00  0.00    -0.373 OA
ATOM     19  C   UNL     1      32.978  24.781  19.981  0.00  0.00    +0.070 C 
ATOM     20  C   UNL     1      32.604  25.911  18.961  0.00  0.00    +0.035 C 
ATOM     21  C   UNL     1      33.784  26.726  19.490  0.00  0.00    +0.006 C 
ATOM     22  C   UNL     1      34.418  25.398  19.944  0.00  0.00    +0.035 C 
ATOM     23  C   UNL     1      32.873  23.366  19.398  0.00  0.00    +0.040 C 
ENDBRANCH  14  15
ENDBRANCH   3  14
TORSDOF 5
ENDMDL
MODEL 2
REMARK VINA RESULT:      -6.6      4.708      7.242
REMARK  Name = ZINC000560333501
REMARK  5 active torsions:
REMARK  status: ('A' for Active; 'I' for Inactive)
REMARK    1  A    between atoms: C_2  and  C_3
REMARK    2  A    between atoms: C_7  and  C_8
REMARK    3  A    between atoms: C_8  and  C_9
REMARK    4  A    between atoms: N_11  and  C_12
REMARK    5  A    between atoms: C_12  and  C_13
REMARK                            x       y       z     vdW  Elec       q    Type
REMARK                         _______ _______ _______ _____ _____    ______ ____
ROOT
ATOM      1  C   UNL     1      30.218  23.954  13.403  0.00  0.00    +0.217 C 
ATOM      2  O   UNL     1      29.530  23.084  12.863  0.00  0.00    -0.275 OA
ATOM      3  N   UNL     1      30.791  23.799  14.654  0.00  0.00    -0.315 N 
ATOM      4  H   UNL     1      31.560  24.422  14.868  0.00  0.00    +0.149 HD
ENDROOT
BRANCH   1   5
ATOM      5  C   UNL     1      30.478  25.274  12.716  0.00  0.00    +0.131 C 
BRANCH   5  10
ATOM      6  C   UNL     1      32.814  24.353   9.818  0.00  0.00    +0.052 A 
ATOM      7  C   UNL     1      33.707  25.430   9.842  0.00  0.00    +0.019 A 
ATOM      8  C   UNL     1      33.565  26.429  10.804  0.00  0.00    +0.002 A 
ATOM      9  C   UNL     1      32.537  26.355  11.746  0.00  0.00    +0.004 A 
ATOM     10  C   UNL     1      31.637  25.280  11.742  0.00  0.00    -0.037 A 
ATOM     11  C   UNL     1      31.781  24.283  10.762  0.00  0.00    +0.023 A 
BRANCH   6  13
ATOM     12  N   UNL     1      33.051  22.511   8.006  0.00  0.00    -0.191 NA
ATOM     13  C   UNL     1      32.949  23.336   8.816  0.00  0.00    +0.099 C 
ENDBRANCH   6  13
ENDBRANCH   5  10
ENDBRANCH   1   5
BRANCH   3  14
ATOM     14  C   UNL     1      30.860  22.461  15.214  0.00  0.00    +0.108 C 
BRANCH  14  15
ATOM     15  C   UNL     1      32.265  21.933  15.560  0.00  0.00    +0.011 C 
ATOM     16  C   UNL     1      33.292  22.162  14.454  0.00  0.00    +0.033 C 
ATOM     17  C   UNL     1      32.875  21.449  13.177  0.00  0.00    +0.161 C 
ATOM     18  O   UNL     1      32.496  20.089  13.378  0.00  0.00    -0.373 OA
ATOM     19  C   UNL     1      31.755  19.668  14.560  0.00  0.00    +0.070 C 
ATOM     20  C   UNL     1      30.195  19.547  14.456  0.00  0.00    +0.035 C 
ATOM     21  C   UNL     1      30.378  18.107  13.976  0.00  0.00    +0.006 C 
ATOM     22  C   UNL     1      31.741  18.107  14.692  0.00  0.00    +0.035 C 
ATOM     23  C   UNL     1      32.232  20.411  15.814  0.00  0.00    +0.040 C 
ENDBRANCH  14  15
ENDBRANCH   3  14
TORSDOF 5
ENDMDL
MODEL 3
REMARK VINA RESULT:      -6.6      4.730      7.458
REMARK  Name = ZINC000560333501
REMARK  5 active torsions:
REMARK  status: ('A' for Active; 'I' for Inactive)
REMARK    1  A    between atoms: C_2  and  C_3
REMARK    2  A    between atoms: C_7  and  C_8
REMARK    3  A    between atoms: C_8  and  C_9
REMARK    4  A    between atoms: N_11  and  C_12
REMARK    5  A    between atoms: C_12  and  C_13
REMARK                            x       y       z     vdW  Elec       q    Type
REMARK                         _______ _______ _______ _____ _____    ______ ____
ROOT
ATOM      1  C   UNL     1      30.196  23.861  13.434  0.00  0.00    +0.217 C 
ATOM      2  O   UNL     1      29.468  23.003  12.928  0.00  0.00    -0.275 OA
ATOM      3  N   UNL     1      30.885  23.666  14.619  0.00  0.00    -0.315 N 
ATOM      4  H   UNL     1      31.664  24.290  14.786  0.00  0.00    +0.149 HD
ENDROOT
BRANCH   1   5
ATOM      5  C   UNL     1      30.379  25.208  12.776  0.00  0.00    +0.131 C 
BRANCH   5  10
ATOM      6  C   UNL     1      33.490  26.379  10.864  0.00  0.00    +0.052 A 
ATOM      7  C   UNL     1      33.683  25.306   9.986  0.00  0.00    +0.019 A 
ATOM      8  C   UNL     1      32.798  24.228  10.001  0.00  0.00    +0.002 A 
ATOM      9  C   UNL     1      31.718  24.219  10.885  0.00  0.00    +0.004 A 
ATOM     10  C   UNL     1      31.504  25.288  11.767  0.00  0.00    -0.037 A 
ATOM     11  C   UNL     1      32.406  26.366  11.753  0.00  0.00    +0.023 A 
BRANCH   6  13
ATOM     12  N   UNL     1      35.152  28.371  10.865  0.00  0.00    -0.191 NA
ATOM     13  C   UNL     1      34.411  27.477  10.862  0.00  0.00    +0.099 C 
ENDBRANCH   6  13
ENDBRANCH   5  10
ENDBRANCH   1   5
BRANCH   3  14
ATOM     14  C   UNL     1      31.017  22.309  15.120  0.00  0.00    +0.108 C 
BRANCH  14  15
ATOM     15  C   UNL     1      32.453  21.781  15.299  0.00  0.00    +0.011 C 
ATOM     16  C   UNL     1      33.344  22.011  14.082  0.00  0.00    +0.033 C 
ATOM     17  C   UNL     1      32.780  21.299  12.861  0.00  0.00    +0.161 C 
ATOM     18  O   UNL     1      32.427  19.939  13.103  0.00  0.00    -0.373 OA
ATOM     19  C   UNL     1      31.829  19.517  14.363  0.00  0.00    +0.070 C 
ATOM     20  C   UNL     1      30.268  19.396  14.441  0.00  0.00    +0.035 C 
ATOM     21  C   UNL     1      30.393  17.957  13.942  0.00  0.00    +0.006 C 
ATOM     22  C   UNL     1      31.831  17.955  14.494  0.00  0.00    +0.035 C 
ATOM     23  C   UNL     1      32.449  20.259  15.554  0.00  0.00    +0.040 C 
ENDBRANCH  14  15
ENDBRANCH   3  14
TORSDOF 5
ENDMDL
MODEL 4
REMARK VINA RESULT:      -6.5      3.534      4.673
REMARK  Name = ZINC000560333501
REMARK  5 active torsions:
REMARK  status: ('A' for Active; 'I' for Inactive)
REMARK    1  A    between atoms: C_2  and  C_3
REMARK    2  A    between atoms: C_7  and  C_8
REMARK    3  A    between atoms: C_8  and  C_9
REMARK    4  A    between atoms: N_11  and  C_12
REMARK    5  A    between atoms: C_12  and  C_13
REMARK                            x       y       z     vdW  Elec       q    Type
REMARK                         _______ _______ _______ _____ _____    ______ ____
ROOT
ATOM      1  C   UNL     1      30.306  22.275  15.079  0.00  0.00    +0.217 C 
ATOM      2  O   UNL     1      31.017  21.297  15.326  0.00  0.00    -0.275 OA
ATOM      3  N   UNL     1      29.944  23.209  16.034  0.00  0.00    -0.315 N 
ATOM      4  H   UNL     1      29.626  24.103  15.681  0.00  0.00    +0.149 HD
ENDROOT
BRANCH   1   5
ATOM      5  C   UNL     1      29.772  22.512  13.686  0.00  0.00    +0.131 C 
BRANCH   5  10
ATOM      6  C   UNL     1      31.988  24.074  10.974  0.00  0.00    +0.052 A 
ATOM      7  C   UNL     1      31.820  25.437  11.244  0.00  0.00    +0.019 A 
ATOM      8  C   UNL     1      31.015  25.840  12.309  0.00  0.00    +0.002 A 
ATOM      9  C   UNL     1      30.382  24.888  13.110  0.00  0.00    +0.004 A 
ATOM     10  C   UNL     1      30.545  23.518  12.859  0.00  0.00    -0.037 A 
ATOM     11  C   UNL     1      31.348  23.120  11.778  0.00  0.00    +0.023 A 
BRANCH   6  13
ATOM     12  N   UNL     1      33.454  23.319   8.971  0.00  0.00    -0.191 NA
ATOM     13  C   UNL     1      32.800  23.661   9.867  0.00  0.00    +0.099 C 
ENDBRANCH   6  13
ENDBRANCH   5  10
ENDBRANCH   1   5
BRANCH   3  14
ATOM     14  C   UNL     1      30.677  23.227  17.287  0.00  0.00    +0.108 C 
BRANCH  14  15
ATOM     15  C   UNL     1      31.924  24.128  17.341  0.00  0.00    +0.011 C 
ATOM     16  C   UNL     1      33.233  23.373  17.128  0.00  0.00    +0.033 C 
ATOM     17  C   UNL     1      33.426  22.319  18.208  0.00  0.00    +0.161 C 
ATOM     18  O   UNL     1      33.220  22.810  19.531  0.00  0.00    -0.373 OA
ATOM     19  C   UNL     1      32.176  23.782  19.832  0.00  0.00    +0.070 C 
ATOM     20  C   UNL     1      30.801  23.253  20.369  0.00  0.00    +0.035 C 
ATOM     21  C   UNL     1      31.370  23.326  21.786  0.00  0.00    +0.006 C 
ATOM     22  C   UNL     1      32.362  24.384  21.266  0.00  0.00    +0.035 C 
ATOM     23  C   UNL     1      32.041  24.823  18.714  0.00  0.00    +0.040 C 
ENDBRANCH  14  15
ENDBRANCH   3  14
TORSDOF 5
ENDMDL
MODEL 5
REMARK VINA RESULT:      -6.4      5.091      7.693
REMARK  Name = ZINC000560333501
REMARK  5 active torsions:
REMARK  status: ('A' for Active; 'I' for Inactive)
REMARK    1  A    between atoms: C_2  and  C_3
REMARK    2  A    between atoms: C_7  and  C_8
REMARK    3  A    between atoms: C_8  and  C_9
REMARK    4  A    between atoms: N_11  and  C_12
REMARK    5  A    between atoms: C_12  and  C_13
REMARK                            x       y       z     vdW  Elec       q    Type
REMARK                         _______ _______ _______ _____ _____    ______ ____
ROOT
ATOM      1  C   UNL     1      31.580  21.095  13.557  0.00  0.00    +0.217 C 
ATOM      2  O   UNL     1      32.703  20.731  13.916  0.00  0.00    -0.275 OA
ATOM      3  N   UNL     1      31.369  22.002  12.533  0.00  0.00    -0.315 N 
ATOM      4  H   UNL     1      30.442  22.002  12.126  0.00  0.00    +0.149 HD
ENDROOT
BRANCH   1   5
ATOM      5  C   UNL     1      30.339  20.563  14.235  0.00  0.00    +0.131 C 
BRANCH   5  10
ATOM      6  C   UNL     1      27.873  22.199  16.673  0.00  0.00    +0.052 A 
ATOM      7  C   UNL     1      28.735  23.010  17.419  0.00  0.00    +0.019 A 
ATOM      8  C   UNL     1      30.096  23.042  17.117  0.00  0.00    +0.002 A 
ATOM      9  C   UNL     1      30.600  22.270  16.068  0.00  0.00    +0.004 A 
ATOM     10  C   UNL     1      29.751  21.457  15.304  0.00  0.00    -0.037 A 
ATOM     11  C   UNL     1      28.383  21.422  15.622  0.00  0.00    +0.023 A 
BRANCH   6  13
ATOM     12  N   UNL     1      25.349  22.121  17.264  0.00  0.00    -0.191 NA
ATOM     13  C   UNL     1      26.478  22.152  16.997  0.00  0.00    +0.099 C 
ENDBRANCH   6  13
ENDBRANCH   5  10
ENDBRANCH   1   5
BRANCH   3  14
ATOM     14  C   UNL     1      32.474  22.293  11.637  0.00  0.00    +0.108 C 
BRANCH  14  15
ATOM     15  C   UNL     1      32.107  22.874  10.259  0.00  0.00    +0.011 C 
ATOM     16  C   UNL     1      32.994  22.366   9.126  0.00  0.00    +0.033 C 
ATOM     17  C   UNL     1      34.447  22.744   9.370  0.00  0.00    +0.161 C 
ATOM     18  O   UNL     1      34.632  24.115   9.714  0.00  0.00    -0.373 OA
ATOM     19  C   UNL     1      33.684  24.825  10.563  0.00  0.00    +0.070 C 
ATOM     20  C   UNL     1      33.997  24.934  12.096  0.00  0.00    +0.035 C 
ATOM     21  C   UNL     1      34.791  26.208  11.804  0.00  0.00    +0.006 C 
ATOM     22  C   UNL     1      33.942  26.370  10.529  0.00  0.00    +0.035 C 
ATOM     23  C   UNL     1      32.239  24.411  10.259  0.00  0.00    +0.040 C 
ENDBRANCH  14  15
ENDBRANCH   3  14
TORSDOF 5
ENDMDL
MODEL 6
REMARK VINA RESULT:      -6.4      1.549      2.048
REMARK  Name = ZINC000560333501
REMARK  5 active torsions:
REMARK  status: ('A' for Active; 'I' for Inactive)
REMARK    1  A    between atoms: C_2  and  C_3
REMARK    2  A    between atoms: C_7  and  C_8
REMARK    3  A    between atoms: C_8  and  C_9
REMARK    4  A    between atoms: N_11  and  C_12
REMARK    5  A    between atoms: C_12  and  C_13
REMARK                            x       y       z     vdW  Elec       q    Type
REMARK                         _______ _______ _______ _____ _____    ______ ____
ROOT
ATOM      1  C   UNL     1      29.346  23.194  17.241  0.00  0.00    +0.217 C 
ATOM      2  O   UNL     1      28.370  22.854  17.915  0.00  0.00    -0.275 OA
ATOM      3  N   UNL     1      30.345  24.025  17.719  0.00  0.00    -0.315 N 
ATOM      4  H   UNL     1      31.222  23.998  17.215  0.00  0.00    +0.149 HD
ENDROOT
BRANCH   1   5
ATOM      5  C   UNL     1      29.510  22.715  15.818  0.00  0.00    +0.131 C 
BRANCH   5  10
ATOM      6  C   UNL     1      30.986  19.389  14.609  0.00  0.00    +0.052 A 
ATOM      7  C   UNL     1      32.261  19.438  15.184  0.00  0.00    +0.019 A 
ATOM      8  C   UNL     1      32.625  20.528  15.975  0.00  0.00    +0.002 A 
ATOM      9  C   UNL     1      31.720  21.567  16.197  0.00  0.00    +0.004 A 
ATOM     10  C   UNL     1      30.436  21.532  15.635  0.00  0.00    -0.037 A 
ATOM     11  C   UNL     1      30.080  20.436  14.831  0.00  0.00    +0.023 A 
BRANCH   6  13
ATOM     12  N   UNL     1      30.322  17.374  13.117  0.00  0.00    -0.191 NA
ATOM     13  C   UNL     1      30.620  18.278  13.781  0.00  0.00    +0.099 C 
ENDBRANCH   6  13
ENDBRANCH   5  10
ENDBRANCH   1   5
BRANCH   3  14
ATOM     14  C   UNL     1      30.423  24.247  19.152  0.00  0.00    +0.108 C 
BRANCH  14  15
ATOM     15  C   UNL     1      30.968  23.082  19.999  0.00  0.00    +0.011 C 
ATOM     16  C   UNL     1      31.072  23.405  21.487  0.00  0.00    +0.033 C 
ATOM     17  C   UNL     1      32.018  24.574  21.718  0.00  0.00    +0.161 C 
ATOM     18  O   UNL     1      33.264  24.445  21.039  0.00  0.00    -0.373 OA
ATOM     19  C   UNL     1      33.352  23.867  19.704  0.00  0.00    +0.070 C 
ATOM     20  C   UNL     1      33.372  24.839  18.473  0.00  0.00    +0.035 C 
ATOM     21  C   UNL     1      34.892  24.920  18.610  0.00  0.00    +0.006 C 
ATOM     22  C   UNL     1      34.839  23.553  19.320  0.00  0.00    +0.035 C 
ATOM     23  C   UNL     1      32.387  22.687  19.539  0.00  0.00    +0.040 C 
ENDBRANCH  14  15
ENDBRANCH   3  14
TORSDOF 5
ENDMDL
MODEL 7
REMARK VINA RESULT:      -6.3      1.912      2.740
REMARK  Name = ZINC000560333501
REMARK  5 active torsions:
REMARK  status: ('A' for Active; 'I' for Inactive)
REMARK    1  A    between atoms: C_2  and  C_3
REMARK    2  A    between atoms: C_7  and  C_8
REMARK    3  A    between atoms: C_8  and  C_9
REMARK    4  A    between atoms: N_11  and  C_12
REMARK    5  A    between atoms: C_12  and  C_13
REMARK                            x       y       z     vdW  Elec       q    Type
REMARK                         _______ _______ _______ _____ _____    ______ ____
ROOT
ATOM      1  C   UNL     1      28.759  22.612  16.978  0.00  0.00    +0.217 C 
ATOM      2  O   UNL     1      27.914  22.626  17.878  0.00  0.00    -0.275 OA
ATOM      3  N   UNL     1      29.971  23.274  17.068  0.00  0.00    -0.315 N 
ATOM      4  H   UNL     1      30.694  22.962  16.432  0.00  0.00    +0.149 HD
ENDROOT
BRANCH   1   5
ATOM      5  C   UNL     1      28.512  21.856  15.694  0.00  0.00    +0.131 C 
BRANCH   5  10
ATOM      6  C   UNL     1      31.098  22.535  12.947  0.00  0.00    +0.052 A 
ATOM      7  C   UNL     1      32.044  21.540  13.219  0.00  0.00    +0.019 A 
ATOM      8  C   UNL     1      31.830  20.646  14.267  0.00  0.00    +0.002 A 
ATOM      9  C   UNL     1      30.673  20.737  15.042  0.00  0.00    +0.004 A 
ATOM     10  C   UNL     1      29.710  21.723  14.780  0.00  0.00    -0.037 A 
ATOM     11  C   UNL     1      29.939  22.627  13.729  0.00  0.00    +0.023 A 
BRANCH   6  13
ATOM     12  N   UNL     1      31.508  24.219  11.016  0.00  0.00    -0.191 NA
ATOM     13  C   UNL     1      31.329  23.466  11.881  0.00  0.00    +0.099 C 
ENDBRANCH   6  13
ENDBRANCH   5  10
ENDBRANCH   1   5
BRANCH   3  14
ATOM     14  C   UNL     1      30.407  23.732  18.375  0.00  0.00    +0.108 C 
BRANCH  14  15
ATOM     15  C   UNL     1      31.391  22.819  19.130  0.00  0.00    +0.011 C 
ATOM     16  C   UNL     1      31.074  22.677  20.616  0.00  0.00    +0.033 C 
ATOM     17  C   UNL     1      31.135  24.030  21.310  0.00  0.00    +0.161 C 
ATOM     18  O   UNL     1      32.314  24.774  21.012  0.00  0.00    -0.373 OA
ATOM     19  C   UNL     1      32.909  24.764  19.682  0.00  0.00    +0.070 C 
ATOM     20  C   UNL     1      32.547  25.929  18.697  0.00  0.00    +0.035 C 
ATOM     21  C   UNL     1      33.708  26.733  19.282  0.00  0.00    +0.006 C 
ATOM     22  C   UNL     1      34.343  25.393  19.699  0.00  0.00    +0.035 C 
ATOM     23  C   UNL     1      32.829  23.372  19.043  0.00  0.00    +0.040 C 
ENDBRANCH  14  15
ENDBRANCH   3  14
TORSDOF 5
ENDMDL
MODEL 8
REMARK VINA RESULT:      -6.3     11.216     12.787
REMARK  Name = ZINC000560333501
REMARK  5 active torsions:
REMARK  status: ('A' for Active; 'I' for Inactive)
REMARK    1  A    between atoms: C_2  and  C_3
REMARK    2  A    between atoms: C_7  and  C_8
REMARK    3  A    between atoms: C_8  and  C_9
REMARK    4  A    between atoms: N_11  and  C_12
REMARK    5  A    between atoms: C_12  and  C_13
REMARK                            x       y       z     vdW  Elec       q    Type
REMARK                         _______ _______ _______ _____ _____    ______ ____
ROOT
ATOM      1  C   UNL     1      19.304  28.574  15.641  0.00  0.00    +0.217 C 
ATOM      2  O   UNL     1      18.490  29.219  16.307  0.00  0.00    -0.275 OA
ATOM      3  N   UNL     1      20.471  29.121  15.136  0.00  0.00    -0.315 N 
ATOM      4  H   UNL     1      21.192  28.460  14.875  0.00  0.00    +0.149 HD
ENDROOT
BRANCH   1   5
ATOM      5  C   UNL     1      19.066  27.116  15.327  0.00  0.00    +0.131 C 
BRANCH   5  10
ATOM      6  C   UNL     1      21.012  25.291  18.081  0.00  0.00    +0.052 A 
ATOM      7  C   UNL     1      21.531  24.206  17.366  0.00  0.00    +0.019 A 
ATOM      8  C   UNL     1      21.271  24.084  16.001  0.00  0.00    +0.002 A 
ATOM      9  C   UNL     1      20.499  25.044  15.346  0.00  0.00    +0.004 A 
ATOM     10  C   UNL     1      19.976  26.142  16.044  0.00  0.00    -0.037 A 
ATOM     11  C   UNL     1      20.233  26.252  17.421  0.00  0.00    +0.023 A 
BRANCH   6  13
ATOM     12  N   UNL     1      21.467  25.504  20.626  0.00  0.00    -0.191 NA
ATOM     13  C   UNL     1      21.263  25.404  19.487  0.00  0.00    +0.099 C 
ENDBRANCH   6  13
ENDBRANCH   5  10
ENDBRANCH   1   5
BRANCH   3  14
ATOM     14  C   UNL     1      20.917  30.396  15.669  0.00  0.00    +0.108 C 
BRANCH  14  15
ATOM     15  C   UNL     1      21.867  30.339  16.880  0.00  0.00    +0.011 C 
ATOM     16  C   UNL     1      21.166  30.559  18.217  0.00  0.00    +0.033 C 
ATOM     17  C   UNL     1      20.508  31.930  18.260  0.00  0.00    +0.161 C 
ATOM     18  O   UNL     1      21.366  32.990  17.846  0.00  0.00    -0.373 OA
ATOM     19  C   UNL     1      22.317  32.824  16.754  0.00  0.00    +0.070 C 
ATOM     20  C   UNL     1      21.893  33.300  15.321  0.00  0.00    +0.035 C 
ATOM     21  C   UNL     1      22.432  34.689  15.666  0.00  0.00    +0.006 C 
ATOM     22  C   UNL     1      23.340  34.009  16.709  0.00  0.00    +0.035 C 
ATOM     23  C   UNL     1      22.955  31.429  16.775  0.00  0.00    +0.040 C 
ENDBRANCH  14  15
ENDBRANCH   3  14
TORSDOF 5
ENDMDL
MODEL 9
REMARK VINA RESULT:      -6.2      3.110      3.812
REMARK  Name = ZINC000560333501
REMARK  5 active torsions:
REMARK  status: ('A' for Active; 'I' for Inactive)
REMARK    1  A    between atoms: C_2  and  C_3
REMARK    2  A    between atoms: C_7  and  C_8
REMARK    3  A    between atoms: C_8  and  C_9
REMARK    4  A    between atoms: N_11  and  C_12
REMARK    5  A    between atoms: C_12  and  C_13
REMARK                            x       y       z     vdW  Elec       q    Type
REMARK                         _______ _______ _______ _____ _____    ______ ____
ROOT
ATOM      1  C   UNL     1      30.943  23.196  15.984  0.00  0.00    +0.217 C 
ATOM      2  O   UNL     1      32.052  23.734  15.946  0.00  0.00    -0.275 OA
ATOM      3  N   UNL     1      30.272  22.925  17.164  0.00  0.00    -0.315 N 
ATOM      4  H   UNL     1      29.275  22.769  17.081  0.00  0.00    +0.149 HD
ENDROOT
BRANCH   1   5
ATOM      5  C   UNL     1      30.236  22.789  14.713  0.00  0.00    +0.131 C 
BRANCH   5  10
ATOM      6  C   UNL     1      31.744  23.347  11.232  0.00  0.00    +0.052 A 
ATOM      7  C   UNL     1      31.492  24.711  11.048  0.00  0.00    +0.019 A 
ATOM      8  C   UNL     1      30.862  25.444  12.053  0.00  0.00    +0.002 A 
ATOM      9  C   UNL     1      30.487  24.820  13.245  0.00  0.00    +0.004 A 
ATOM     10  C   UNL     1      30.737  23.456  13.450  0.00  0.00    -0.037 A 
ATOM     11  C   UNL     1      31.362  22.723  12.428  0.00  0.00    +0.023 A 
BRANCH   6  13
ATOM     12  N   UNL     1      32.881  21.984   9.340  0.00  0.00    -0.191 NA
ATOM     13  C   UNL     1      32.373  22.591  10.189  0.00  0.00    +0.099 C 
ENDBRANCH   6  13
ENDBRANCH   5  10
ENDBRANCH   1   5
BRANCH   3  14
ATOM     14  C   UNL     1      30.730  23.577  18.378  0.00  0.00    +0.108 C 
BRANCH  14  15
ATOM     15  C   UNL     1      31.693  22.771  19.269  0.00  0.00    +0.011 C 
ATOM     16  C   UNL     1      31.217  22.631  20.712  0.00  0.00    +0.033 C 
ATOM     17  C   UNL     1      31.079  23.997  21.367  0.00  0.00    +0.161 C 
ATOM     18  O   UNL     1      32.216  24.837  21.184  0.00  0.00    -0.373 OA
ATOM     19  C   UNL     1      32.962  24.854  19.933  0.00  0.00    +0.070 C 
ATOM     20  C   UNL     1      32.620  25.962  18.878  0.00  0.00    +0.035 C 
ATOM     21  C   UNL     1      33.630  26.878  19.569  0.00  0.00    +0.006 C 
ATOM     22  C   UNL     1      34.326  25.608  20.097  0.00  0.00    +0.035 C 
ATOM     23  C   UNL     1      33.079  23.447  19.332  0.00  0.00    +0.040 C 
ENDBRANCH  14  15
ENDBRANCH   3  14
TORSDOF 5
ENDMDL
