MODEL 1
REMARK VINA RESULT:      -5.9      0.000      0.000
REMARK  Name = ZINC000543478179
REMARK  8 active torsions:
REMARK  status: ('A' for Active; 'I' for Inactive)
REMARK    1  A    between atoms: C_1  and  C_2
REMARK    2  A    between atoms: C_2  and  N_3
REMARK    3  A    between atoms: N_9  and  C_10
REMARK    4  A    between atoms: C_10  and  C_11
REMARK    5  A    between atoms: C_10  and  C_12
REMARK    6  A    between atoms: C_15  and  O_16
REMARK    7  A    between atoms: O_16  and  C_17
REMARK    8  A    between atoms: C_17  and  C_18
REMARK                            x       y       z     vdW  Elec       q    Type
REMARK                         _______ _______ _______ _____ _____    ______ ____
ROOT
ATOM      1  C   UNL     1      31.914  21.317  14.618  0.00  0.00    +0.102 C 
ATOM      2  C   UNL     1      30.383  21.367  14.727  0.00  0.00    +0.033 C 
ENDROOT
BRANCH   1   9
ATOM      3  N   UNL     1      33.737  21.865   8.515  0.00  0.00    -0.299 N 
ATOM      4  C   UNL     1      33.549  20.483   8.958  0.00  0.00    +0.127 C 
ATOM      5  C   UNL     1      34.176  20.232  10.332  0.00  0.00    +0.129 C 
ATOM      6  N   UNL     1      33.585  21.146  11.305  0.00  0.00    -0.275 N 
ATOM      7  C   UNL     1      33.048  20.651  12.486  0.00  0.00    +0.303 C 
ATOM      8  O   UNL     1      33.078  19.465  12.789  0.00  0.00    -0.253 OA
ATOM      9  N   UNL     1      32.443  21.594  13.280  0.00  0.00    -0.293 N 
ATOM     10  C   UNL     1      33.598  22.556  10.912  0.00  0.00    +0.205 C 
ATOM     11  C   UNL     1      33.901  22.893   9.440  0.00  0.00    +0.233 C 
ATOM     12  O   UNL     1      34.136  24.055   9.104  0.00  0.00    -0.274 OA
ATOM     13  H   UNL     1      32.827  22.519  13.188  0.00  0.00    +0.151 HD
BRANCH   3  15
ATOM     14  C   UNL     1      34.488  21.785   6.163  0.00  0.00    +0.024 C 
ATOM     15  C   UNL     1      33.399  22.218   7.137  0.00  0.00    +0.104 C 
ENDBRANCH   3  15
ENDBRANCH   1   9
BRANCH   1  16
ATOM     16  C   UNL     1      32.531  22.328  15.577  0.00  0.00    -0.024 A 
ATOM     17  C   UNL     1      31.918  22.573  16.820  0.00  0.00    +0.009 A 
ATOM     18  C   UNL     1      32.404  23.550  17.684  0.00  0.00    +0.049 A 
ATOM     19  C   UNL     1      33.488  24.341  17.306  0.00  0.00    +0.156 A 
ATOM     20  C   UNL     1      34.143  24.062  16.104  0.00  0.00    +0.165 A 
ATOM     21  F   UNL     1      35.218  24.774  15.736  0.00  0.00    -0.202 F 
ATOM     22  C   UNL     1      33.672  23.068  15.239  0.00  0.00    +0.047 A 
BRANCH  19  23
ATOM     23  O   UNL     1      33.943  25.403  18.043  0.00  0.00    -0.489 OA
BRANCH  23  24
ATOM     24  C   UNL     1      33.705  25.292  19.450  0.00  0.00    +0.232 C 
BRANCH  24  25
ATOM     25  C   UNL     1      32.917  26.478  19.903  0.00  0.00    +0.027 C 
ATOM     26  C   UNL     1      32.592  26.660  21.363  0.00  0.00    +0.007 C 
ATOM     27  C   UNL     1      31.497  26.320  20.389  0.00  0.00    +0.007 C 
ENDBRANCH  24  25
ENDBRANCH  23  24
ENDBRANCH  19  23
ENDBRANCH   1  16
TORSDOF 6
ENDMDL
MODEL 2
REMARK VINA RESULT:      -5.8      1.829      2.271
REMARK  Name = ZINC000543478179
REMARK  8 active torsions:
REMARK  status: ('A' for Active; 'I' for Inactive)
REMARK    1  A    between atoms: C_1  and  C_2
REMARK    2  A    between atoms: C_2  and  N_3
REMARK    3  A    between atoms: N_9  and  C_10
REMARK    4  A    between atoms: C_10  and  C_11
REMARK    5  A    between atoms: C_10  and  C_12
REMARK    6  A    between atoms: C_15  and  O_16
REMARK    7  A    between atoms: O_16  and  C_17
REMARK    8  A    between atoms: C_17  and  C_18
REMARK                            x       y       z     vdW  Elec       q    Type
REMARK                         _______ _______ _______ _____ _____    ______ ____
ROOT
ATOM      1  C   UNL     1      32.050  20.629  13.433  0.00  0.00    +0.102 C 
ATOM      2  C   UNL     1      30.617  20.107  13.259  0.00  0.00    +0.033 C 
ENDROOT
BRANCH   1   9
ATOM      3  N   UNL     1      34.267  22.877   7.874  0.00  0.00    -0.299 N 
ATOM      4  C   UNL     1      34.528  21.452   8.086  0.00  0.00    +0.127 C 
ATOM      5  C   UNL     1      35.037  21.168   9.502  0.00  0.00    +0.129 C 
ATOM      6  N   UNL     1      34.051  21.638  10.471  0.00  0.00    -0.275 N 
ATOM      7  C   UNL     1      33.588  20.783  11.461  0.00  0.00    +0.303 C 
ATOM      8  O   UNL     1      33.998  19.638  11.602  0.00  0.00    -0.253 OA
ATOM      9  N   UNL     1      32.601  21.310  12.258  0.00  0.00    -0.293 N 
ATOM     10  C   UNL     1      33.614  23.022  10.280  0.00  0.00    +0.205 C 
ATOM     11  C   UNL     1      33.949  23.710   8.944  0.00  0.00    +0.233 C 
ATOM     12  O   UNL     1      33.798  24.925   8.814  0.00  0.00    -0.274 OA
ATOM     13  H   UNL     1      32.642  22.309  12.361  0.00  0.00    +0.151 HD
BRANCH   3  15
ATOM     14  C   UNL     1      35.168  23.098   5.584  0.00  0.00    +0.024 C 
ATOM     15  C   UNL     1      33.992  23.351   6.519  0.00  0.00    +0.104 C 
ENDBRANCH   3  15
ENDBRANCH   1   9
BRANCH   1  16
ATOM     16  C   UNL     1      32.102  21.608  14.600  0.00  0.00    -0.024 A 
ATOM     17  C   UNL     1      33.198  22.482  14.727  0.00  0.00    +0.009 A 
ATOM     18  C   UNL     1      33.321  23.329  15.824  0.00  0.00    +0.049 A 
ATOM     19  C   UNL     1      32.373  23.291  16.848  0.00  0.00    +0.156 A 
ATOM     20  C   UNL     1      31.249  22.475  16.699  0.00  0.00    +0.165 A 
ATOM     21  F   UNL     1      30.297  22.453  17.643  0.00  0.00    -0.202 F 
ATOM     22  C   UNL     1      31.109  21.635  15.588  0.00  0.00    +0.047 A 
BRANCH  19  23
ATOM     23  O   UNL     1      32.492  23.999  18.015  0.00  0.00    -0.489 OA
BRANCH  23  24
ATOM     24  C   UNL     1      33.823  24.433  18.312  0.00  0.00    +0.232 C 
BRANCH  24  25
ATOM     25  C   UNL     1      33.818  25.913  18.509  0.00  0.00    +0.027 C 
ATOM     26  C   UNL     1      34.742  26.790  17.705  0.00  0.00    +0.007 C 
ATOM     27  C   UNL     1      34.980  26.606  19.179  0.00  0.00    +0.007 C 
ENDBRANCH  24  25
ENDBRANCH  23  24
ENDBRANCH  19  23
ENDBRANCH   1  16
TORSDOF 6
ENDMDL
MODEL 3
REMARK VINA RESULT:      -5.7      3.969      9.361
REMARK  Name = ZINC000543478179
REMARK  8 active torsions:
REMARK  status: ('A' for Active; 'I' for Inactive)
REMARK    1  A    between atoms: C_1  and  C_2
REMARK    2  A    between atoms: C_2  and  N_3
REMARK    3  A    between atoms: N_9  and  C_10
REMARK    4  A    between atoms: C_10  and  C_11
REMARK    5  A    between atoms: C_10  and  C_12
REMARK    6  A    between atoms: C_15  and  O_16
REMARK    7  A    between atoms: O_16  and  C_17
REMARK    8  A    between atoms: C_17  and  C_18
REMARK                            x       y       z     vdW  Elec       q    Type
REMARK                         _______ _______ _______ _____ _____    ______ ____
ROOT
ATOM      1  C   UNL     1      35.129  23.631  15.789  0.00  0.00    +0.102 C 
ATOM      2  C   UNL     1      35.563  24.641  14.718  0.00  0.00    +0.033 C 
ENDROOT
BRANCH   1   9
ATOM      3  N   UNL     1      33.770  26.584  21.294  0.00  0.00    -0.299 N 
ATOM      4  C   UNL     1      35.133  26.055  21.224  0.00  0.00    +0.127 C 
ATOM      5  C   UNL     1      35.166  24.634  20.653  0.00  0.00    +0.129 C 
ATOM      6  N   UNL     1      34.569  24.636  19.321  0.00  0.00    -0.275 N 
ATOM      7  C   UNL     1      35.261  24.091  18.249  0.00  0.00    +0.303 C 
ATOM      8  O   UNL     1      36.356  23.555  18.362  0.00  0.00    -0.253 OA
ATOM      9  N   UNL     1      34.637  24.230  17.033  0.00  0.00    -0.293 N 
ATOM     10  C   UNL     1      33.247  25.262  19.240  0.00  0.00    +0.205 C 
ATOM     11  C   UNL     1      32.781  26.124  20.428  0.00  0.00    +0.233 C 
ATOM     12  O   UNL     1      31.608  26.490  20.508  0.00  0.00    -0.274 OA
ATOM     13  H   UNL     1      33.633  24.268  17.086  0.00  0.00    +0.151 HD
BRANCH   3  15
ATOM     14  C   UNL     1      34.735  28.228  22.866  0.00  0.00    +0.024 C 
ATOM     15  C   UNL     1      33.534  27.833  22.017  0.00  0.00    +0.104 C 
ENDBRANCH   3  15
ENDBRANCH   1   9
BRANCH   1  16
ATOM     16  C   UNL     1      34.022  22.740  15.237  0.00  0.00    -0.024 A 
ATOM     17  C   UNL     1      34.042  22.366  13.880  0.00  0.00    +0.009 A 
ATOM     18  C   UNL     1      33.005  21.625  13.321  0.00  0.00    +0.049 A 
ATOM     19  C   UNL     1      31.897  21.279  14.094  0.00  0.00    +0.156 A 
ATOM     20  C   UNL     1      31.898  21.590  15.457  0.00  0.00    +0.165 A 
ATOM     21  F   UNL     1      30.868  21.228  16.236  0.00  0.00    -0.202 F 
ATOM     22  C   UNL     1      32.947  22.317  16.030  0.00  0.00    +0.047 A 
BRANCH  19  23
ATOM     23  O   UNL     1      30.783  20.664  13.586  0.00  0.00    -0.489 OA
BRANCH  23  24
ATOM     24  C   UNL     1      30.992  19.312  13.168  0.00  0.00    +0.232 C 
BRANCH  24  25
ATOM     25  C   UNL     1      31.329  18.481  14.363  0.00  0.00    +0.027 C 
ATOM     26  C   UNL     1      32.645  17.753  14.434  0.00  0.00    +0.007 C 
ATOM     27  C   UNL     1      31.368  16.975  14.270  0.00  0.00    +0.007 C 
ENDBRANCH  24  25
ENDBRANCH  23  24
ENDBRANCH  19  23
ENDBRANCH   1  16
TORSDOF 6
ENDMDL
MODEL 4
REMARK VINA RESULT:      -5.7      4.650      9.522
REMARK  Name = ZINC000543478179
REMARK  8 active torsions:
REMARK  status: ('A' for Active; 'I' for Inactive)
REMARK    1  A    between atoms: C_1  and  C_2
REMARK    2  A    between atoms: C_2  and  N_3
REMARK    3  A    between atoms: N_9  and  C_10
REMARK    4  A    between atoms: C_10  and  C_11
REMARK    5  A    between atoms: C_10  and  C_12
REMARK    6  A    between atoms: C_15  and  O_16
REMARK    7  A    between atoms: O_16  and  C_17
REMARK    8  A    between atoms: C_17  and  C_18
REMARK                            x       y       z     vdW  Elec       q    Type
REMARK                         _______ _______ _______ _____ _____    ______ ____
ROOT
ATOM      1  C   UNL     1      31.587  20.765  14.823  0.00  0.00    +0.102 C 
ATOM      2  C   UNL     1      30.134  20.794  15.316  0.00  0.00    +0.033 C 
ENDROOT
BRANCH   1   9
ATOM      3  N   UNL     1      35.102  23.923  19.129  0.00  0.00    -0.299 N 
ATOM      4  C   UNL     1      33.893  24.633  18.712  0.00  0.00    +0.127 C 
ATOM      5  C   UNL     1      33.696  24.586  17.194  0.00  0.00    +0.129 C 
ATOM      6  N   UNL     1      33.622  23.193  16.762  0.00  0.00    -0.275 N 
ATOM      7  C   UNL     1      32.555  22.762  15.986  0.00  0.00    +0.303 C 
ATOM      8  O   UNL     1      31.668  23.509  15.595  0.00  0.00    -0.253 OA
ATOM      9  N   UNL     1      32.551  21.415  15.716  0.00  0.00    -0.293 N 
ATOM     10  C   UNL     1      34.720  22.345  17.230  0.00  0.00    +0.205 C 
ATOM     11  C   UNL     1      35.619  22.883  18.360  0.00  0.00    +0.233 C 
ATOM     12  O   UNL     1      36.675  22.314  18.639  0.00  0.00    -0.274 OA
ATOM     13  H   UNL     1      33.464  20.996  15.688  0.00  0.00    +0.151 HD
BRANCH   3  15
ATOM     14  C   UNL     1      35.048  25.342  21.150  0.00  0.00    +0.024 C 
ATOM     15  C   UNL     1      35.561  24.058  20.510  0.00  0.00    +0.104 C 
ENDBRANCH   3  15
ENDBRANCH   1   9
BRANCH   1  16
ATOM     16  C   UNL     1      32.037  19.321  14.632  0.00  0.00    -0.024 A 
ATOM     17  C   UNL     1      33.358  18.956  14.949  0.00  0.00    +0.009 A 
ATOM     18  C   UNL     1      33.828  17.668  14.709  0.00  0.00    +0.049 A 
ATOM     19  C   UNL     1      33.001  16.723  14.101  0.00  0.00    +0.156 A 
ATOM     20  C   UNL     1      31.668  17.057  13.843  0.00  0.00    +0.165 A 
ATOM     21  F   UNL     1      30.836  16.155  13.302  0.00  0.00    -0.202 F 
ATOM     22  C   UNL     1      31.184  18.344  14.100  0.00  0.00    +0.047 A 
BRANCH  19  23
ATOM     23  O   UNL     1      33.428  15.480  13.716  0.00  0.00    -0.489 OA
BRANCH  23  24
ATOM     24  C   UNL     1      33.909  15.409  12.371  0.00  0.00    +0.232 C 
BRANCH  24  25
ATOM     25  C   UNL     1      33.136  14.365  11.633  0.00  0.00    +0.027 C 
ATOM     26  C   UNL     1      33.416  14.100  10.177  0.00  0.00    +0.007 C 
ATOM     27  C   UNL     1      32.123  14.753  10.584  0.00  0.00    +0.007 C 
ENDBRANCH  24  25
ENDBRANCH  23  24
ENDBRANCH  19  23
ENDBRANCH   1  16
TORSDOF 6
ENDMDL
MODEL 5
REMARK VINA RESULT:      -5.7      4.770      9.590
REMARK  Name = ZINC000543478179
REMARK  8 active torsions:
REMARK  status: ('A' for Active; 'I' for Inactive)
REMARK    1  A    between atoms: C_1  and  C_2
REMARK    2  A    between atoms: C_2  and  N_3
REMARK    3  A    between atoms: N_9  and  C_10
REMARK    4  A    between atoms: C_10  and  C_11
REMARK    5  A    between atoms: C_10  and  C_12
REMARK    6  A    between atoms: C_15  and  O_16
REMARK    7  A    between atoms: O_16  and  C_17
REMARK    8  A    between atoms: C_17  and  C_18
REMARK                            x       y       z     vdW  Elec       q    Type
REMARK                         _______ _______ _______ _____ _____    ______ ____
ROOT
ATOM      1  C   UNL     1      33.913  24.115  17.868  0.00  0.00    +0.102 C 
ATOM      2  C   UNL     1      33.074  25.171  18.601  0.00  0.00    +0.033 C 
ENDROOT
BRANCH   1   9
ATOM      3  N   UNL     1      37.191  20.693  22.158  0.00  0.00    -0.299 N 
ATOM      4  C   UNL     1      37.782  21.998  21.861  0.00  0.00    +0.127 C 
ATOM      5  C   UNL     1      37.802  22.289  20.357  0.00  0.00    +0.129 C 
ATOM      6  N   UNL     1      36.438  22.237  19.839  0.00  0.00    -0.275 N 
ATOM      7  C   UNL     1      35.935  23.299  19.101  0.00  0.00    +0.303 C 
ATOM      8  O   UNL     1      36.597  24.287  18.813  0.00  0.00    -0.253 OA
ATOM      9  N   UNL     1      34.615  23.173  18.743  0.00  0.00    -0.293 N 
ATOM     10  C   UNL     1      35.695  21.023  20.184  0.00  0.00    +0.205 C 
ATOM     11  C   UNL     1      36.264  20.117  21.292  0.00  0.00    +0.233 C 
ATOM     12  O   UNL     1      35.804  18.989  21.470  0.00  0.00    -0.274 OA
ATOM     13  H   UNL     1      34.305  22.223  18.633  0.00  0.00    +0.151 HD
BRANCH   3  15
ATOM     14  C   UNL     1      37.312  21.274  24.556  0.00  0.00    +0.024 C 
ATOM     15  C   UNL     1      37.296  20.161  23.515  0.00  0.00    +0.104 C 
ENDBRANCH   3  15
ENDBRANCH   1   9
BRANCH   1  16
ATOM     16  C   UNL     1      33.018  23.303  16.939  0.00  0.00    -0.024 A 
ATOM     17  C   UNL     1      33.417  23.078  15.608  0.00  0.00    +0.009 A 
ATOM     18  C   UNL     1      32.588  22.415  14.709  0.00  0.00    +0.049 A 
ATOM     19  C   UNL     1      31.316  22.001  15.104  0.00  0.00    +0.156 A 
ATOM     20  C   UNL     1      30.936  22.162  16.439  0.00  0.00    +0.165 A 
ATOM     21  F   UNL     1      29.738  21.731  16.860  0.00  0.00    -0.202 F 
ATOM     22  C   UNL     1      31.773  22.810  17.354  0.00  0.00    +0.047 A 
BRANCH  19  23
ATOM     23  O   UNL     1      30.396  21.458  14.245  0.00  0.00    -0.489 OA
BRANCH  23  24
ATOM     24  C   UNL     1      30.874  20.335  13.498  0.00  0.00    +0.232 C 
BRANCH  24  25
ATOM     25  C   UNL     1      31.066  19.181  14.427  0.00  0.00    +0.027 C 
ATOM     26  C   UNL     1      32.446  18.635  14.684  0.00  0.00    +0.007 C 
ATOM     27  C   UNL     1      31.453  17.821  13.898  0.00  0.00    +0.007 C 
ENDBRANCH  24  25
ENDBRANCH  23  24
ENDBRANCH  19  23
ENDBRANCH   1  16
TORSDOF 6
ENDMDL
MODEL 6
REMARK VINA RESULT:      -5.6      5.344      7.568
REMARK  Name = ZINC000543478179
REMARK  8 active torsions:
REMARK  status: ('A' for Active; 'I' for Inactive)
REMARK    1  A    between atoms: C_1  and  C_2
REMARK    2  A    between atoms: C_2  and  N_3
REMARK    3  A    between atoms: N_9  and  C_10
REMARK    4  A    between atoms: C_10  and  C_11
REMARK    5  A    between atoms: C_10  and  C_12
REMARK    6  A    between atoms: C_15  and  O_16
REMARK    7  A    between atoms: O_16  and  C_17
REMARK    8  A    between atoms: C_17  and  C_18
REMARK                            x       y       z     vdW  Elec       q    Type
REMARK                         _______ _______ _______ _____ _____    ______ ____
ROOT
ATOM      1  C   UNL     1      33.847  18.162  11.030  0.00  0.00    +0.102 C 
ATOM      2  C   UNL     1      35.203  18.857  10.842  0.00  0.00    +0.033 C 
ENDROOT
BRANCH   1   9
ATOM      3  N   UNL     1      34.621  11.936  12.259  0.00  0.00    -0.299 N 
ATOM      4  C   UNL     1      34.370  12.237  10.849  0.00  0.00    +0.127 C 
ATOM      5  C   UNL     1      33.231  13.247  10.674  0.00  0.00    +0.129 C 
ATOM      6  N   UNL     1      33.564  14.476  11.388  0.00  0.00    -0.275 N 
ATOM      7  C   UNL     1      33.510  15.697  10.731  0.00  0.00    +0.303 C 
ATOM      8  O   UNL     1      33.150  15.816   9.568  0.00  0.00    -0.253 OA
ATOM      9  N   UNL     1      33.928  16.770  11.481  0.00  0.00    -0.293 N 
ATOM     10  C   UNL     1      33.960  14.287  12.785  0.00  0.00    +0.205 C 
ATOM     11  C   UNL     1      34.308  12.861  13.252  0.00  0.00    +0.233 C 
ATOM     12  O   UNL     1      34.435  12.613  14.452  0.00  0.00    -0.274 OA
ATOM     13  H   UNL     1      33.784  16.664  12.470  0.00  0.00    +0.151 HD
BRANCH   3  15
ATOM     14  C   UNL     1      35.641   9.837  11.449  0.00  0.00    +0.024 C 
ATOM     15  C   UNL     1      35.516  10.831  12.597  0.00  0.00    +0.104 C 
ENDBRANCH   3  15
ENDBRANCH   1   9
BRANCH   1  16
ATOM     16  C   UNL     1      33.013  18.929  12.050  0.00  0.00    -0.024 A 
ATOM     17  C   UNL     1      32.308  18.225  13.044  0.00  0.00    +0.009 A 
ATOM     18  C   UNL     1      31.471  18.885  13.938  0.00  0.00    +0.049 A 
ATOM     19  C   UNL     1      31.279  20.262  13.832  0.00  0.00    +0.156 A 
ATOM     20  C   UNL     1      32.024  20.978  12.891  0.00  0.00    +0.165 A 
ATOM     21  F   UNL     1      31.897  22.310  12.797  0.00  0.00    -0.202 F 
ATOM     22  C   UNL     1      32.883  20.324  12.002  0.00  0.00    +0.047 A 
BRANCH  19  23
ATOM     23  O   UNL     1      30.377  20.962  14.589  0.00  0.00    -0.489 OA
BRANCH  23  24
ATOM     24  C   UNL     1      30.782  21.174  15.945  0.00  0.00    +0.232 C 
BRANCH  24  25
ATOM     25  C   UNL     1      31.227  22.591  16.102  0.00  0.00    +0.027 C 
ATOM     26  C   UNL     1      32.682  22.951  15.944  0.00  0.00    +0.007 C 
ATOM     27  C   UNL     1      32.037  23.018  17.302  0.00  0.00    +0.007 C 
ENDBRANCH  24  25
ENDBRANCH  23  24
ENDBRANCH  19  23
ENDBRANCH   1  16
TORSDOF 6
ENDMDL
MODEL 7
REMARK VINA RESULT:      -5.6      3.696      4.574
REMARK  Name = ZINC000543478179
REMARK  8 active torsions:
REMARK  status: ('A' for Active; 'I' for Inactive)
REMARK    1  A    between atoms: C_1  and  C_2
REMARK    2  A    between atoms: C_2  and  N_3
REMARK    3  A    between atoms: N_9  and  C_10
REMARK    4  A    between atoms: C_10  and  C_11
REMARK    5  A    between atoms: C_10  and  C_12
REMARK    6  A    between atoms: C_15  and  O_16
REMARK    7  A    between atoms: O_16  and  C_17
REMARK    8  A    between atoms: C_17  and  C_18
REMARK                            x       y       z     vdW  Elec       q    Type
REMARK                         _______ _______ _______ _____ _____    ______ ____
ROOT
ATOM      1  C   UNL     1      31.075  21.991  14.216  0.00  0.00    +0.102 C 
ATOM      2  C   UNL     1      30.599  22.970  13.133  0.00  0.00    +0.033 C 
ENDROOT
BRANCH   1   9
ATOM      3  N   UNL     1      32.467  16.166  11.980  0.00  0.00    -0.299 N 
ATOM      4  C   UNL     1      31.360  16.187  12.936  0.00  0.00    +0.127 C 
ATOM      5  C   UNL     1      31.673  17.062  14.155  0.00  0.00    +0.129 C 
ATOM      6  N   UNL     1      31.964  18.421  13.709  0.00  0.00    -0.275 N 
ATOM      7  C   UNL     1      31.287  19.496  14.268  0.00  0.00    +0.303 C 
ATOM      8  O   UNL     1      30.467  19.374  15.168  0.00  0.00    -0.253 OA
ATOM      9  N   UNL     1      31.584  20.714  13.708  0.00  0.00    -0.293 N 
ATOM     10  C   UNL     1      32.973  18.518  12.652  0.00  0.00    +0.205 C 
ATOM     11  C   UNL     1      33.362  17.230  11.902  0.00  0.00    +0.233 C 
ATOM     12  O   UNL     1      34.348  17.214  11.164  0.00  0.00    -0.274 OA
ATOM     13  H   UNL     1      32.512  20.779  13.327  0.00  0.00    +0.151 HD
BRANCH   3  15
ATOM     14  C   UNL     1      31.026  14.655  10.659  0.00  0.00    +0.024 C 
ATOM     15  C   UNL     1      32.428  15.209  10.875  0.00  0.00    +0.104 C 
ENDBRANCH   3  15
ENDBRANCH   1   9
BRANCH   1  16
ATOM     16  C   UNL     1      32.186  22.635  15.037  0.00  0.00    -0.024 A 
ATOM     17  C   UNL     1      33.525  22.507  14.621  0.00  0.00    +0.009 A 
ATOM     18  C   UNL     1      34.570  23.008  15.390  0.00  0.00    +0.049 A 
ATOM     19  C   UNL     1      34.308  23.610  16.620  0.00  0.00    +0.156 A 
ATOM     20  C   UNL     1      32.980  23.800  17.011  0.00  0.00    +0.165 A 
ATOM     21  F   UNL     1      32.696  24.419  18.167  0.00  0.00    -0.202 F 
ATOM     22  C   UNL     1      31.923  23.317  16.233  0.00  0.00    +0.047 A 
BRANCH  19  23
ATOM     23  O   UNL     1      35.288  24.012  17.490  0.00  0.00    -0.489 OA
BRANCH  23  24
ATOM     24  C   UNL     1      36.266  24.886  16.917  0.00  0.00    +0.232 C 
BRANCH  24  25
ATOM     25  C   UNL     1      36.216  26.200  17.625  0.00  0.00    +0.027 C 
ATOM     26  C   UNL     1      34.955  27.024  17.609  0.00  0.00    +0.007 C 
ATOM     27  C   UNL     1      36.166  27.493  16.849  0.00  0.00    +0.007 C 
ENDBRANCH  24  25
ENDBRANCH  23  24
ENDBRANCH  19  23
ENDBRANCH   1  16
TORSDOF 6
ENDMDL
MODEL 8
REMARK VINA RESULT:      -5.6      5.925      8.149
REMARK  Name = ZINC000543478179
REMARK  8 active torsions:
REMARK  status: ('A' for Active; 'I' for Inactive)
REMARK    1  A    between atoms: C_1  and  C_2
REMARK    2  A    between atoms: C_2  and  N_3
REMARK    3  A    between atoms: N_9  and  C_10
REMARK    4  A    between atoms: C_10  and  C_11
REMARK    5  A    between atoms: C_10  and  C_12
REMARK    6  A    between atoms: C_15  and  O_16
REMARK    7  A    between atoms: O_16  and  C_17
REMARK    8  A    between atoms: C_17  and  C_18
REMARK                            x       y       z     vdW  Elec       q    Type
REMARK                         _______ _______ _______ _____ _____    ______ ____
ROOT
ATOM      1  C   UNL     1      33.301  16.822  11.711  0.00  0.00    +0.102 C 
ATOM      2  C   UNL     1      34.096  17.447  10.557  0.00  0.00    +0.033 C 
ENDROOT
BRANCH   1   9
ATOM      3  N   UNL     1      36.882  12.683  15.015  0.00  0.00    -0.299 N 
ATOM      4  C   UNL     1      36.008  12.054  14.024  0.00  0.00    +0.127 C 
ATOM      5  C   UNL     1      34.593  12.639  14.056  0.00  0.00    +0.129 C 
ATOM      6  N   UNL     1      34.661  14.077  13.812  0.00  0.00    -0.275 N 
ATOM      7  C   UNL     1      33.879  14.650  12.819  0.00  0.00    +0.303 C 
ATOM      8  O   UNL     1      33.082  14.012  12.143  0.00  0.00    -0.253 OA
ATOM      9  N   UNL     1      34.094  15.993  12.624  0.00  0.00    -0.293 N 
ATOM     10  C   UNL     1      35.606  14.801  14.663  0.00  0.00    +0.205 C 
ATOM     11  C   UNL     1      36.641  13.981  15.457  0.00  0.00    +0.233 C 
ATOM     12  O   UNL     1      37.309  14.514  16.343  0.00  0.00    -0.274 OA
ATOM     13  H   UNL     1      34.399  16.486  13.445  0.00  0.00    +0.151 HD
BRANCH   3  15
ATOM     14  C   UNL     1      38.081  10.667  15.792  0.00  0.00    +0.024 C 
ATOM     15  C   UNL     1      38.196  12.095  15.273  0.00  0.00    +0.104 C 
ENDBRANCH   3  15
ENDBRANCH   1   9
BRANCH   1  16
ATOM     16  C   UNL     1      32.647  17.922  12.539  0.00  0.00    -0.024 A 
ATOM     17  C   UNL     1      31.822  17.579  13.626  0.00  0.00    +0.009 A 
ATOM     18  C   UNL     1      31.141  18.553  14.351  0.00  0.00    +0.049 A 
ATOM     19  C   UNL     1      31.231  19.893  13.977  0.00  0.00    +0.156 A 
ATOM     20  C   UNL     1      32.098  20.251  12.941  0.00  0.00    +0.165 A 
ATOM     21  F   UNL     1      32.241  21.537  12.590  0.00  0.00    -0.202 F 
ATOM     22  C   UNL     1      32.801  19.278  12.221  0.00  0.00    +0.047 A 
BRANCH  19  23
ATOM     23  O   UNL     1      30.493  20.891  14.558  0.00  0.00    -0.489 OA
BRANCH  23  24
ATOM     24  C   UNL     1      30.892  21.222  15.892  0.00  0.00    +0.232 C 
BRANCH  24  25
ATOM     25  C   UNL     1      31.393  22.629  15.914  0.00  0.00    +0.027 C 
ATOM     26  C   UNL     1      32.838  22.926  15.606  0.00  0.00    +0.007 C 
ATOM     27  C   UNL     1      32.319  23.102  17.008  0.00  0.00    +0.007 C 
ENDBRANCH  24  25
ENDBRANCH  23  24
ENDBRANCH  19  23
ENDBRANCH   1  16
TORSDOF 6
ENDMDL
MODEL 9
REMARK VINA RESULT:      -5.6      4.514      6.385
REMARK  Name = ZINC000543478179
REMARK  8 active torsions:
REMARK  status: ('A' for Active; 'I' for Inactive)
REMARK    1  A    between atoms: C_1  and  C_2
REMARK    2  A    between atoms: C_2  and  N_3
REMARK    3  A    between atoms: N_9  and  C_10
REMARK    4  A    between atoms: C_10  and  C_11
REMARK    5  A    between atoms: C_10  and  C_12
REMARK    6  A    between atoms: C_15  and  O_16
REMARK    7  A    between atoms: O_16  and  C_17
REMARK    8  A    between atoms: C_17  and  C_18
REMARK                            x       y       z     vdW  Elec       q    Type
REMARK                         _______ _______ _______ _____ _____    ______ ____
ROOT
ATOM      1  C   UNL     1      34.148  22.707  12.445  0.00  0.00    +0.102 C 
ATOM      2  C   UNL     1      35.484  22.858  13.186  0.00  0.00    +0.033 C 
ENDROOT
BRANCH   1   9
ATOM      3  N   UNL     1      34.859  22.072   6.124  0.00  0.00    -0.299 N 
ATOM      4  C   UNL     1      34.231  23.330   6.528  0.00  0.00    +0.127 C 
ATOM      5  C   UNL     1      33.155  23.115   7.596  0.00  0.00    +0.129 C 
ATOM      6  N   UNL     1      33.754  22.468   8.759  0.00  0.00    -0.275 N 
ATOM      7  C   UNL     1      33.588  23.018  10.023  0.00  0.00    +0.303 C 
ATOM      8  O   UNL     1      32.916  24.019  10.233  0.00  0.00    -0.253 OA
ATOM      9  N   UNL     1      34.270  22.370  11.024  0.00  0.00    -0.293 N 
ATOM     10  C   UNL     1      34.524  21.258   8.461  0.00  0.00    +0.205 C 
ATOM     11  C   UNL     1      34.903  20.985   6.994  0.00  0.00    +0.233 C 
ATOM     12  O   UNL     1      35.356  19.889   6.662  0.00  0.00    -0.274 OA
ATOM     13  H   UNL     1      34.412  21.388  10.859  0.00  0.00    +0.151 HD
BRANCH   3  15
ATOM     14  C   UNL     1      36.121  23.478   4.533  0.00  0.00    +0.024 C 
ATOM     15  C   UNL     1      35.744  22.066   4.960  0.00  0.00    +0.104 C 
ENDBRANCH   3  15
ENDBRANCH   1   9
BRANCH   1  16
ATOM     16  C   UNL     1      33.313  21.617  13.107  0.00  0.00    -0.024 A 
ATOM     17  C   UNL     1      33.934  20.690  13.966  0.00  0.00    +0.009 A 
ATOM     18  C   UNL     1      33.220  19.632  14.521  0.00  0.00    +0.049 A 
ATOM     19  C   UNL     1      31.877  19.445  14.193  0.00  0.00    +0.156 A 
ATOM     20  C   UNL     1      31.237  20.396  13.394  0.00  0.00    +0.165 A 
ATOM     21  F   UNL     1      29.935  20.269  13.101  0.00  0.00    -0.202 F 
ATOM     22  C   UNL     1      31.943  21.474  12.849  0.00  0.00    +0.047 A 
BRANCH  19  23
ATOM     23  O   UNL     1      31.145  18.359  14.595  0.00  0.00    -0.489 OA
BRANCH  23  24
ATOM     24  C   UNL     1      31.760  17.096  14.324  0.00  0.00    +0.232 C 
BRANCH  24  25
ATOM     25  C   UNL     1      31.733  16.850  12.851  0.00  0.00    +0.027 C 
ATOM     26  C   UNL     1      32.202  15.532  12.293  0.00  0.00    +0.007 C 
ATOM     27  C   UNL     1      33.015  16.776  12.057  0.00  0.00    +0.007 C 
ENDBRANCH  24  25
ENDBRANCH  23  24
ENDBRANCH  19  23
ENDBRANCH   1  16
TORSDOF 6
ENDMDL
