MODEL 1
REMARK VINA RESULT:      -7.7      0.000      0.000
REMARK  Name = ZINC000870248439
REMARK  2 active torsions:
REMARK  status: ('A' for Active; 'I' for Inactive)
REMARK    1  A    between atoms: C_2  and  C_4
REMARK    2  A    between atoms: C_7  and  C_8
REMARK                            x       y       z     vdW  Elec       q    Type
REMARK                         _______ _______ _______ _____ _____    ______ ____
ROOT
ATOM      1  C   UNL     1      31.788  21.085  14.911  0.00  0.00    +0.247 C 
ATOM      2  O   UNL     1      32.296  19.987  15.134  0.00  0.00    -0.270 OA
ATOM      3  N   UNL     1      32.190  21.917  13.857  0.00  0.00    -0.297 N 
ATOM      4  C   UNL     1      31.647  23.245  13.566  0.00  0.00    +0.108 C 
ATOM      5  C   UNL     1      31.520  23.531  12.075  0.00  0.00    +0.026 C 
ATOM      6  C   UNL     1      32.807  23.234  11.276  0.00  0.00    -0.025 C 
ATOM      7  C   UNL     1      32.458  23.359   9.771  0.00  0.00    +0.017 C 
ATOM      8  C   UNL     1      33.624  23.133   8.818  0.00  0.00    +0.069 C 
ATOM      9  S   UNL     1      34.970  24.321   9.082  0.00  0.00    -0.161 S 
ATOM     10  C   UNL     1      35.207  24.113  10.867  0.00  0.00    +0.069 C 
ATOM     11  C   UNL     1      33.901  24.272  11.637  0.00  0.00    +0.017 C 
ATOM     12  C   UNL     1      33.230  21.781  11.617  0.00  0.00    +0.026 C 
ATOM     13  C   UNL     1      33.393  21.543  13.118  0.00  0.00    +0.108 C 
ENDROOT
BRANCH   1  17
ATOM     14  C   UNL     1      28.603  22.043  17.587  0.00  0.00    +0.037 A 
ATOM     15  C   UNL     1      28.307  21.445  16.358  0.00  0.00    +0.014 A 
ATOM     16  C   UNL     1      29.329  21.217  15.436  0.00  0.00    +0.014 A 
ATOM     17  C   UNL     1      30.657  21.496  15.779  0.00  0.00    +0.037 A 
ATOM     18  C   UNL     1      30.940  22.176  16.970  0.00  0.00    +0.014 A 
ATOM     19  C   UNL     1      29.910  22.460  17.870  0.00  0.00    +0.014 A 
BRANCH  14  21
ATOM     20  N   UNL     1      26.251  22.202  18.178  0.00  0.00    -0.325 N 
ATOM     21  C   UNL     1      27.547  22.251  18.609  0.00  0.00    +0.242 C 
ATOM     22  O   UNL     1      27.819  22.404  19.790  0.00  0.00    -0.270 OA
ATOM     23  H   UNL     1      25.541  22.221  18.900  0.00  0.00    +0.145 HD
ATOM     24  H   UNL     1      25.993  21.819  17.279  0.00  0.00    +0.145 HD
ENDBRANCH  14  21
ENDBRANCH   1  17
TORSDOF 2
ENDMDL
MODEL 2
REMARK VINA RESULT:      -7.2      3.570      4.984
REMARK  Name = ZINC000870248439
REMARK  2 active torsions:
REMARK  status: ('A' for Active; 'I' for Inactive)
REMARK    1  A    between atoms: C_2  and  C_4
REMARK    2  A    between atoms: C_7  and  C_8
REMARK                            x       y       z     vdW  Elec       q    Type
REMARK                         _______ _______ _______ _____ _____    ______ ____
ROOT
ATOM      1  C   UNL     1      31.574  21.342  14.815  0.00  0.00    +0.247 C 
ATOM      2  O   UNL     1      32.178  22.278  14.293  0.00  0.00    -0.270 OA
ATOM      3  N   UNL     1      31.909  19.998  14.602  0.00  0.00    -0.297 N 
ATOM      4  C   UNL     1      31.205  18.844  15.167  0.00  0.00    +0.108 C 
ATOM      5  C   UNL     1      32.136  17.705  15.564  0.00  0.00    +0.026 C 
ATOM      6  C   UNL     1      33.130  17.302  14.453  0.00  0.00    -0.025 C 
ATOM      7  C   UNL     1      34.138  16.302  15.073  0.00  0.00    +0.017 C 
ATOM      8  C   UNL     1      35.184  15.760  14.109  0.00  0.00    +0.069 C 
ATOM      9  S   UNL     1      34.441  14.864  12.718  0.00  0.00    -0.161 S 
ATOM     10  C   UNL     1      33.254  16.115  12.156  0.00  0.00    +0.069 C 
ATOM     11  C   UNL     1      32.367  16.610  13.294  0.00  0.00    +0.017 C 
ATOM     12  C   UNL     1      33.855  18.596  13.999  0.00  0.00    +0.026 C 
ATOM     13  C   UNL     1      32.892  19.700  13.564  0.00  0.00    +0.108 C 
ENDROOT
BRANCH   1  17
ATOM     14  C   UNL     1      28.508  22.093  17.691  0.00  0.00    +0.037 A 
ATOM     15  C   UNL     1      28.161  21.567  16.441  0.00  0.00    +0.014 A 
ATOM     16  C   UNL     1      29.141  21.409  15.461  0.00  0.00    +0.014 A 
ATOM     17  C   UNL     1      30.480  21.684  15.758  0.00  0.00    +0.037 A 
ATOM     18  C   UNL     1      30.812  22.293  16.975  0.00  0.00    +0.014 A 
ATOM     19  C   UNL     1      29.823  22.508  17.938  0.00  0.00    +0.014 A 
BRANCH  14  21
ATOM     20  N   UNL     1      26.185  22.207  18.396  0.00  0.00    -0.325 N 
ATOM     21  C   UNL     1      27.499  22.223  18.771  0.00  0.00    +0.242 C 
ATOM     22  O   UNL     1      27.824  22.287  19.947  0.00  0.00    -0.270 OA
ATOM     23  H   UNL     1      25.508  22.173  19.147  0.00  0.00    +0.145 HD
ATOM     24  H   UNL     1      25.887  21.894  17.483  0.00  0.00    +0.145 HD
ENDBRANCH  14  21
ENDBRANCH   1  17
TORSDOF 2
ENDMDL
MODEL 3
REMARK VINA RESULT:      -7.0      0.678      1.233
REMARK  Name = ZINC000870248439
REMARK  2 active torsions:
REMARK  status: ('A' for Active; 'I' for Inactive)
REMARK    1  A    between atoms: C_2  and  C_4
REMARK    2  A    between atoms: C_7  and  C_8
REMARK                            x       y       z     vdW  Elec       q    Type
REMARK                         _______ _______ _______ _____ _____    ______ ____
ROOT
ATOM      1  C   UNL     1      32.068  20.713  14.568  0.00  0.00    +0.247 C 
ATOM      2  O   UNL     1      32.395  19.527  14.535  0.00  0.00    -0.270 OA
ATOM      3  N   UNL     1      32.485  21.651  13.613  0.00  0.00    -0.297 N 
ATOM      4  C   UNL     1      32.158  23.078  13.622  0.00  0.00    +0.108 C 
ATOM      5  C   UNL     1      31.908  23.648  12.231  0.00  0.00    +0.026 C 
ATOM      6  C   UNL     1      33.017  23.305  11.213  0.00  0.00    -0.025 C 
ATOM      7  C   UNL     1      32.521  23.756   9.816  0.00  0.00    +0.017 C 
ATOM      8  C   UNL     1      33.506  23.529   8.678  0.00  0.00    +0.069 C 
ATOM      9  S   UNL     1      35.064  24.424   8.926  0.00  0.00    -0.161 S 
ATOM     10  C   UNL     1      35.470  23.860  10.600  0.00  0.00    +0.069 C 
ATOM     11  C   UNL     1      34.314  24.076  11.570  0.00  0.00    +0.017 C 
ATOM     12  C   UNL     1      33.211  21.766  11.251  0.00  0.00    +0.026 C 
ATOM     13  C   UNL     1      33.506  21.235  12.654  0.00  0.00    +0.108 C 
ENDROOT
BRANCH   1  17
ATOM     14  C   UNL     1      29.325  22.145  17.509  0.00  0.00    +0.037 A 
ATOM     15  C   UNL     1      30.700  22.272  17.736  0.00  0.00    +0.014 A 
ATOM     16  C   UNL     1      31.604  21.721  16.828  0.00  0.00    +0.014 A 
ATOM     17  C   UNL     1      31.140  21.130  15.648  0.00  0.00    +0.037 A 
ATOM     18  C   UNL     1      29.766  20.924  15.466  0.00  0.00    +0.014 A 
ATOM     19  C   UNL     1      28.858  21.422  16.404  0.00  0.00    +0.014 A 
BRANCH  14  21
ATOM     20  N   UNL     1      27.080  22.232  18.437  0.00  0.00    -0.325 N 
ATOM     21  C   UNL     1      28.339  22.765  18.429  0.00  0.00    +0.242 C 
ATOM     22  O   UNL     1      28.649  23.675  19.183  0.00  0.00    -0.270 OA
ATOM     23  H   UNL     1      26.454  22.581  19.153  0.00  0.00    +0.145 HD
ATOM     24  H   UNL     1      26.871  21.331  18.032  0.00  0.00    +0.145 HD
ENDBRANCH  14  21
ENDBRANCH   1  17
TORSDOF 2
ENDMDL
MODEL 4
REMARK VINA RESULT:      -7.0      4.348      5.394
REMARK  Name = ZINC000870248439
REMARK  2 active torsions:
REMARK  status: ('A' for Active; 'I' for Inactive)
REMARK    1  A    between atoms: C_2  and  C_4
REMARK    2  A    between atoms: C_7  and  C_8
REMARK                            x       y       z     vdW  Elec       q    Type
REMARK                         _______ _______ _______ _____ _____    ______ ____
ROOT
ATOM      1  C   UNL     1      30.123  20.407  14.541  0.00  0.00    +0.247 C 
ATOM      2  O   UNL     1      29.543  20.902  13.576  0.00  0.00    -0.270 OA
ATOM      3  N   UNL     1      30.903  19.245  14.455  0.00  0.00    -0.297 N 
ATOM      4  C   UNL     1      31.585  18.593  15.575  0.00  0.00    +0.108 C 
ATOM      5  C   UNL     1      32.947  18.021  15.200  0.00  0.00    +0.026 C 
ATOM      6  C   UNL     1      32.921  17.140  13.933  0.00  0.00    -0.025 C 
ATOM      7  C   UNL     1      34.390  16.820  13.560  0.00  0.00    +0.017 C 
ATOM      8  C   UNL     1      34.566  15.921  12.344  0.00  0.00    +0.069 C 
ATOM      9  S   UNL     1      33.782  14.301  12.565  0.00  0.00    -0.161 S 
ATOM     10  C   UNL     1      32.123  14.837  13.063  0.00  0.00    +0.069 C 
ATOM     11  C   UNL     1      32.167  15.818  14.229  0.00  0.00    +0.017 C 
ATOM     12  C   UNL     1      32.244  17.973  12.813  0.00  0.00    +0.026 C 
ATOM     13  C   UNL     1      30.860  18.490  13.206  0.00  0.00    +0.108 C 
ENDROOT
BRANCH   1  17
ATOM     14  C   UNL     1      29.742  22.720  18.109  0.00  0.00    +0.037 A 
ATOM     15  C   UNL     1      31.018  22.446  17.604  0.00  0.00    +0.014 A 
ATOM     16  C   UNL     1      31.157  21.611  16.496  0.00  0.00    +0.014 A 
ATOM     17  C   UNL     1      30.023  21.129  15.834  0.00  0.00    +0.037 A 
ATOM     18  C   UNL     1      28.754  21.330  16.391  0.00  0.00    +0.014 A 
ATOM     19  C   UNL     1      28.614  22.118  17.537  0.00  0.00    +0.014 A 
BRANCH  14  21
ATOM     20  N   UNL     1      28.271  23.959  19.596  0.00  0.00    -0.325 N 
ATOM     21  C   UNL     1      29.557  23.647  19.254  0.00  0.00    +0.242 C 
ATOM     22  O   UNL     1      30.506  24.070  19.897  0.00  0.00    -0.270 OA
ATOM     23  H   UNL     1      28.154  24.490  20.449  0.00  0.00    +0.145 HD
ATOM     24  H   UNL     1      27.478  23.429  19.263  0.00  0.00    +0.145 HD
ENDBRANCH  14  21
ENDBRANCH   1  17
TORSDOF 2
ENDMDL
MODEL 5
REMARK VINA RESULT:      -6.8      4.301      5.747
REMARK  Name = ZINC000870248439
REMARK  2 active torsions:
REMARK  status: ('A' for Active; 'I' for Inactive)
REMARK    1  A    between atoms: C_2  and  C_4
REMARK    2  A    between atoms: C_7  and  C_8
REMARK                            x       y       z     vdW  Elec       q    Type
REMARK                         _______ _______ _______ _____ _____    ______ ____
ROOT
ATOM      1  C   UNL     1      31.625  20.391  14.268  0.00  0.00    +0.247 C 
ATOM      2  O   UNL     1      31.985  21.177  13.392  0.00  0.00    -0.270 OA
ATOM      3  N   UNL     1      31.916  19.021  14.237  0.00  0.00    -0.297 N 
ATOM      4  C   UNL     1      31.484  18.036  15.231  0.00  0.00    +0.108 C 
ATOM      5  C   UNL     1      32.533  16.970  15.520  0.00  0.00    +0.026 C 
ATOM      6  C   UNL     1      33.111  16.310  14.249  0.00  0.00    -0.025 C 
ATOM      7  C   UNL     1      34.304  15.423  14.689  0.00  0.00    +0.017 C 
ATOM      8  C   UNL     1      34.985  14.655  13.564  0.00  0.00    +0.069 C 
ATOM      9  S   UNL     1      33.851  13.519  12.719  0.00  0.00    -0.161 S 
ATOM     10  C   UNL     1      32.501  14.670  12.342  0.00  0.00    +0.069 C 
ATOM     11  C   UNL     1      32.030  15.421  13.582  0.00  0.00    +0.017 C 
ATOM     12  C   UNL     1      33.597  17.454  13.322  0.00  0.00    +0.026 C 
ATOM     13  C   UNL     1      32.505  18.479  13.015  0.00  0.00    +0.108 C 
ENDROOT
BRANCH   1  17
ATOM     14  C   UNL     1      29.485  22.270  17.450  0.00  0.00    +0.037 A 
ATOM     15  C   UNL     1      30.879  22.169  17.528  0.00  0.00    +0.014 A 
ATOM     16  C   UNL     1      31.577  21.472  16.542  0.00  0.00    +0.014 A 
ATOM     17  C   UNL     1      30.899  20.960  15.431  0.00  0.00    +0.037 A 
ATOM     18  C   UNL     1      29.498  20.983  15.399  0.00  0.00    +0.014 A 
ATOM     19  C   UNL     1      28.790  21.630  16.416  0.00  0.00    +0.014 A 
BRANCH  14  21
ATOM     20  N   UNL     1      27.490  22.567  18.805  0.00  0.00    -0.325 N 
ATOM     21  C   UNL     1      28.719  23.050  18.454  0.00  0.00    +0.242 C 
ATOM     22  O   UNL     1      29.185  24.047  18.984  0.00  0.00    -0.270 OA
ATOM     23  H   UNL     1      27.031  23.035  19.576  0.00  0.00    +0.145 HD
ATOM     24  H   UNL     1      27.196  21.624  18.590  0.00  0.00    +0.145 HD
ENDBRANCH  14  21
ENDBRANCH   1  17
TORSDOF 2
ENDMDL
MODEL 6
REMARK VINA RESULT:      -6.7      3.968      7.827
REMARK  Name = ZINC000870248439
REMARK  2 active torsions:
REMARK  status: ('A' for Active; 'I' for Inactive)
REMARK    1  A    between atoms: C_2  and  C_4
REMARK    2  A    between atoms: C_7  and  C_8
REMARK                            x       y       z     vdW  Elec       q    Type
REMARK                         _______ _______ _______ _____ _____    ______ ____
ROOT
ATOM      1  C   UNL     1      30.899  22.560  13.911  0.00  0.00    +0.247 C 
ATOM      2  O   UNL     1      29.922  21.832  13.746  0.00  0.00    -0.270 OA
ATOM      3  N   UNL     1      31.442  22.843  15.172  0.00  0.00    -0.297 N 
ATOM      4  C   UNL     1      32.580  23.729  15.430  0.00  0.00    +0.108 C 
ATOM      5  C   UNL     1      33.492  23.229  16.543  0.00  0.00    +0.026 C 
ATOM      6  C   UNL     1      32.739  22.846  17.836  0.00  0.00    -0.025 C 
ATOM      7  C   UNL     1      33.758  22.159  18.780  0.00  0.00    +0.017 C 
ATOM      8  C   UNL     1      33.201  21.740  20.133  0.00  0.00    +0.069 C 
ATOM      9  S   UNL     1      32.566  23.147  21.084  0.00  0.00    -0.161 S 
ATOM     10  C   UNL     1      31.467  23.877  19.840  0.00  0.00    +0.069 C 
ATOM     11  C   UNL     1      32.187  24.124  18.519  0.00  0.00    +0.017 C 
ATOM     12  C   UNL     1      31.617  21.855  17.432  0.00  0.00    +0.026 C 
ATOM     13  C   UNL     1      30.693  22.407  16.347  0.00  0.00    +0.108 C 
ENDROOT
BRANCH   1  17
ATOM     14  C   UNL     1      32.987  24.231  10.582  0.00  0.00    +0.037 A 
ATOM     15  C   UNL     1      31.815  24.847  11.034  0.00  0.00    +0.014 A 
ATOM     16  C   UNL     1      31.073  24.255  12.057  0.00  0.00    +0.014 A 
ATOM     17  C   UNL     1      31.551  23.104  12.694  0.00  0.00    +0.037 A 
ATOM     18  C   UNL     1      32.673  22.441  12.182  0.00  0.00    +0.014 A 
ATOM     19  C   UNL     1      33.386  22.999  11.117  0.00  0.00    +0.014 A 
BRANCH  14  21
ATOM     20  N   UNL     1      34.185  24.077   8.473  0.00  0.00    -0.325 N 
ATOM     21  C   UNL     1      33.825  24.862   9.532  0.00  0.00    +0.242 C 
ATOM     22  O   UNL     1      34.135  26.043   9.583  0.00  0.00    -0.270 OA
ATOM     23  H   UNL     1      34.650  24.548   7.708  0.00  0.00    +0.145 HD
ATOM     24  H   UNL     1      33.734  23.195   8.274  0.00  0.00    +0.145 HD
ENDBRANCH  14  21
ENDBRANCH   1  17
TORSDOF 2
ENDMDL
MODEL 7
REMARK VINA RESULT:      -6.6      5.201      7.139
REMARK  Name = ZINC000870248439
REMARK  2 active torsions:
REMARK  status: ('A' for Active; 'I' for Inactive)
REMARK    1  A    between atoms: C_2  and  C_4
REMARK    2  A    between atoms: C_7  and  C_8
REMARK                            x       y       z     vdW  Elec       q    Type
REMARK                         _______ _______ _______ _____ _____    ______ ____
ROOT
ATOM      1  C   UNL     1      33.016  23.540  18.064  0.00  0.00    +0.247 C 
ATOM      2  O   UNL     1      33.386  24.683  17.796  0.00  0.00    -0.270 OA
ATOM      3  N   UNL     1      33.874  22.553  18.566  0.00  0.00    -0.297 N 
ATOM      4  C   UNL     1      33.498  21.170  18.869  0.00  0.00    +0.108 C 
ATOM      5  C   UNL     1      34.182  20.618  20.113  0.00  0.00    +0.026 C 
ATOM      6  C   UNL     1      35.711  20.827  20.123  0.00  0.00    -0.025 C 
ATOM      7  C   UNL     1      36.226  20.420  21.527  0.00  0.00    +0.017 C 
ATOM      8  C   UNL     1      37.733  20.525  21.717  0.00  0.00    +0.069 C 
ATOM      9  S   UNL     1      38.649  19.467  20.564  0.00  0.00    -0.161 S 
ATOM     10  C   UNL     1      37.894  20.000  19.004  0.00  0.00    +0.069 C 
ATOM     11  C   UNL     1      36.372  19.921  19.052  0.00  0.00    +0.017 C 
ATOM     12  C   UNL     1      35.967  22.335  19.867  0.00  0.00    +0.026 C 
ATOM     13  C   UNL     1      35.305  22.844  18.586  0.00  0.00    +0.108 C 
ENDROOT
BRANCH   1  17
ATOM     14  C   UNL     1      28.895  22.462  17.775  0.00  0.00    +0.037 A 
ATOM     15  C   UNL     1      29.770  22.104  16.743  0.00  0.00    +0.014 A 
ATOM     16  C   UNL     1      31.096  22.535  16.781  0.00  0.00    +0.014 A 
ATOM     17  C   UNL     1      31.573  23.239  17.893  0.00  0.00    +0.037 A 
ATOM     18  C   UNL     1      30.677  23.672  18.878  0.00  0.00    +0.014 A 
ATOM     19  C   UNL     1      29.334  23.292  18.813  0.00  0.00    +0.014 A 
BRANCH  14  21
ATOM     20  N   UNL     1      26.765  22.218  18.921  0.00  0.00    -0.325 N 
ATOM     21  C   UNL     1      27.493  21.975  17.790  0.00  0.00    +0.242 C 
ATOM     22  O   UNL     1      26.993  21.429  16.817  0.00  0.00    -0.270 OA
ATOM     23  H   UNL     1      25.780  21.993  18.873  0.00  0.00    +0.145 HD
ATOM     24  H   UNL     1      27.059  22.886  19.620  0.00  0.00    +0.145 HD
ENDBRANCH  14  21
ENDBRANCH   1  17
TORSDOF 2
ENDMDL
MODEL 8
REMARK VINA RESULT:      -6.3      5.918      8.277
REMARK  Name = ZINC000870248439
REMARK  2 active torsions:
REMARK  status: ('A' for Active; 'I' for Inactive)
REMARK    1  A    between atoms: C_2  and  C_4
REMARK    2  A    between atoms: C_7  and  C_8
REMARK                            x       y       z     vdW  Elec       q    Type
REMARK                         _______ _______ _______ _____ _____    ______ ____
ROOT
ATOM      1  C   UNL     1      32.676  23.995  18.467  0.00  0.00    +0.247 C 
ATOM      2  O   UNL     1      33.079  24.595  17.471  0.00  0.00    -0.270 OA
ATOM      3  N   UNL     1      33.406  23.911  19.660  0.00  0.00    -0.297 N 
ATOM      4  C   UNL     1      32.992  23.182  20.861  0.00  0.00    +0.108 C 
ATOM      5  C   UNL     1      33.366  23.893  22.156  0.00  0.00    +0.026 C 
ATOM      6  C   UNL     1      34.843  24.335  22.216  0.00  0.00    -0.025 C 
ATOM      7  C   UNL     1      35.011  25.224  23.474  0.00  0.00    +0.017 C 
ATOM      8  C   UNL     1      36.426  25.730  23.722  0.00  0.00    +0.069 C 
ATOM      9  S   UNL     1      37.612  24.377  23.950  0.00  0.00    -0.161 S 
ATOM     10  C   UNL     1      37.246  23.404  22.464  0.00  0.00    +0.069 C 
ATOM     11  C   UNL     1      35.759  23.090  22.341  0.00  0.00    +0.017 C 
ATOM     12  C   UNL     1      35.126  25.154  20.929  0.00  0.00    +0.026 C 
ATOM     13  C   UNL     1      34.784  24.393  19.649  0.00  0.00    +0.108 C 
ENDROOT
BRANCH   1  17
ATOM     14  C   UNL     1      28.730  22.430  18.013  0.00  0.00    +0.037 A 
ATOM     15  C   UNL     1      28.999  23.313  19.065  0.00  0.00    +0.014 A 
ATOM     16  C   UNL     1      30.305  23.753  19.280  0.00  0.00    +0.014 A 
ATOM     17  C   UNL     1      31.323  23.391  18.390  0.00  0.00    +0.037 A 
ATOM     18  C   UNL     1      31.070  22.439  17.395  0.00  0.00    +0.014 A 
ATOM     19  C   UNL     1      29.774  21.949  17.213  0.00  0.00    +0.014 A 
BRANCH  14  21
ATOM     20  N   UNL     1      26.386  22.312  18.646  0.00  0.00    -0.325 N 
ATOM     21  C   UNL     1      27.343  21.985  17.727  0.00  0.00    +0.242 C 
ATOM     22  O   UNL     1      27.058  21.402  16.692  0.00  0.00    -0.270 OA
ATOM     23  H   UNL     1      25.429  22.113  18.382  0.00  0.00    +0.145 HD
ATOM     24  H   UNL     1      26.538  23.009  19.362  0.00  0.00    +0.145 HD
ENDBRANCH  14  21
ENDBRANCH   1  17
TORSDOF 2
ENDMDL
MODEL 9
REMARK VINA RESULT:      -6.3      4.500      5.300
REMARK  Name = ZINC000870248439
REMARK  2 active torsions:
REMARK  status: ('A' for Active; 'I' for Inactive)
REMARK    1  A    between atoms: C_2  and  C_4
REMARK    2  A    between atoms: C_7  and  C_8
REMARK                            x       y       z     vdW  Elec       q    Type
REMARK                         _______ _______ _______ _____ _____    ______ ____
ROOT
ATOM      1  C   UNL     1      33.024  22.314  17.828  0.00  0.00    +0.247 C 
ATOM      2  O   UNL     1      33.551  21.208  17.949  0.00  0.00    -0.270 OA
ATOM      3  N   UNL     1      33.753  23.508  17.758  0.00  0.00    -0.297 N 
ATOM      4  C   UNL     1      33.179  24.851  17.650  0.00  0.00    +0.108 C 
ATOM      5  C   UNL     1      33.983  25.780  16.748  0.00  0.00    +0.026 C 
ATOM      6  C   UNL     1      35.492  25.809  17.077  0.00  0.00    -0.025 C 
ATOM      7  C   UNL     1      36.196  26.610  15.953  0.00  0.00    +0.017 C 
ATOM      8  C   UNL     1      37.699  26.778  16.126  0.00  0.00    +0.069 C 
ATOM      9  S   UNL     1      38.123  27.656  17.655  0.00  0.00    -0.161 S 
ATOM     10  C   UNL     1      37.181  26.661  18.843  0.00  0.00    +0.069 C 
ATOM     11  C   UNL     1      35.719  26.522  18.435  0.00  0.00    +0.017 C 
ATOM     12  C   UNL     1      35.984  24.338  17.087  0.00  0.00    +0.026 C 
ATOM     13  C   UNL     1      35.186  23.446  18.037  0.00  0.00    +0.108 C 
ENDROOT
BRANCH   1  17
ATOM     14  C   UNL     1      28.761  22.182  17.621  0.00  0.00    +0.037 A 
ATOM     15  C   UNL     1      29.514  21.728  16.532  0.00  0.00    +0.014 A 
ATOM     16  C   UNL     1      30.903  21.857  16.550  0.00  0.00    +0.014 A 
ATOM     17  C   UNL     1      31.547  22.347  17.691  0.00  0.00    +0.037 A 
ATOM     18  C   UNL     1      30.790  22.883  18.741  0.00  0.00    +0.014 A 
ATOM     19  C   UNL     1      29.395  22.810  18.701  0.00  0.00    +0.014 A 
BRANCH  14  21
ATOM     20  N   UNL     1      26.651  22.353  18.815  0.00  0.00    -0.325 N 
ATOM     21  C   UNL     1      27.287  22.011  17.654  0.00  0.00    +0.242 C 
ATOM     22  O   UNL     1      26.663  21.634  16.674  0.00  0.00    -0.270 OA
ATOM     23  H   UNL     1      25.640  22.349  18.785  0.00  0.00    +0.145 HD
ATOM     24  H   UNL     1      27.096  22.907  19.533  0.00  0.00    +0.145 HD
ENDBRANCH  14  21
ENDBRANCH   1  17
TORSDOF 2
ENDMDL
