MODEL 1
REMARK VINA RESULT:      -5.9      0.000      0.000
REMARK  Name = ZINC000870248439
REMARK  2 active torsions:
REMARK  status: ('A' for Active; 'I' for Inactive)
REMARK    1  A    between atoms: C_2  and  C_4
REMARK    2  A    between atoms: C_7  and  C_8
REMARK                            x       y       z     vdW  Elec       q    Type
REMARK                         _______ _______ _______ _____ _____    ______ ____
ROOT
ATOM      1  C   UNL     1      33.275  23.339   9.836  0.00  0.00    +0.247 C 
ATOM      2  O   UNL     1      32.503  24.267   9.594  0.00  0.00    -0.270 OA
ATOM      3  N   UNL     1      33.378  22.738  11.098  0.00  0.00    -0.297 N 
ATOM      4  C   UNL     1      34.260  21.626  11.444  0.00  0.00    +0.108 C 
ATOM      5  C   UNL     1      33.588  20.562  12.287  0.00  0.00    +0.026 C 
ATOM      6  C   UNL     1      32.886  21.143  13.527  0.00  0.00    -0.025 C 
ATOM      7  C   UNL     1      32.059  20.004  14.167  0.00  0.00    +0.017 C 
ATOM      8  C   UNL     1      31.338  20.391  15.451  0.00  0.00    +0.069 C 
ATOM      9  S   UNL     1      32.478  20.945  16.750  0.00  0.00    -0.161 S 
ATOM     10  C   UNL     1      33.401  22.200  15.824  0.00  0.00    +0.069 C 
ATOM     11  C   UNL     1      33.963  21.632  14.529  0.00  0.00    +0.017 C 
ATOM     12  C   UNL     1      31.951  22.287  13.043  0.00  0.00    +0.026 C 
ATOM     13  C   UNL     1      32.679  23.350  12.222  0.00  0.00    +0.108 C 
ENDROOT
BRANCH   1  17
ATOM     14  C   UNL     1      35.456  22.047   6.399  0.00  0.00    +0.037 A 
ATOM     15  C   UNL     1      34.311  21.350   6.786  0.00  0.00    +0.014 A 
ATOM     16  C   UNL     1      33.666  21.694   7.967  0.00  0.00    +0.014 A 
ATOM     17  C   UNL     1      34.086  22.804   8.712  0.00  0.00    +0.037 A 
ATOM     18  C   UNL     1      35.271  23.461   8.362  0.00  0.00    +0.014 A 
ATOM     19  C   UNL     1      35.961  23.073   7.210  0.00  0.00    +0.014 A 
BRANCH  14  21
ATOM     20  N   UNL     1      36.259  22.682   4.197  0.00  0.00    -0.325 N 
ATOM     21  C   UNL     1      36.150  21.694   5.139  0.00  0.00    +0.242 C 
ATOM     22  O   UNL     1      36.628  20.581   4.963  0.00  0.00    -0.270 OA
ATOM     23  H   UNL     1      36.821  22.449   3.382  0.00  0.00    +0.145 HD
ATOM     24  H   UNL     1      36.128  23.656   4.413  0.00  0.00    +0.145 HD
ENDBRANCH  14  21
ENDBRANCH   1  17
TORSDOF 2
ENDMDL
MODEL 2
REMARK VINA RESULT:      -5.9      5.802      8.825
REMARK  Name = ZINC000870248439
REMARK  2 active torsions:
REMARK  status: ('A' for Active; 'I' for Inactive)
REMARK    1  A    between atoms: C_2  and  C_4
REMARK    2  A    between atoms: C_7  and  C_8
REMARK                            x       y       z     vdW  Elec       q    Type
REMARK                         _______ _______ _______ _____ _____    ______ ____
ROOT
ATOM      1  C   UNL     1      33.021  16.747  13.659  0.00  0.00    +0.247 C 
ATOM      2  O   UNL     1      32.434  15.731  14.031  0.00  0.00    -0.270 OA
ATOM      3  N   UNL     1      33.881  16.774  12.553  0.00  0.00    -0.297 N 
ATOM      4  C   UNL     1      34.593  17.948  12.054  0.00  0.00    +0.108 C 
ATOM      5  C   UNL     1      34.551  18.084  10.545  0.00  0.00    +0.026 C 
ATOM      6  C   UNL     1      34.989  16.799   9.822  0.00  0.00    -0.025 C 
ATOM      7  C   UNL     1      34.685  16.989   8.318  0.00  0.00    +0.017 C 
ATOM      8  C   UNL     1      35.112  15.824   7.434  0.00  0.00    +0.069 C 
ATOM      9  S   UNL     1      36.896  15.498   7.528  0.00  0.00    -0.161 S 
ATOM     10  C   UNL     1      37.086  15.380   9.326  0.00  0.00    +0.069 C 
ATOM     11  C   UNL     1      36.513  16.603  10.026  0.00  0.00    +0.017 C 
ATOM     12  C   UNL     1      34.148  15.626  10.401  0.00  0.00    +0.026 C 
ATOM     13  C   UNL     1      34.246  15.512  11.921  0.00  0.00    +0.108 C 
ENDROOT
BRANCH   1  17
ATOM     14  C   UNL     1      32.417  20.546  15.514  0.00  0.00    +0.037 A 
ATOM     15  C   UNL     1      33.421  19.703  15.991  0.00  0.00    +0.014 A 
ATOM     16  C   UNL     1      33.544  18.422  15.469  0.00  0.00    +0.014 A 
ATOM     17  C   UNL     1      32.747  18.011  14.393  0.00  0.00    +0.037 A 
ATOM     18  C   UNL     1      31.699  18.829  13.959  0.00  0.00    +0.014 A 
ATOM     19  C   UNL     1      31.527  20.094  14.530  0.00  0.00    +0.014 A 
BRANCH  14  21
ATOM     20  N   UNL     1      31.034  22.487  15.983  0.00  0.00    -0.325 N 
ATOM     21  C   UNL     1      32.277  21.917  16.059  0.00  0.00    +0.242 C 
ATOM     22  O   UNL     1      33.222  22.498  16.578  0.00  0.00    -0.270 OA
ATOM     23  H   UNL     1      30.937  23.387  16.447  0.00  0.00    +0.145 HD
ATOM     24  H   UNL     1      30.199  21.951  15.821  0.00  0.00    +0.145 HD
ENDBRANCH  14  21
ENDBRANCH   1  17
TORSDOF 2
ENDMDL
MODEL 3
REMARK VINA RESULT:      -5.8      5.910      7.332
REMARK  Name = ZINC000870248439
REMARK  2 active torsions:
REMARK  status: ('A' for Active; 'I' for Inactive)
REMARK    1  A    between atoms: C_2  and  C_4
REMARK    2  A    between atoms: C_7  and  C_8
REMARK                            x       y       z     vdW  Elec       q    Type
REMARK                         _______ _______ _______ _____ _____    ______ ____
ROOT
ATOM      1  C   UNL     1      33.852  17.004  11.111  0.00  0.00    +0.247 C 
ATOM      2  O   UNL     1      34.098  17.513  10.017  0.00  0.00    -0.270 OA
ATOM      3  N   UNL     1      33.715  17.749  12.289  0.00  0.00    -0.297 N 
ATOM      4  C   UNL     1      33.409  17.208  13.611  0.00  0.00    +0.108 C 
ATOM      5  C   UNL     1      32.373  18.013  14.369  0.00  0.00    +0.026 C 
ATOM      6  C   UNL     1      32.716  19.512  14.430  0.00  0.00    -0.025 C 
ATOM      7  C   UNL     1      31.488  20.243  15.019  0.00  0.00    +0.017 C 
ATOM      8  C   UNL     1      31.674  21.743  15.206  0.00  0.00    +0.069 C 
ATOM      9  S   UNL     1      33.050  22.138  16.322  0.00  0.00    -0.161 S 
ATOM     10  C   UNL     1      34.360  21.159  15.542  0.00  0.00    +0.069 C 
ATOM     11  C   UNL     1      33.938  19.709  15.364  0.00  0.00    +0.017 C 
ATOM     12  C   UNL     1      32.986  19.990  12.975  0.00  0.00    +0.026 C 
ATOM     13  C   UNL     1      34.058  19.166  12.263  0.00  0.00    +0.108 C 
ENDROOT
BRANCH   1  17
ATOM     14  C   UNL     1      33.290  12.776  10.890  0.00  0.00    +0.037 A 
ATOM     15  C   UNL     1      32.176  13.615  10.898  0.00  0.00    +0.014 A 
ATOM     16  C   UNL     1      32.349  14.981  11.087  0.00  0.00    +0.014 A 
ATOM     17  C   UNL     1      33.634  15.534  11.155  0.00  0.00    +0.037 A 
ATOM     18  C   UNL     1      34.747  14.689  11.214  0.00  0.00    +0.014 A 
ATOM     19  C   UNL     1      34.571  13.307  11.093  0.00  0.00    +0.014 A 
BRANCH  14  21
ATOM     20  N   UNL     1      33.387  10.838   9.429  0.00  0.00    -0.325 N 
ATOM     21  C   UNL     1      33.120  11.319  10.684  0.00  0.00    +0.242 C 
ATOM     22  O   UNL     1      32.786  10.578  11.600  0.00  0.00    -0.270 OA
ATOM     23  H   UNL     1      33.358   9.826   9.334  0.00  0.00    +0.145 HD
ATOM     24  H   UNL     1      33.915  11.357   8.749  0.00  0.00    +0.145 HD
ENDBRANCH  14  21
ENDBRANCH   1  17
TORSDOF 2
ENDMDL
MODEL 4
REMARK VINA RESULT:      -5.8      6.724      9.241
REMARK  Name = ZINC000870248439
REMARK  2 active torsions:
REMARK  status: ('A' for Active; 'I' for Inactive)
REMARK    1  A    between atoms: C_2  and  C_4
REMARK    2  A    between atoms: C_7  and  C_8
REMARK                            x       y       z     vdW  Elec       q    Type
REMARK                         _______ _______ _______ _____ _____    ______ ____
ROOT
ATOM      1  C   UNL     1      33.494  16.386  15.146  0.00  0.00    +0.247 C 
ATOM      2  O   UNL     1      33.248  15.857  16.231  0.00  0.00    -0.270 OA
ATOM      3  N   UNL     1      34.053  15.692  14.064  0.00  0.00    -0.297 N 
ATOM      4  C   UNL     1      34.353  16.257  12.751  0.00  0.00    +0.108 C 
ATOM      5  C   UNL     1      33.939  15.363  11.600  0.00  0.00    +0.026 C 
ATOM      6  C   UNL     1      34.476  13.928  11.741  0.00  0.00    -0.025 C 
ATOM      7  C   UNL     1      33.805  13.073  10.643  0.00  0.00    +0.017 C 
ATOM      8  C   UNL     1      34.268  11.623  10.598  0.00  0.00    +0.069 C 
ATOM      9  S   UNL     1      36.053  11.472  10.302  0.00  0.00    -0.161 S 
ATOM     10  C   UNL     1      36.668  12.573  11.602  0.00  0.00    +0.069 C 
ATOM     11  C   UNL     1      36.011  13.943  11.525  0.00  0.00    +0.017 C 
ATOM     12  C   UNL     1      34.072  13.414  13.152  0.00  0.00    +0.026 C 
ATOM     13  C   UNL     1      34.536  14.333  14.281  0.00  0.00    +0.108 C 
ENDROOT
BRANCH   1  17
ATOM     14  C   UNL     1      32.215  20.455  14.939  0.00  0.00    +0.037 A 
ATOM     15  C   UNL     1      31.604  19.503  14.123  0.00  0.00    +0.014 A 
ATOM     16  C   UNL     1      32.094  18.204  14.102  0.00  0.00    +0.014 A 
ATOM     17  C   UNL     1      33.120  17.814  14.973  0.00  0.00    +0.037 A 
ATOM     18  C   UNL     1      33.776  18.781  15.742  0.00  0.00    +0.014 A 
ATOM     19  C   UNL     1      33.329  20.106  15.714  0.00  0.00    +0.014 A 
BRANCH  14  21
ATOM     20  N   UNL     1      30.889  22.173  16.029  0.00  0.00    -0.325 N 
ATOM     21  C   UNL     1      31.699  21.843  14.975  0.00  0.00    +0.242 C 
ATOM     22  O   UNL     1      32.007  22.662  14.118  0.00  0.00    -0.270 OA
ATOM     23  H   UNL     1      30.624  23.153  16.087  0.00  0.00    +0.145 HD
ATOM     24  H   UNL     1      30.842  21.625  16.871  0.00  0.00    +0.145 HD
ENDBRANCH  14  21
ENDBRANCH   1  17
TORSDOF 2
ENDMDL
MODEL 5
REMARK VINA RESULT:      -5.8      3.253      5.220
REMARK  Name = ZINC000870248439
REMARK  2 active torsions:
REMARK  status: ('A' for Active; 'I' for Inactive)
REMARK    1  A    between atoms: C_2  and  C_4
REMARK    2  A    between atoms: C_7  and  C_8
REMARK                            x       y       z     vdW  Elec       q    Type
REMARK                         _______ _______ _______ _____ _____    ______ ____
ROOT
ATOM      1  C   UNL     1      33.091  22.340  14.203  0.00  0.00    +0.247 C 
ATOM      2  O   UNL     1      32.348  21.382  14.420  0.00  0.00    -0.270 OA
ATOM      3  N   UNL     1      33.861  22.954  15.199  0.00  0.00    -0.297 N 
ATOM      4  C   UNL     1      34.771  24.080  15.003  0.00  0.00    +0.108 C 
ATOM      5  C   UNL     1      36.097  23.918  15.718  0.00  0.00    +0.026 C 
ATOM      6  C   UNL     1      35.928  23.572  17.208  0.00  0.00    -0.025 C 
ATOM      7  C   UNL     1      37.326  23.213  17.760  0.00  0.00    +0.017 C 
ATOM      8  C   UNL     1      37.356  22.896  19.249  0.00  0.00    +0.069 C 
ATOM      9  S   UNL     1      36.780  24.285  20.267  0.00  0.00    -0.161 S 
ATOM     10  C   UNL     1      35.198  24.619  19.450  0.00  0.00    +0.069 C 
ATOM     11  C   UNL     1      35.377  24.816  17.952  0.00  0.00    +0.017 C 
ATOM     12  C   UNL     1      34.977  22.346  17.299  0.00  0.00    +0.026 C 
ATOM     13  C   UNL     1      33.643  22.567  16.588  0.00  0.00    +0.108 C 
ENDROOT
BRANCH   1  17
ATOM     14  C   UNL     1      33.186  23.471  10.086  0.00  0.00    +0.037 A 
ATOM     15  C   UNL     1      34.172  22.618  10.585  0.00  0.00    +0.014 A 
ATOM     16  C   UNL     1      34.213  22.342  11.945  0.00  0.00    +0.014 A 
ATOM     17  C   UNL     1      33.210  22.817  12.800  0.00  0.00    +0.037 A 
ATOM     18  C   UNL     1      32.262  23.724  12.314  0.00  0.00    +0.014 A 
ATOM     19  C   UNL     1      32.259  24.059  10.957  0.00  0.00    +0.014 A 
BRANCH  14  21
ATOM     20  N   UNL     1      34.292  24.186   8.045  0.00  0.00    -0.325 N 
ATOM     21  C   UNL     1      33.128  23.770   8.636  0.00  0.00    +0.242 C 
ATOM     22  O   UNL     1      32.097  23.623   7.993  0.00  0.00    -0.270 OA
ATOM     23  H   UNL     1      34.255  24.294   7.035  0.00  0.00    +0.145 HD
ATOM     24  H   UNL     1      35.194  24.055   8.470  0.00  0.00    +0.145 HD
ENDBRANCH  14  21
ENDBRANCH   1  17
TORSDOF 2
ENDMDL
MODEL 6
REMARK VINA RESULT:      -5.7      3.775      7.816
REMARK  Name = ZINC000870248439
REMARK  2 active torsions:
REMARK  status: ('A' for Active; 'I' for Inactive)
REMARK    1  A    between atoms: C_2  and  C_4
REMARK    2  A    between atoms: C_7  and  C_8
REMARK                            x       y       z     vdW  Elec       q    Type
REMARK                         _______ _______ _______ _____ _____    ______ ____
ROOT
ATOM      1  C   UNL     1      32.488  23.486  11.833  0.00  0.00    +0.247 C 
ATOM      2  O   UNL     1      31.697  24.429  11.819  0.00  0.00    -0.270 OA
ATOM      3  N   UNL     1      33.304  23.155  10.743  0.00  0.00    -0.297 N 
ATOM      4  C   UNL     1      34.272  22.061  10.702  0.00  0.00    +0.108 C 
ATOM      5  C   UNL     1      35.596  22.449  10.077  0.00  0.00    +0.026 C 
ATOM      6  C   UNL     1      35.429  23.116   8.700  0.00  0.00    -0.025 C 
ATOM      7  C   UNL     1      36.813  23.662   8.280  0.00  0.00    +0.017 C 
ATOM      8  C   UNL     1      36.845  24.310   6.903  0.00  0.00    +0.069 C 
ATOM      9  S   UNL     1      36.360  23.163   5.582  0.00  0.00    -0.161 S 
ATOM     10  C   UNL     1      34.788  22.571   6.261  0.00  0.00    +0.069 C 
ATOM     11  C   UNL     1      34.958  22.048   7.680  0.00  0.00    +0.017 C 
ATOM     12  C   UNL     1      34.413  24.281   8.865  0.00  0.00    +0.026 C 
ATOM     13  C   UNL     1      33.083  23.836   9.473  0.00  0.00    +0.108 C 
ENDROOT
BRANCH   1  17
ATOM     14  C   UNL     1      33.106  21.063  15.295  0.00  0.00    +0.037 A 
ATOM     15  C   UNL     1      32.047  20.770  14.434  0.00  0.00    +0.014 A 
ATOM     16  C   UNL     1      31.772  21.623  13.373  0.00  0.00    +0.014 A 
ATOM     17  C   UNL     1      32.614  22.708  13.093  0.00  0.00    +0.037 A 
ATOM     18  C   UNL     1      33.633  23.040  13.991  0.00  0.00    +0.014 A 
ATOM     19  C   UNL     1      33.870  22.221  15.100  0.00  0.00    +0.014 A 
BRANCH  14  21
ATOM     20  N   UNL     1      33.795  18.882  16.111  0.00  0.00    -0.325 N 
ATOM     21  C   UNL     1      33.413  20.159  16.427  0.00  0.00    +0.242 C 
ATOM     22  O   UNL     1      33.357  20.545  17.587  0.00  0.00    -0.270 OA
ATOM     23  H   UNL     1      34.094  18.308  16.896  0.00  0.00    +0.145 HD
ATOM     24  H   UNL     1      34.112  18.621  15.192  0.00  0.00    +0.145 HD
ENDBRANCH  14  21
ENDBRANCH   1  17
TORSDOF 2
ENDMDL
MODEL 7
REMARK VINA RESULT:      -5.7      5.752      8.691
REMARK  Name = ZINC000870248439
REMARK  2 active torsions:
REMARK  status: ('A' for Active; 'I' for Inactive)
REMARK    1  A    between atoms: C_2  and  C_4
REMARK    2  A    between atoms: C_7  and  C_8
REMARK                            x       y       z     vdW  Elec       q    Type
REMARK                         _______ _______ _______ _____ _____    ______ ____
ROOT
ATOM      1  C   UNL     1      34.635  18.439  12.731  0.00  0.00    +0.247 C 
ATOM      2  O   UNL     1      35.697  18.916  12.330  0.00  0.00    -0.270 OA
ATOM      3  N   UNL     1      34.274  17.099  12.537  0.00  0.00    -0.297 N 
ATOM      4  C   UNL     1      33.040  16.472  13.001  0.00  0.00    +0.108 C 
ATOM      5  C   UNL     1      33.252  15.105  13.618  0.00  0.00    +0.026 C 
ATOM      6  C   UNL     1      34.066  14.165  12.712  0.00  0.00    -0.025 C 
ATOM      7  C   UNL     1      34.404  12.903  13.539  0.00  0.00    +0.017 C 
ATOM      8  C   UNL     1      35.165  11.830  12.773  0.00  0.00    +0.069 C 
ATOM      9  S   UNL     1      34.249  11.225  11.327  0.00  0.00    -0.161 S 
ATOM     10  C   UNL     1      33.874  12.807  10.526  0.00  0.00    +0.069 C 
ATOM     11  C   UNL     1      33.197  13.770  11.490  0.00  0.00    +0.017 C 
ATOM     12  C   UNL     1      35.367  14.914  12.308  0.00  0.00    +0.026 C 
ATOM     13  C   UNL     1      35.101  16.274  11.664  0.00  0.00    +0.108 C 
ENDROOT
BRANCH   1  17
ATOM     14  C   UNL     1      31.831  20.702  15.024  0.00  0.00    +0.037 A 
ATOM     15  C   UNL     1      31.772  20.748  13.631  0.00  0.00    +0.014 A 
ATOM     16  C   UNL     1      32.752  20.108  12.883  0.00  0.00    +0.014 A 
ATOM     17  C   UNL     1      33.731  19.326  13.510  0.00  0.00    +0.037 A 
ATOM     18  C   UNL     1      33.831  19.334  14.905  0.00  0.00    +0.014 A 
ATOM     19  C   UNL     1      32.886  20.034  15.661  0.00  0.00    +0.014 A 
BRANCH  14  21
ATOM     20  N   UNL     1      30.990  22.701  16.118  0.00  0.00    -0.325 N 
ATOM     21  C   UNL     1      30.790  21.375  15.834  0.00  0.00    +0.242 C 
ATOM     22  O   UNL     1      29.785  20.782  16.205  0.00  0.00    -0.270 OA
ATOM     23  H   UNL     1      30.221  23.167  16.591  0.00  0.00    +0.145 HD
ATOM     24  H   UNL     1      31.645  23.272  15.612  0.00  0.00    +0.145 HD
ENDBRANCH  14  21
ENDBRANCH   1  17
TORSDOF 2
ENDMDL
MODEL 8
REMARK VINA RESULT:      -5.6      7.218     10.035
REMARK  Name = ZINC000870248439
REMARK  2 active torsions:
REMARK  status: ('A' for Active; 'I' for Inactive)
REMARK    1  A    between atoms: C_2  and  C_4
REMARK    2  A    between atoms: C_7  and  C_8
REMARK                            x       y       z     vdW  Elec       q    Type
REMARK                         _______ _______ _______ _____ _____    ______ ____
ROOT
ATOM      1  C   UNL     1      36.468  18.998  17.094  0.00  0.00    +0.247 C 
ATOM      2  O   UNL     1      37.393  19.667  16.633  0.00  0.00    -0.270 OA
ATOM      3  N   UNL     1      36.665  17.899  17.940  0.00  0.00    -0.297 N 
ATOM      4  C   UNL     1      35.611  17.077  18.531  0.00  0.00    +0.108 C 
ATOM      5  C   UNL     1      35.843  16.758  19.994  0.00  0.00    +0.026 C 
ATOM      6  C   UNL     1      37.241  16.172  20.258  0.00  0.00    -0.025 C 
ATOM      7  C   UNL     1      37.432  16.106  21.791  0.00  0.00    +0.017 C 
ATOM      8  C   UNL     1      38.752  15.492  22.238  0.00  0.00    +0.069 C 
ATOM      9  S   UNL     1      38.958  13.785  21.653  0.00  0.00    -0.161 S 
ATOM     10  C   UNL     1      38.633  14.031  19.888  0.00  0.00    +0.069 C 
ATOM     11  C   UNL     1      37.307  14.742  19.662  0.00  0.00    +0.017 C 
ATOM     12  C   UNL     1      38.281  17.137  19.623  0.00  0.00    +0.026 C 
ATOM     13  C   UNL     1      38.022  17.407  18.141  0.00  0.00    +0.108 C 
ENDROOT
BRANCH   1  17
ATOM     14  C   UNL     1      32.623  20.466  15.956  0.00  0.00    +0.037 A 
ATOM     15  C   UNL     1      33.204  20.916  17.142  0.00  0.00    +0.014 A 
ATOM     16  C   UNL     1      34.399  20.355  17.575  0.00  0.00    +0.014 A 
ATOM     17  C   UNL     1      35.081  19.427  16.777  0.00  0.00    +0.037 A 
ATOM     18  C   UNL     1      34.468  18.928  15.623  0.00  0.00    +0.014 A 
ATOM     19  C   UNL     1      33.231  19.441  15.220  0.00  0.00    +0.014 A 
BRANCH  14  21
ATOM     20  N   UNL     1      30.979  22.253  16.043  0.00  0.00    -0.325 N 
ATOM     21  C   UNL     1      31.351  21.060  15.481  0.00  0.00    +0.242 C 
ATOM     22  O   UNL     1      30.682  20.523  14.608  0.00  0.00    -0.270 OA
ATOM     23  H   UNL     1      30.156  22.689  15.636  0.00  0.00    +0.145 HD
ATOM     24  H   UNL     1      31.622  22.841  16.545  0.00  0.00    +0.145 HD
ENDBRANCH  14  21
ENDBRANCH   1  17
TORSDOF 2
ENDMDL
MODEL 9
REMARK VINA RESULT:      -5.6      6.084      9.640
REMARK  Name = ZINC000870248439
REMARK  2 active torsions:
REMARK  status: ('A' for Active; 'I' for Inactive)
REMARK    1  A    between atoms: C_2  and  C_4
REMARK    2  A    between atoms: C_7  and  C_8
REMARK                            x       y       z     vdW  Elec       q    Type
REMARK                         _______ _______ _______ _____ _____    ______ ____
ROOT
ATOM      1  C   UNL     1      35.016  24.092  16.160  0.00  0.00    +0.247 C 
ATOM      2  O   UNL     1      35.417  24.771  15.215  0.00  0.00    -0.270 OA
ATOM      3  N   UNL     1      34.433  22.827  16.003  0.00  0.00    -0.297 N 
ATOM      4  C   UNL     1      33.952  21.968  17.082  0.00  0.00    +0.108 C 
ATOM      5  C   UNL     1      34.346  20.514  16.918  0.00  0.00    +0.026 C 
ATOM      6  C   UNL     1      33.977  19.953  15.534  0.00  0.00    -0.025 C 
ATOM      7  C   UNL     1      34.627  18.556  15.414  0.00  0.00    +0.017 C 
ATOM      8  C   UNL     1      34.315  17.823  14.116  0.00  0.00    +0.069 C 
ATOM      9  S   UNL     1      32.536  17.547  13.883  0.00  0.00    -0.161 S 
ATOM     10  C   UNL     1      31.936  19.239  14.127  0.00  0.00    +0.069 C 
ATOM     11  C   UNL     1      32.435  19.821  15.441  0.00  0.00    +0.017 C 
ATOM     12  C   UNL     1      34.564  20.919  14.466  0.00  0.00    +0.026 C 
ATOM     13  C   UNL     1      34.117  22.367  14.656  0.00  0.00    +0.108 C 
ENDROOT
BRANCH   1  17
ATOM     14  C   UNL     1      35.521  25.308  20.223  0.00  0.00    +0.037 A 
ATOM     15  C   UNL     1      34.333  25.616  19.558  0.00  0.00    +0.014 A 
ATOM     16  C   UNL     1      34.211  25.326  18.205  0.00  0.00    +0.014 A 
ATOM     17  C   UNL     1      35.221  24.627  17.532  0.00  0.00    +0.037 A 
ATOM     18  C   UNL     1      36.436  24.378  18.178  0.00  0.00    +0.014 A 
ATOM     19  C   UNL     1      36.589  24.731  19.522  0.00  0.00    +0.014 A 
BRANCH  14  21
ATOM     20  N   UNL     1      35.711  26.930  22.020  0.00  0.00    -0.325 N 
ATOM     21  C   UNL     1      35.663  25.608  21.666  0.00  0.00    +0.242 C 
ATOM     22  O   UNL     1      35.704  24.715  22.504  0.00  0.00    -0.270 OA
ATOM     23  H   UNL     1      35.712  27.115  23.020  0.00  0.00    +0.145 HD
ATOM     24  H   UNL     1      35.410  27.669  21.407  0.00  0.00    +0.145 HD
ENDBRANCH  14  21
ENDBRANCH   1  17
TORSDOF 2
ENDMDL
