MODEL 1
REMARK VINA RESULT:      -6.8      0.000      0.000
REMARK  Name = ZINC001228612316
REMARK  5 active torsions:
REMARK  status: ('A' for Active; 'I' for Inactive)
REMARK    1  A    between atoms: C_2  and  C_4
REMARK    2  A    between atoms: C_8  and  O_9
REMARK    3  A    between atoms: O_9  and  C_10
REMARK    4  A    between atoms: C_10  and  C_11
REMARK    5  A    between atoms: C_10  and  C_17
REMARK                            x       y       z     vdW  Elec       q    Type
REMARK                         _______ _______ _______ _____ _____    ______ ____
ROOT
ATOM      1  C   UNL     1      26.460  21.698  17.119  0.00  0.00    +0.040 A 
ATOM      2  C   UNL     1      26.194  20.332  16.977  0.00  0.00    +0.013 A 
ATOM      3  C   UNL     1      27.227  19.447  16.664  0.00  0.00    +0.004 A 
ATOM      4  C   UNL     1      28.531  19.920  16.491  0.00  0.00    +0.046 A 
ATOM      5  C   UNL     1      28.807  21.280  16.626  0.00  0.00    +0.122 A 
ATOM      6  C   UNL     1      27.769  22.166  16.943  0.00  0.00    +0.058 A 
ENDROOT
BRANCH   1   8
ATOM      7  N   UNL     1      25.471  23.387  18.581  0.00  0.00    -0.325 N 
ATOM      8  C   UNL     1      25.329  22.598  17.471  0.00  0.00    +0.242 C 
ATOM      9  O   UNL     1      24.321  22.667  16.779  0.00  0.00    -0.270 OA
ATOM     10  H   UNL     1      24.737  24.065  18.741  0.00  0.00    +0.145 HD
ATOM     11  H   UNL     1      26.359  23.539  19.034  0.00  0.00    +0.145 HD
ENDBRANCH   1   8
BRANCH   5  12
ATOM     12  O   UNL     1      30.023  21.871  16.411  0.00  0.00    -0.484 OA
BRANCH  12  13
ATOM     13  C   UNL     1      30.079  23.297  16.238  0.00  0.00    +0.208 C 
BRANCH  13  14
ATOM     14  C   UNL     1      31.013  23.983  17.215  0.00  0.00    +0.011 A 
ATOM     15  C   UNL     1      32.163  24.674  16.823  0.00  0.00    +0.010 A 
ATOM     16  C   UNL     1      32.919  25.352  17.776  0.00  0.00    +0.020 A 
ATOM     17  C   UNL     1      32.498  25.321  19.096  0.00  0.00    +0.111 A 
ATOM     18  N   UNL     1      31.402  24.659  19.517  0.00  0.00    -0.263 NA
ATOM     19  C   UNL     1      30.687  24.012  18.572  0.00  0.00    +0.118 A 
ENDBRANCH  13  14
BRANCH  13  20
ATOM     20  C   UNL     1      30.581  23.614  14.833  0.00  0.00    +0.034 C 
ATOM     21  C   UNL     1      29.867  24.632  13.975  0.00  0.00    +0.008 C 
ATOM     22  C   UNL     1      29.855  23.181  13.578  0.00  0.00    +0.008 C 
ENDBRANCH  13  20
ENDBRANCH  12  13
ENDBRANCH   5  12
TORSDOF 5
ENDMDL
MODEL 2
REMARK VINA RESULT:      -6.7      3.169      6.650
REMARK  Name = ZINC001228612316
REMARK  5 active torsions:
REMARK  status: ('A' for Active; 'I' for Inactive)
REMARK    1  A    between atoms: C_2  and  C_4
REMARK    2  A    between atoms: C_8  and  O_9
REMARK    3  A    between atoms: O_9  and  C_10
REMARK    4  A    between atoms: C_10  and  C_11
REMARK    5  A    between atoms: C_10  and  C_17
REMARK                            x       y       z     vdW  Elec       q    Type
REMARK                         _______ _______ _______ _____ _____    ______ ____
ROOT
ATOM      1  C   UNL     1      31.615  24.118  11.689  0.00  0.00    +0.040 A 
ATOM      2  C   UNL     1      30.777  25.236  11.625  0.00  0.00    +0.013 A 
ATOM      3  C   UNL     1      29.737  25.384  12.544  0.00  0.00    +0.004 A 
ATOM      4  C   UNL     1      29.529  24.419  13.532  0.00  0.00    +0.046 A 
ATOM      5  C   UNL     1      30.356  23.297  13.604  0.00  0.00    +0.122 A 
ATOM      6  C   UNL     1      31.400  23.153  12.681  0.00  0.00    +0.058 A 
ENDROOT
BRANCH   1   8
ATOM      7  N   UNL     1      33.164  25.174  10.122  0.00  0.00    -0.325 N 
ATOM      8  C   UNL     1      32.720  24.014  10.697  0.00  0.00    +0.242 C 
ATOM      9  O   UNL     1      33.245  22.941  10.427  0.00  0.00    -0.270 OA
ATOM     10  H   UNL     1      33.983  25.094   9.533  0.00  0.00    +0.145 HD
ATOM     11  H   UNL     1      32.933  26.087  10.484  0.00  0.00    +0.145 HD
ENDBRANCH   1   8
BRANCH   5  12
ATOM     12  O   UNL     1      30.209  22.253  14.475  0.00  0.00    -0.484 OA
BRANCH  12  13
ATOM     13  C   UNL     1      29.982  22.537  15.865  0.00  0.00    +0.208 C 
BRANCH  13  14
ATOM     14  C   UNL     1      28.580  22.189  16.328  0.00  0.00    +0.011 A 
ATOM     15  C   UNL     1      27.948  20.981  16.020  0.00  0.00    +0.010 A 
ATOM     16  C   UNL     1      26.694  20.703  16.558  0.00  0.00    +0.020 A 
ATOM     17  C   UNL     1      26.110  21.642  17.392  0.00  0.00    +0.111 A 
ATOM     18  N   UNL     1      26.682  22.823  17.706  0.00  0.00    -0.263 NA
ATOM     19  C   UNL     1      27.898  23.066  17.172  0.00  0.00    +0.118 A 
ENDBRANCH  13  14
BRANCH  13  20
ATOM     20  C   UNL     1      30.954  21.722  16.712  0.00  0.00    +0.034 C 
ATOM     21  C   UNL     1      31.454  22.256  18.033  0.00  0.00    +0.008 C 
ATOM     22  C   UNL     1      32.411  22.091  16.884  0.00  0.00    +0.008 C 
ENDBRANCH  13  20
ENDBRANCH  12  13
ENDBRANCH   5  12
TORSDOF 5
ENDMDL
MODEL 3
REMARK VINA RESULT:      -6.6      2.387      3.826
REMARK  Name = ZINC001228612316
REMARK  5 active torsions:
REMARK  status: ('A' for Active; 'I' for Inactive)
REMARK    1  A    between atoms: C_2  and  C_4
REMARK    2  A    between atoms: C_8  and  O_9
REMARK    3  A    between atoms: O_9  and  C_10
REMARK    4  A    between atoms: C_10  and  C_11
REMARK    5  A    between atoms: C_10  and  C_17
REMARK                            x       y       z     vdW  Elec       q    Type
REMARK                         _______ _______ _______ _____ _____    ______ ____
ROOT
ATOM      1  C   UNL     1      26.602  22.206  17.341  0.00  0.00    +0.040 A 
ATOM      2  C   UNL     1      26.447  20.858  16.999  0.00  0.00    +0.013 A 
ATOM      3  C   UNL     1      27.433  20.207  16.258  0.00  0.00    +0.004 A 
ATOM      4  C   UNL     1      28.580  20.895  15.853  0.00  0.00    +0.046 A 
ATOM      5  C   UNL     1      28.744  22.240  16.184  0.00  0.00    +0.122 A 
ATOM      6  C   UNL     1      27.753  22.891  16.931  0.00  0.00    +0.058 A 
ENDROOT
BRANCH   1   8
ATOM      7  N   UNL     1      25.915  23.769  19.088  0.00  0.00    -0.325 N 
ATOM      8  C   UNL     1      25.532  22.850  18.148  0.00  0.00    +0.242 C 
ATOM      9  O   UNL     1      24.346  22.604  17.961  0.00  0.00    -0.270 OA
ATOM     10  H   UNL     1      25.167  24.272  19.549  0.00  0.00    +0.145 HD
ATOM     11  H   UNL     1      26.838  24.175  19.111  0.00  0.00    +0.145 HD
ENDBRANCH   1   8
BRANCH   5  12
ATOM     12  O   UNL     1      29.782  23.038  15.786  0.00  0.00    -0.484 OA
BRANCH  12  13
ATOM     13  C   UNL     1      30.777  22.492  14.905  0.00  0.00    +0.208 C 
BRANCH  13  14
ATOM     14  C   UNL     1      30.908  23.257  13.602  0.00  0.00    +0.011 A 
ATOM     15  C   UNL     1      29.889  24.054  13.074  0.00  0.00    +0.010 A 
ATOM     16  C   UNL     1      30.122  24.795  11.917  0.00  0.00    +0.020 A 
ATOM     17  C   UNL     1      31.372  24.716  11.324  0.00  0.00    +0.111 A 
ATOM     18  N   UNL     1      32.378  23.952  11.796  0.00  0.00    -0.263 NA
ATOM     19  C   UNL     1      32.125  23.247  12.919  0.00  0.00    +0.118 A 
ENDBRANCH  13  14
BRANCH  13  20
ATOM     20  C   UNL     1      32.137  22.533  15.593  0.00  0.00    +0.034 C 
ATOM     21  C   UNL     1      32.927  21.264  15.806  0.00  0.00    +0.008 C 
ATOM     22  C   UNL     1      32.372  22.005  16.991  0.00  0.00    +0.008 C 
ENDBRANCH  13  20
ENDBRANCH  12  13
ENDBRANCH   5  12
TORSDOF 5
ENDMDL
MODEL 4
REMARK VINA RESULT:      -6.5      2.997      5.782
REMARK  Name = ZINC001228612316
REMARK  5 active torsions:
REMARK  status: ('A' for Active; 'I' for Inactive)
REMARK    1  A    between atoms: C_2  and  C_4
REMARK    2  A    between atoms: C_8  and  O_9
REMARK    3  A    between atoms: O_9  and  C_10
REMARK    4  A    between atoms: C_10  and  C_11
REMARK    5  A    between atoms: C_10  and  C_17
REMARK                            x       y       z     vdW  Elec       q    Type
REMARK                         _______ _______ _______ _____ _____    ______ ____
ROOT
ATOM      1  C   UNL     1      31.750  23.559  12.258  0.00  0.00    +0.040 A 
ATOM      2  C   UNL     1      31.149  24.443  11.356  0.00  0.00    +0.013 A 
ATOM      3  C   UNL     1      30.067  25.226  11.759  0.00  0.00    +0.004 A 
ATOM      4  C   UNL     1      29.579  25.133  13.065  0.00  0.00    +0.046 A 
ATOM      5  C   UNL     1      30.167  24.252  13.973  0.00  0.00    +0.122 A 
ATOM      6  C   UNL     1      31.255  23.469  13.565  0.00  0.00    +0.058 A 
ENDROOT
BRANCH   1   8
ATOM      7  N   UNL     1      32.754  21.401  11.706  0.00  0.00    -0.325 N 
ATOM      8  C   UNL     1      32.912  22.759  11.785  0.00  0.00    +0.242 C 
ATOM      9  O   UNL     1      33.961  23.288  11.441  0.00  0.00    -0.270 OA
ATOM     10  H   UNL     1      33.517  20.889  11.283  0.00  0.00    +0.145 HD
ATOM     11  H   UNL     1      31.852  20.953  11.746  0.00  0.00    +0.145 HD
ENDBRANCH   1   8
BRANCH   5  12
ATOM     12  O   UNL     1      29.736  24.019  15.250  0.00  0.00    -0.484 OA
BRANCH  12  13
ATOM     13  C   UNL     1      29.975  22.730  15.838  0.00  0.00    +0.208 C 
BRANCH  13  14
ATOM     14  C   UNL     1      30.826  22.791  17.092  0.00  0.00    +0.011 A 
ATOM     15  C   UNL     1      32.001  22.053  17.259  0.00  0.00    +0.010 A 
ATOM     16  C   UNL     1      32.772  22.234  18.405  0.00  0.00    +0.020 A 
ATOM     17  C   UNL     1      32.343  23.152  19.351  0.00  0.00    +0.111 A 
ATOM     18  N   UNL     1      31.212  23.875  19.232  0.00  0.00    -0.263 NA
ATOM     19  C   UNL     1      30.485  23.681  18.110  0.00  0.00    +0.118 A 
ENDBRANCH  13  14
BRANCH  13  20
ATOM     20  C   UNL     1      28.643  22.096  16.225  0.00  0.00    +0.034 C 
ATOM     21  C   UNL     1      28.599  20.716  16.836  0.00  0.00    +0.008 C 
ATOM     22  C   UNL     1      28.023  20.945  15.465  0.00  0.00    +0.008 C 
ENDBRANCH  13  20
ENDBRANCH  12  13
ENDBRANCH   5  12
TORSDOF 5
ENDMDL
MODEL 5
REMARK VINA RESULT:      -6.3      3.659      6.068
REMARK  Name = ZINC001228612316
REMARK  5 active torsions:
REMARK  status: ('A' for Active; 'I' for Inactive)
REMARK    1  A    between atoms: C_2  and  C_4
REMARK    2  A    between atoms: C_8  and  O_9
REMARK    3  A    between atoms: O_9  and  C_10
REMARK    4  A    between atoms: C_10  and  C_11
REMARK    5  A    between atoms: C_10  and  C_17
REMARK                            x       y       z     vdW  Elec       q    Type
REMARK                         _______ _______ _______ _____ _____    ______ ____
ROOT
ATOM      1  C   UNL     1      31.601  24.640  11.693  0.00  0.00    +0.040 A 
ATOM      2  C   UNL     1      30.444  25.425  11.756  0.00  0.00    +0.013 A 
ATOM      3  C   UNL     1      29.553  25.272  12.818  0.00  0.00    +0.004 A 
ATOM      4  C   UNL     1      29.810  24.336  13.824  0.00  0.00    +0.046 A 
ATOM      5  C   UNL     1      30.958  23.546  13.770  0.00  0.00    +0.122 A 
ATOM      6  C   UNL     1      31.853  23.703  12.703  0.00  0.00    +0.058 A 
ENDROOT
BRANCH   1   8
ATOM      7  N   UNL     1      32.526  23.919   9.550  0.00  0.00    -0.325 N 
ATOM      8  C   UNL     1      32.530  24.854  10.550  0.00  0.00    +0.242 C 
ATOM      9  O   UNL     1      33.247  25.844  10.478  0.00  0.00    -0.270 OA
ATOM     10  H   UNL     1      33.085  24.137   8.735  0.00  0.00    +0.145 HD
ATOM     11  H   UNL     1      31.797  23.229   9.449  0.00  0.00    +0.145 HD
ENDBRANCH   1   8
BRANCH   5  12
ATOM     12  O   UNL     1      31.282  22.550  14.651  0.00  0.00    -0.484 OA
BRANCH  12  13
ATOM     13  C   UNL     1      32.366  22.764  15.569  0.00  0.00    +0.208 C 
BRANCH  13  14
ATOM     14  C   UNL     1      31.967  23.566  16.793  0.00  0.00    +0.011 A 
ATOM     15  C   UNL     1      32.525  24.806  17.113  0.00  0.00    +0.010 A 
ATOM     16  C   UNL     1      32.038  25.520  18.207  0.00  0.00    +0.020 A 
ATOM     17  C   UNL     1      31.005  24.969  18.947  0.00  0.00    +0.111 A 
ATOM     18  N   UNL     1      30.446  23.772  18.677  0.00  0.00    -0.263 NA
ATOM     19  C   UNL     1      30.936  23.103  17.611  0.00  0.00    +0.118 A 
ENDBRANCH  13  14
BRANCH  13  20
ATOM     20  C   UNL     1      32.884  21.416  16.061  0.00  0.00    +0.034 C 
ATOM     21  C   UNL     1      34.134  21.335  16.903  0.00  0.00    +0.008 C 
ATOM     22  C   UNL     1      34.132  20.760  15.513  0.00  0.00    +0.008 C 
ENDBRANCH  13  20
ENDBRANCH  12  13
ENDBRANCH   5  12
TORSDOF 5
ENDMDL
MODEL 6
REMARK VINA RESULT:      -6.2      3.407      4.805
REMARK  Name = ZINC001228612316
REMARK  5 active torsions:
REMARK  status: ('A' for Active; 'I' for Inactive)
REMARK    1  A    between atoms: C_2  and  C_4
REMARK    2  A    between atoms: C_8  and  O_9
REMARK    3  A    between atoms: O_9  and  C_10
REMARK    4  A    between atoms: C_10  and  C_11
REMARK    5  A    between atoms: C_10  and  C_17
REMARK                            x       y       z     vdW  Elec       q    Type
REMARK                         _______ _______ _______ _____ _____    ______ ____
ROOT
ATOM      1  C   UNL     1      29.629  22.784  17.040  0.00  0.00    +0.040 A 
ATOM      2  C   UNL     1      28.390  22.137  16.980  0.00  0.00    +0.013 A 
ATOM      3  C   UNL     1      28.009  21.462  15.819  0.00  0.00    +0.004 A 
ATOM      4  C   UNL     1      28.862  21.429  14.712  0.00  0.00    +0.046 A 
ATOM      5  C   UNL     1      30.098  22.074  14.759  0.00  0.00    +0.122 A 
ATOM      6  C   UNL     1      30.479  22.748  15.927  0.00  0.00    +0.058 A 
ENDROOT
BRANCH   1   8
ATOM      7  N   UNL     1      29.094  24.361  18.827  0.00  0.00    -0.325 N 
ATOM      8  C   UNL     1      29.997  23.474  18.306  0.00  0.00    +0.242 C 
ATOM      9  O   UNL     1      31.049  23.237  18.887  0.00  0.00    -0.270 OA
ATOM     10  H   UNL     1      29.317  24.737  19.740  0.00  0.00    +0.145 HD
ATOM     11  H   UNL     1      28.134  24.407  18.522  0.00  0.00    +0.145 HD
ENDBRANCH   1   8
BRANCH   5  12
ATOM     12  O   UNL     1      30.985  22.173  13.722  0.00  0.00    -0.484 OA
BRANCH  12  13
ATOM     13  C   UNL     1      31.421  23.478  13.306  0.00  0.00    +0.208 C 
BRANCH  13  14
ATOM     14  C   UNL     1      32.764  23.464  12.602  0.00  0.00    +0.011 A 
ATOM     15  C   UNL     1      33.846  24.254  12.998  0.00  0.00    +0.010 A 
ATOM     16  C   UNL     1      35.073  24.117  12.352  0.00  0.00    +0.020 A 
ATOM     17  C   UNL     1      35.180  23.190  11.328  0.00  0.00    +0.111 A 
ATOM     18  N   UNL     1      34.158  22.417  10.909  0.00  0.00    -0.263 NA
ATOM     19  C   UNL     1      32.981  22.569  11.554  0.00  0.00    +0.118 A 
ENDBRANCH  13  14
BRANCH  13  20
ATOM     20  C   UNL     1      30.404  24.063  12.332  0.00  0.00    +0.034 C 
ATOM     21  C   UNL     1      30.604  25.442  11.751  0.00  0.00    +0.008 C 
ATOM     22  C   UNL     1      29.463  25.189  12.697  0.00  0.00    +0.008 C 
ENDBRANCH  13  20
ENDBRANCH  12  13
ENDBRANCH   5  12
TORSDOF 5
ENDMDL
MODEL 7
REMARK VINA RESULT:      -6.1      3.511      6.124
REMARK  Name = ZINC001228612316
REMARK  5 active torsions:
REMARK  status: ('A' for Active; 'I' for Inactive)
REMARK    1  A    between atoms: C_2  and  C_4
REMARK    2  A    between atoms: C_8  and  O_9
REMARK    3  A    between atoms: O_9  and  C_10
REMARK    4  A    between atoms: C_10  and  C_11
REMARK    5  A    between atoms: C_10  and  C_17
REMARK                            x       y       z     vdW  Elec       q    Type
REMARK                         _______ _______ _______ _____ _____    ______ ____
ROOT
ATOM      1  C   UNL     1      31.756  24.842  11.619  0.00  0.00    +0.040 A 
ATOM      2  C   UNL     1      30.553  25.554  11.662  0.00  0.00    +0.013 A 
ATOM      3  C   UNL     1      29.498  25.099  12.455  0.00  0.00    +0.004 A 
ATOM      4  C   UNL     1      29.638  23.931  13.209  0.00  0.00    +0.046 A 
ATOM      5  C   UNL     1      30.832  23.210  13.171  0.00  0.00    +0.122 A 
ATOM      6  C   UNL     1      31.889  23.671  12.376  0.00  0.00    +0.058 A 
ENDROOT
BRANCH   1   8
ATOM      7  N   UNL     1      33.374  24.552   9.812  0.00  0.00    -0.325 N 
ATOM      8  C   UNL     1      32.856  25.378  10.773  0.00  0.00    +0.242 C 
ATOM      9  O   UNL     1      33.265  26.526  10.898  0.00  0.00    -0.270 OA
ATOM     10  H   UNL     1      34.045  24.970   9.181  0.00  0.00    +0.145 HD
ATOM     11  H   UNL     1      32.917  23.703   9.517  0.00  0.00    +0.145 HD
ENDBRANCH   1   8
BRANCH   5  12
ATOM     12  O   UNL     1      31.064  22.020  13.805  0.00  0.00    -0.484 OA
BRANCH  12  13
ATOM     13  C   UNL     1      31.005  21.976  15.240  0.00  0.00    +0.208 C 
BRANCH  13  14
ATOM     14  C   UNL     1      31.806  23.077  15.908  0.00  0.00    +0.011 A 
ATOM     15  C   UNL     1      31.220  24.156  16.575  0.00  0.00    +0.010 A 
ATOM     16  C   UNL     1      32.028  25.077  17.238  0.00  0.00    +0.020 A 
ATOM     17  C   UNL     1      33.400  24.889  17.215  0.00  0.00    +0.111 A 
ATOM     18  N   UNL     1      34.005  23.867  16.575  0.00  0.00    -0.263 NA
ATOM     19  C   UNL     1      33.198  22.988  15.943  0.00  0.00    +0.118 A 
ENDBRANCH  13  14
BRANCH  13  20
ATOM     20  C   UNL     1      29.556  22.134  15.690  0.00  0.00    +0.034 C 
ATOM     21  C   UNL     1      28.987  21.244  16.769  0.00  0.00    +0.008 C 
ATOM     22  C   UNL     1      28.474  21.129  15.360  0.00  0.00    +0.008 C 
ENDBRANCH  13  20
ENDBRANCH  12  13
ENDBRANCH   5  12
TORSDOF 5
ENDMDL
MODEL 8
REMARK VINA RESULT:      -6.0      2.264      6.304
REMARK  Name = ZINC001228612316
REMARK  5 active torsions:
REMARK  status: ('A' for Active; 'I' for Inactive)
REMARK    1  A    between atoms: C_2  and  C_4
REMARK    2  A    between atoms: C_8  and  O_9
REMARK    3  A    between atoms: O_9  and  C_10
REMARK    4  A    between atoms: C_10  and  C_11
REMARK    5  A    between atoms: C_10  and  C_17
REMARK                            x       y       z     vdW  Elec       q    Type
REMARK                         _______ _______ _______ _____ _____    ______ ____
ROOT
ATOM      1  C   UNL     1      33.047  24.901  19.713  0.00  0.00    +0.040 A 
ATOM      2  C   UNL     1      33.886  23.781  19.729  0.00  0.00    +0.013 A 
ATOM      3  C   UNL     1      33.431  22.560  19.230  0.00  0.00    +0.004 A 
ATOM      4  C   UNL     1      32.138  22.448  18.712  0.00  0.00    +0.046 A 
ATOM      5  C   UNL     1      31.291  23.557  18.695  0.00  0.00    +0.122 A 
ATOM      6  C   UNL     1      31.751  24.782  19.195  0.00  0.00    +0.058 A 
ENDROOT
BRANCH   1   8
ATOM      7  N   UNL     1      33.949  26.223  21.559  0.00  0.00    -0.325 N 
ATOM      8  C   UNL     1      33.584  26.184  20.240  0.00  0.00    +0.242 C 
ATOM      9  O   UNL     1      33.733  27.164  19.521  0.00  0.00    -0.270 OA
ATOM     10  H   UNL     1      34.409  27.069  21.869  0.00  0.00    +0.145 HD
ATOM     11  H   UNL     1      34.069  25.392  22.118  0.00  0.00    +0.145 HD
ENDBRANCH   1   8
BRANCH   5  12
ATOM     12  O   UNL     1      29.986  23.556  18.284  0.00  0.00    -0.484 OA
BRANCH  12  13
ATOM     13  C   UNL     1      29.623  22.779  17.131  0.00  0.00    +0.208 C 
BRANCH  13  14
ATOM     14  C   UNL     1      28.184  22.301  17.158  0.00  0.00    +0.011 A 
ATOM     15  C   UNL     1      27.769  21.084  16.611  0.00  0.00    +0.010 A 
ATOM     16  C   UNL     1      26.444  20.680  16.756  0.00  0.00    +0.020 A 
ATOM     17  C   UNL     1      25.573  21.506  17.448  0.00  0.00    +0.111 A 
ATOM     18  N   UNL     1      25.931  22.691  17.982  0.00  0.00    -0.263 NA
ATOM     19  C   UNL     1      27.222  23.058  17.827  0.00  0.00    +0.118 A 
ENDBRANCH  13  14
BRANCH  13  20
ATOM     20  C   UNL     1      29.796  23.628  15.876  0.00  0.00    +0.034 C 
ATOM     21  C   UNL     1      29.980  22.974  14.527  0.00  0.00    +0.008 C 
ATOM     22  C   UNL     1      31.110  23.755  15.139  0.00  0.00    +0.008 C 
ENDBRANCH  13  20
ENDBRANCH  12  13
ENDBRANCH   5  12
TORSDOF 5
ENDMDL
MODEL 9
REMARK VINA RESULT:      -6.0      2.627      3.867
REMARK  Name = ZINC001228612316
REMARK  5 active torsions:
REMARK  status: ('A' for Active; 'I' for Inactive)
REMARK    1  A    between atoms: C_2  and  C_4
REMARK    2  A    between atoms: C_8  and  O_9
REMARK    3  A    between atoms: O_9  and  C_10
REMARK    4  A    between atoms: C_10  and  C_11
REMARK    5  A    between atoms: C_10  and  C_17
REMARK                            x       y       z     vdW  Elec       q    Type
REMARK                         _______ _______ _______ _____ _____    ______ ____
ROOT
ATOM      1  C   UNL     1      28.230  21.249  16.240  0.00  0.00    +0.040 A 
ATOM      2  C   UNL     1      28.275  20.770  14.926  0.00  0.00    +0.013 A 
ATOM      3  C   UNL     1      29.116  21.372  13.990  0.00  0.00    +0.004 A 
ATOM      4  C   UNL     1      29.919  22.455  14.359  0.00  0.00    +0.046 A 
ATOM      5  C   UNL     1      29.880  22.944  15.665  0.00  0.00    +0.122 A 
ATOM      6  C   UNL     1      29.036  22.335  16.603  0.00  0.00    +0.058 A 
ENDROOT
BRANCH   1   8
ATOM      7  N   UNL     1      27.551  19.231  17.438  0.00  0.00    -0.325 N 
ATOM      8  C   UNL     1      27.330  20.562  17.204  0.00  0.00    +0.242 C 
ATOM      9  O   UNL     1      26.446  21.164  17.802  0.00  0.00    -0.270 OA
ATOM     10  H   UNL     1      26.998  18.811  18.174  0.00  0.00    +0.145 HD
ATOM     11  H   UNL     1      28.399  18.761  17.160  0.00  0.00    +0.145 HD
ENDBRANCH   1   8
BRANCH   5  12
ATOM     12  O   UNL     1      30.561  24.038  16.126  0.00  0.00    -0.484 OA
BRANCH  12  13
ATOM     13  C   UNL     1      31.617  23.844  17.082  0.00  0.00    +0.208 C 
BRANCH  13  14
ATOM     14  C   UNL     1      32.779  23.037  16.536  0.00  0.00    +0.011 A 
ATOM     15  C   UNL     1      33.093  21.749  16.977  0.00  0.00    +0.010 A 
ATOM     16  C   UNL     1      34.123  21.041  16.362  0.00  0.00    +0.020 A 
ATOM     17  C   UNL     1      34.807  21.645  15.319  0.00  0.00    +0.111 A 
ATOM     18  N   UNL     1      34.542  22.888  14.870  0.00  0.00    -0.263 NA
ATOM     19  C   UNL     1      33.538  23.551  15.484  0.00  0.00    +0.118 A 
ENDBRANCH  13  14
BRANCH  13  20
ATOM     20  C   UNL     1      32.167  25.202  17.506  0.00  0.00    +0.034 C 
ATOM     21  C   UNL     1      33.138  25.310  18.657  0.00  0.00    +0.008 C 
ATOM     22  C   UNL     1      31.759  25.896  18.786  0.00  0.00    +0.008 C 
ENDBRANCH  13  20
ENDBRANCH  12  13
ENDBRANCH   5  12
TORSDOF 5
ENDMDL
