MODEL 1
REMARK VINA RESULT:      -8.1      0.000      0.000
REMARK  Name = ZINC000583127796
REMARK  2 active torsions:
REMARK  status: ('A' for Active; 'I' for Inactive)
REMARK    1  A    between atoms: C_2  and  C_4
REMARK    2  A    between atoms: C_7  and  C_8
REMARK                            x       y       z     vdW  Elec       q    Type
REMARK                         _______ _______ _______ _____ _____    ______ ____
ROOT
ATOM      1  C   UNL     1      29.816  17.897  16.563  0.00  0.00    +0.247 C 
ATOM      2  O   UNL     1      30.456  17.334  17.454  0.00  0.00    -0.270 OA
ATOM      3  N   UNL     1      29.327  19.206  16.687  0.00  0.00    -0.297 N 
ATOM      4  C   UNL     1      28.558  19.951  15.689  0.00  0.00    +0.108 C 
ATOM      5  C   UNL     1      29.181  21.293  15.353  0.00  0.00    +0.020 C 
ATOM      6  C   UNL     1      29.505  22.090  16.603  0.00  0.00    +0.011 C 
ATOM      7  C   UNL     1      30.333  21.289  17.637  0.00  0.00    -0.004 C 
ATOM      8  C   UNL     1      30.457  22.177  18.894  0.00  0.00    +0.020 C 
ATOM      9  C   UNL     1      31.684  21.783  19.686  0.00  0.00    +0.070 C 
ATOM     10  S   UNL     1      32.934  21.464  18.432  0.00  0.00    -0.160 S 
ATOM     11  C   UNL     1      31.762  21.009  17.122  0.00  0.00    +0.077 C 
ATOM     12  C   UNL     1      29.604  19.951  17.931  0.00  0.00    +0.115 C 
ENDROOT
BRANCH   1  16
ATOM     13  C   UNL     1      29.272  15.467  13.081  0.00  0.00    +0.037 A 
ATOM     14  C   UNL     1      30.543  15.969  13.371  0.00  0.00    +0.014 A 
ATOM     15  C   UNL     1      30.713  16.859  14.433  0.00  0.00    +0.014 A 
ATOM     16  C   UNL     1      29.640  17.158  15.275  0.00  0.00    +0.037 A 
ATOM     17  C   UNL     1      28.351  16.732  14.926  0.00  0.00    +0.014 A 
ATOM     18  C   UNL     1      28.167  15.896  13.821  0.00  0.00    +0.014 A 
BRANCH  13  20
ATOM     19  N   UNL     1      29.065  13.155  12.354  0.00  0.00    -0.325 N 
ATOM     20  C   UNL     1      29.068  14.474  11.991  0.00  0.00    +0.242 C 
ATOM     21  O   UNL     1      28.860  14.819  10.840  0.00  0.00    -0.270 OA
ATOM     22  H   UNL     1      28.804  12.497  11.630  0.00  0.00    +0.145 HD
ATOM     23  H   UNL     1      28.948  12.858  13.313  0.00  0.00    +0.145 HD
ENDBRANCH  13  20
ENDBRANCH   1  16
TORSDOF 2
ENDMDL
MODEL 2
REMARK VINA RESULT:      -7.8      1.282      1.841
REMARK  Name = ZINC000583127796
REMARK  2 active torsions:
REMARK  status: ('A' for Active; 'I' for Inactive)
REMARK    1  A    between atoms: C_2  and  C_4
REMARK    2  A    between atoms: C_7  and  C_8
REMARK                            x       y       z     vdW  Elec       q    Type
REMARK                         _______ _______ _______ _____ _____    ______ ____
ROOT
ATOM      1  C   UNL     1      30.340  18.078  16.189  0.00  0.00    +0.247 C 
ATOM      2  O   UNL     1      31.540  18.318  16.336  0.00  0.00    -0.270 OA
ATOM      3  N   UNL     1      29.334  18.768  16.883  0.00  0.00    -0.297 N 
ATOM      4  C   UNL     1      27.891  18.550  16.776  0.00  0.00    +0.108 C 
ATOM      5  C   UNL     1      27.131  19.821  16.443  0.00  0.00    +0.020 C 
ATOM      6  C   UNL     1      27.516  20.963  17.365  0.00  0.00    +0.011 C 
ATOM      7  C   UNL     1      29.045  21.186  17.450  0.00  0.00    -0.004 C 
ATOM      8  C   UNL     1      29.279  22.273  18.521  0.00  0.00    +0.020 C 
ATOM      9  C   UNL     1      30.597  22.972  18.270  0.00  0.00    +0.070 C 
ATOM     10  S   UNL     1      30.665  23.152  16.481  0.00  0.00    -0.160 S 
ATOM     11  C   UNL     1      29.613  21.719  16.116  0.00  0.00    +0.077 C 
ATOM     12  C   UNL     1      29.727  19.841  17.817  0.00  0.00    +0.115 C 
ENDROOT
BRANCH   1  16
ATOM     13  C   UNL     1      29.358  15.420  12.980  0.00  0.00    +0.037 A 
ATOM     14  C   UNL     1      28.329  15.968  13.751  0.00  0.00    +0.014 A 
ATOM     15  C   UNL     1      28.639  16.739  14.873  0.00  0.00    +0.014 A 
ATOM     16  C   UNL     1      29.967  17.059  15.160  0.00  0.00    +0.037 A 
ATOM     17  C   UNL     1      30.997  16.431  14.446  0.00  0.00    +0.014 A 
ATOM     18  C   UNL     1      30.690  15.601  13.363  0.00  0.00    +0.014 A 
BRANCH  13  20
ATOM     19  N   UNL     1      28.731  13.325  11.917  0.00  0.00    -0.325 N 
ATOM     20  C   UNL     1      29.062  14.641  11.747  0.00  0.00    +0.242 C 
ATOM     21  O   UNL     1      29.063  15.161  10.645  0.00  0.00    -0.270 OA
ATOM     22  H   UNL     1      28.414  12.838  11.088  0.00  0.00    +0.145 HD
ATOM     23  H   UNL     1      28.448  12.949  12.812  0.00  0.00    +0.145 HD
ENDBRANCH  13  20
ENDBRANCH   1  16
TORSDOF 2
ENDMDL
MODEL 3
REMARK VINA RESULT:      -6.8      1.982      2.741
REMARK  Name = ZINC000583127796
REMARK  2 active torsions:
REMARK  status: ('A' for Active; 'I' for Inactive)
REMARK    1  A    between atoms: C_2  and  C_4
REMARK    2  A    between atoms: C_7  and  C_8
REMARK                            x       y       z     vdW  Elec       q    Type
REMARK                         _______ _______ _______ _____ _____    ______ ____
ROOT
ATOM      1  C   UNL     1      30.043  19.990  17.323  0.00  0.00    +0.247 C 
ATOM      2  O   UNL     1      30.251  19.844  18.529  0.00  0.00    -0.270 OA
ATOM      3  N   UNL     1      30.385  21.159  16.626  0.00  0.00    -0.297 N 
ATOM      4  C   UNL     1      30.175  21.422  15.201  0.00  0.00    +0.108 C 
ATOM      5  C   UNL     1      31.450  21.830  14.488  0.00  0.00    +0.020 C 
ATOM      6  C   UNL     1      32.171  22.946  15.221  0.00  0.00    +0.011 C 
ATOM      7  C   UNL     1      32.398  22.640  16.722  0.00  0.00    -0.004 C 
ATOM      8  C   UNL     1      33.007  23.912  17.350  0.00  0.00    +0.020 C 
ATOM      9  C   UNL     1      33.793  23.550  18.591  0.00  0.00    +0.070 C 
ATOM     10  S   UNL     1      34.638  22.025  18.147  0.00  0.00    -0.160 S 
ATOM     11  C   UNL     1      33.414  21.492  16.917  0.00  0.00    +0.077 C 
ATOM     12  C   UNL     1      31.038  22.257  17.364  0.00  0.00    +0.115 C 
ENDROOT
BRANCH   1  16
ATOM     13  C   UNL     1      28.509  16.830  14.874  0.00  0.00    +0.037 A 
ATOM     14  C   UNL     1      27.616  17.649  15.570  0.00  0.00    +0.014 A 
ATOM     15  C   UNL     1      28.103  18.605  16.464  0.00  0.00    +0.014 A 
ATOM     16  C   UNL     1      29.477  18.822  16.579  0.00  0.00    +0.037 A 
ATOM     17  C   UNL     1      30.369  17.938  15.957  0.00  0.00    +0.014 A 
ATOM     18  C   UNL     1      29.883  16.933  15.113  0.00  0.00    +0.014 A 
BRANCH  13  20
ATOM     19  N   UNL     1      28.957  15.334  13.010  0.00  0.00    -0.325 N 
ATOM     20  C   UNL     1      28.025  15.841  13.873  0.00  0.00    +0.242 C 
ATOM     21  O   UNL     1      26.867  15.461  13.856  0.00  0.00    -0.270 OA
ATOM     22  H   UNL     1      28.645  14.575  12.417  0.00  0.00    +0.145 HD
ATOM     23  H   UNL     1      29.951  15.409  13.181  0.00  0.00    +0.145 HD
ENDBRANCH  13  20
ENDBRANCH   1  16
TORSDOF 2
ENDMDL
MODEL 4
REMARK VINA RESULT:      -6.7      5.772      7.367
REMARK  Name = ZINC000583127796
REMARK  2 active torsions:
REMARK  status: ('A' for Active; 'I' for Inactive)
REMARK    1  A    between atoms: C_2  and  C_4
REMARK    2  A    between atoms: C_7  and  C_8
REMARK                            x       y       z     vdW  Elec       q    Type
REMARK                         _______ _______ _______ _____ _____    ______ ____
ROOT
ATOM      1  C   UNL     1      32.784  23.027  14.160  0.00  0.00    +0.247 C 
ATOM      2  O   UNL     1      33.546  23.597  14.944  0.00  0.00    -0.270 OA
ATOM      3  N   UNL     1      31.911  22.002  14.555  0.00  0.00    -0.297 N 
ATOM      4  C   UNL     1      30.978  21.269  13.697  0.00  0.00    +0.108 C 
ATOM      5  C   UNL     1      29.553  21.307  14.219  0.00  0.00    +0.020 C 
ATOM      6  C   UNL     1      29.481  20.918  15.684  0.00  0.00    +0.011 C 
ATOM      7  C   UNL     1      30.464  21.717  16.574  0.00  0.00    -0.004 C 
ATOM      8  C   UNL     1      30.372  21.114  17.992  0.00  0.00    +0.020 C 
ATOM      9  C   UNL     1      30.796  22.142  19.018  0.00  0.00    +0.070 C 
ATOM     10  S   UNL     1      30.078  23.680  18.424  0.00  0.00    -0.160 S 
ATOM     11  C   UNL     1      30.056  23.204  16.673  0.00  0.00    +0.077 C 
ATOM     12  C   UNL     1      31.890  21.597  15.974  0.00  0.00    +0.115 C 
ENDROOT
BRANCH   1  16
ATOM     13  C   UNL     1      33.002  24.659  10.207  0.00  0.00    +0.037 A 
ATOM     14  C   UNL     1      32.009  25.113  11.079  0.00  0.00    +0.014 A 
ATOM     15  C   UNL     1      31.851  24.507  12.327  0.00  0.00    +0.014 A 
ATOM     16  C   UNL     1      32.751  23.528  12.751  0.00  0.00    +0.037 A 
ATOM     17  C   UNL     1      33.682  23.008  11.841  0.00  0.00    +0.014 A 
ATOM     18  C   UNL     1      33.798  23.566  10.564  0.00  0.00    +0.014 A 
BRANCH  13  20
ATOM     19  N   UNL     1      32.568  24.800   7.819  0.00  0.00    -0.325 N 
ATOM     20  C   UNL     1      33.234  25.320   8.894  0.00  0.00    +0.242 C 
ATOM     21  O   UNL     1      33.940  26.309   8.791  0.00  0.00    -0.270 OA
ATOM     22  H   UNL     1      32.636  25.330   6.958  0.00  0.00    +0.145 HD
ATOM     23  H   UNL     1      31.775  24.181   7.921  0.00  0.00    +0.145 HD
ENDBRANCH  13  20
ENDBRANCH   1  16
TORSDOF 2
ENDMDL
MODEL 5
REMARK VINA RESULT:      -6.6      3.205      7.554
REMARK  Name = ZINC000583127796
REMARK  2 active torsions:
REMARK  status: ('A' for Active; 'I' for Inactive)
REMARK    1  A    between atoms: C_2  and  C_4
REMARK    2  A    between atoms: C_7  and  C_8
REMARK                            x       y       z     vdW  Elec       q    Type
REMARK                         _______ _______ _______ _____ _____    ______ ____
ROOT
ATOM      1  C   UNL     1      30.303  20.403  15.777  0.00  0.00    +0.247 C 
ATOM      2  O   UNL     1      30.391  20.645  14.571  0.00  0.00    -0.270 OA
ATOM      3  N   UNL     1      29.471  19.399  16.294  0.00  0.00    -0.297 N 
ATOM      4  C   UNL     1      29.301  19.044  17.704  0.00  0.00    +0.108 C 
ATOM      5  C   UNL     1      29.549  17.571  17.969  0.00  0.00    +0.020 C 
ATOM      6  C   UNL     1      28.768  16.688  17.013  0.00  0.00    +0.011 C 
ATOM      7  C   UNL     1      28.976  17.071  15.527  0.00  0.00    -0.004 C 
ATOM      8  C   UNL     1      28.019  16.186  14.700  0.00  0.00    +0.020 C 
ATOM      9  C   UNL     1      28.541  16.040  13.288  0.00  0.00    +0.070 C 
ATOM     10  S   UNL     1      30.318  15.852  13.492  0.00  0.00    -0.160 S 
ATOM     11  C   UNL     1      30.416  16.762  15.060  0.00  0.00    +0.077 C 
ATOM     12  C   UNL     1      28.677  18.584  15.355  0.00  0.00    +0.115 C 
ENDROOT
BRANCH   1  16
ATOM     13  C   UNL     1      32.768  22.359  18.681  0.00  0.00    +0.037 A 
ATOM     14  C   UNL     1      31.580  22.970  18.271  0.00  0.00    +0.014 A 
ATOM     15  C   UNL     1      30.828  22.404  17.240  0.00  0.00    +0.014 A 
ATOM     16  C   UNL     1      31.197  21.173  16.696  0.00  0.00    +0.037 A 
ATOM     17  C   UNL     1      32.436  20.613  17.039  0.00  0.00    +0.014 A 
ATOM     18  C   UNL     1      33.226  21.214  18.023  0.00  0.00    +0.014 A 
BRANCH  13  20
ATOM     19  N   UNL     1      33.204  22.498  21.069  0.00  0.00    -0.325 N 
ATOM     20  C   UNL     1      33.563  22.906  19.814  0.00  0.00    +0.242 C 
ATOM     21  O   UNL     1      34.520  23.639  19.630  0.00  0.00    -0.270 OA
ATOM     22  H   UNL     1      33.825  22.776  21.819  0.00  0.00    +0.145 HD
ATOM     23  H   UNL     1      32.619  21.689  21.228  0.00  0.00    +0.145 HD
ENDBRANCH  13  20
ENDBRANCH   1  16
TORSDOF 2
ENDMDL
MODEL 6
REMARK VINA RESULT:      -6.6      2.441      3.326
REMARK  Name = ZINC000583127796
REMARK  2 active torsions:
REMARK  status: ('A' for Active; 'I' for Inactive)
REMARK    1  A    between atoms: C_2  and  C_4
REMARK    2  A    between atoms: C_7  and  C_8
REMARK                            x       y       z     vdW  Elec       q    Type
REMARK                         _______ _______ _______ _____ _____    ______ ____
ROOT
ATOM      1  C   UNL     1      31.564  18.205  14.711  0.00  0.00    +0.247 C 
ATOM      2  O   UNL     1      31.665  19.332  14.221  0.00  0.00    -0.270 OA
ATOM      3  N   UNL     1      31.288  17.987  16.069  0.00  0.00    -0.297 N 
ATOM      4  C   UNL     1      31.154  16.691  16.738  0.00  0.00    +0.108 C 
ATOM      5  C   UNL     1      29.842  16.553  17.487  0.00  0.00    +0.020 C 
ATOM      6  C   UNL     1      29.584  17.744  18.392  0.00  0.00    +0.011 C 
ATOM      7  C   UNL     1      29.714  19.102  17.661  0.00  0.00    -0.004 C 
ATOM      8  C   UNL     1      29.565  20.203  18.733  0.00  0.00    +0.020 C 
ATOM      9  C   UNL     1      29.087  21.487  18.093  0.00  0.00    +0.070 C 
ATOM     10  S   UNL     1      27.866  20.949  16.885  0.00  0.00    -0.160 S 
ATOM     11  C   UNL     1      28.580  19.300  16.630  0.00  0.00    +0.077 C 
ATOM     12  C   UNL     1      31.092  19.156  16.949  0.00  0.00    +0.115 C 
ENDROOT
BRANCH   1  16
ATOM     13  C   UNL     1      31.776  14.649  12.337  0.00  0.00    +0.037 A 
ATOM     14  C   UNL     1      32.952  15.342  12.633  0.00  0.00    +0.014 A 
ATOM     15  C   UNL     1      32.887  16.566  13.303  0.00  0.00    +0.014 A 
ATOM     16  C   UNL     1      31.663  17.041  13.778  0.00  0.00    +0.037 A 
ATOM     17  C   UNL     1      30.479  16.395  13.396  0.00  0.00    +0.014 A 
ATOM     18  C   UNL     1      30.536  15.205  12.665  0.00  0.00    +0.014 A 
BRANCH  13  20
ATOM     19  N   UNL     1      30.830  12.432  12.015  0.00  0.00    -0.325 N 
ATOM     20  C   UNL     1      31.815  13.317  11.674  0.00  0.00    +0.242 C 
ATOM     21  O   UNL     1      32.653  13.045  10.830  0.00  0.00    -0.270 OA
ATOM     22  H   UNL     1      30.793  11.579  11.470  0.00  0.00    +0.145 HD
ATOM     23  H   UNL     1      29.980  12.721  12.479  0.00  0.00    +0.145 HD
ENDBRANCH  13  20
ENDBRANCH   1  16
TORSDOF 2
ENDMDL
MODEL 7
REMARK VINA RESULT:      -6.5      3.792      8.024
REMARK  Name = ZINC000583127796
REMARK  2 active torsions:
REMARK  status: ('A' for Active; 'I' for Inactive)
REMARK    1  A    between atoms: C_2  and  C_4
REMARK    2  A    between atoms: C_7  and  C_8
REMARK                            x       y       z     vdW  Elec       q    Type
REMARK                         _______ _______ _______ _____ _____    ______ ____
ROOT
ATOM      1  C   UNL     1      31.961  20.740  16.902  0.00  0.00    +0.247 C 
ATOM      2  O   UNL     1      32.641  19.771  16.557  0.00  0.00    -0.270 OA
ATOM      3  N   UNL     1      30.597  20.861  16.595  0.00  0.00    -0.297 N 
ATOM      4  C   UNL     1      29.714  21.971  16.959  0.00  0.00    +0.108 C 
ATOM      5  C   UNL     1      28.473  21.511  17.700  0.00  0.00    +0.020 C 
ATOM      6  C   UNL     1      27.772  20.377  16.974  0.00  0.00    +0.011 C 
ATOM      7  C   UNL     1      28.721  19.208  16.615  0.00  0.00    -0.004 C 
ATOM      8  C   UNL     1      27.901  18.212  15.767  0.00  0.00    +0.020 C 
ATOM      9  C   UNL     1      28.501  16.827  15.873  0.00  0.00    +0.070 C 
ATOM     10  S   UNL     1      28.968  16.680  17.604  0.00  0.00    -0.160 S 
ATOM     11  C   UNL     1      29.198  18.459  17.879  0.00  0.00    +0.077 C 
ATOM     12  C   UNL     1      29.941  19.774  15.842  0.00  0.00    +0.115 C 
ENDROOT
BRANCH   1  16
ATOM     13  C   UNL     1      34.191  23.536  19.254  0.00  0.00    +0.037 A 
ATOM     14  C   UNL     1      33.414  22.570  19.898  0.00  0.00    +0.014 A 
ATOM     15  C   UNL     1      32.590  21.729  19.148  0.00  0.00    +0.014 A 
ATOM     16  C   UNL     1      32.625  21.774  17.753  0.00  0.00    +0.037 A 
ATOM     17  C   UNL     1      33.328  22.806  17.115  0.00  0.00    +0.014 A 
ATOM     18  C   UNL     1      34.101  23.694  17.869  0.00  0.00    +0.014 A 
BRANCH  13  20
ATOM     19  N   UNL     1      35.577  23.924  21.214  0.00  0.00    -0.325 N 
ATOM     20  C   UNL     1      35.122  24.409  20.020  0.00  0.00    +0.242 C 
ATOM     21  O   UNL     1      35.502  25.481  19.581  0.00  0.00    -0.270 OA
ATOM     22  H   UNL     1      36.301  24.468  21.667  0.00  0.00    +0.145 HD
ATOM     23  H   UNL     1      35.510  22.946  21.462  0.00  0.00    +0.145 HD
ENDBRANCH  13  20
ENDBRANCH   1  16
TORSDOF 2
ENDMDL
MODEL 8
REMARK VINA RESULT:      -6.5      4.392      8.305
REMARK  Name = ZINC000583127796
REMARK  2 active torsions:
REMARK  status: ('A' for Active; 'I' for Inactive)
REMARK    1  A    between atoms: C_2  and  C_4
REMARK    2  A    between atoms: C_7  and  C_8
REMARK                            x       y       z     vdW  Elec       q    Type
REMARK                         _______ _______ _______ _____ _____    ______ ____
ROOT
ATOM      1  C   UNL     1      32.140  21.956  15.977  0.00  0.00    +0.247 C 
ATOM      2  O   UNL     1      32.545  20.972  15.355  0.00  0.00    -0.270 OA
ATOM      3  N   UNL     1      30.783  22.172  16.262  0.00  0.00    -0.297 N 
ATOM      4  C   UNL     1      30.212  23.307  16.989  0.00  0.00    +0.108 C 
ATOM      5  C   UNL     1      29.350  22.877  18.161  0.00  0.00    +0.020 C 
ATOM      6  C   UNL     1      28.331  21.829  17.754  0.00  0.00    +0.011 C 
ATOM      7  C   UNL     1      28.959  20.630  17.002  0.00  0.00    -0.004 C 
ATOM      8  C   UNL     1      27.792  19.733  16.538  0.00  0.00    +0.020 C 
ATOM      9  C   UNL     1      28.276  18.312  16.346  0.00  0.00    +0.070 C 
ATOM     10  S   UNL     1      29.396  18.040  17.728  0.00  0.00    -0.160 S 
ATOM     11  C   UNL     1      29.853  19.784  17.936  0.00  0.00    +0.077 C 
ATOM     12  C   UNL     1      29.797  21.170  15.813  0.00  0.00    +0.115 C 
ENDROOT
BRANCH   1  16
ATOM     13  C   UNL     1      34.807  24.832  17.694  0.00  0.00    +0.037 A 
ATOM     14  C   UNL     1      34.485  24.925  16.337  0.00  0.00    +0.014 A 
ATOM     15  C   UNL     1      33.714  23.927  15.737  0.00  0.00    +0.014 A 
ATOM     16  C   UNL     1      33.169  22.901  16.511  0.00  0.00    +0.037 A 
ATOM     17  C   UNL     1      33.573  22.756  17.846  0.00  0.00    +0.014 A 
ATOM     18  C   UNL     1      34.402  23.717  18.433  0.00  0.00    +0.014 A 
BRANCH  13  20
ATOM     19  N   UNL     1      36.028  26.932  17.591  0.00  0.00    -0.325 N 
ATOM     20  C   UNL     1      35.579  25.906  18.375  0.00  0.00    +0.242 C 
ATOM     21  O   UNL     1      35.758  25.900  19.582  0.00  0.00    -0.270 OA
ATOM     22  H   UNL     1      36.444  27.715  18.081  0.00  0.00    +0.145 HD
ATOM     23  H   UNL     1      35.660  27.108  16.667  0.00  0.00    +0.145 HD
ENDBRANCH  13  20
ENDBRANCH   1  16
TORSDOF 2
ENDMDL
MODEL 9
REMARK VINA RESULT:      -6.5      4.188      7.470
REMARK  Name = ZINC000583127796
REMARK  2 active torsions:
REMARK  status: ('A' for Active; 'I' for Inactive)
REMARK    1  A    between atoms: C_2  and  C_4
REMARK    2  A    between atoms: C_7  and  C_8
REMARK                            x       y       z     vdW  Elec       q    Type
REMARK                         _______ _______ _______ _____ _____    ______ ____
ROOT
ATOM      1  C   UNL     1      31.577  20.920  15.075  0.00  0.00    +0.247 C 
ATOM      2  O   UNL     1      32.235  19.893  14.893  0.00  0.00    -0.270 OA
ATOM      3  N   UNL     1      30.180  20.918  15.200  0.00  0.00    -0.297 N 
ATOM      4  C   UNL     1      29.319  22.082  15.414  0.00  0.00    +0.108 C 
ATOM      5  C   UNL     1      28.418  21.929  16.625  0.00  0.00    +0.020 C 
ATOM      6  C   UNL     1      27.674  20.607  16.609  0.00  0.00    +0.011 C 
ATOM      7  C   UNL     1      28.606  19.388  16.399  0.00  0.00    -0.004 C 
ATOM      8  C   UNL     1      27.696  18.148  16.266  0.00  0.00    +0.020 C 
ATOM      9  C   UNL     1      28.461  16.902  16.652  0.00  0.00    +0.070 C 
ATOM     10  S   UNL     1      29.436  17.408  18.077  0.00  0.00    -0.160 S 
ATOM     11  C   UNL     1      29.524  19.162  17.621  0.00  0.00    +0.077 C 
ATOM     12  C   UNL     1      29.464  19.629  15.129  0.00  0.00    +0.115 C 
ENDROOT
BRANCH   1  16
ATOM     13  C   UNL     1      34.060  24.385  15.471  0.00  0.00    +0.037 A 
ATOM     14  C   UNL     1      33.565  23.766  16.622  0.00  0.00    +0.014 A 
ATOM     15  C   UNL     1      32.659  22.710  16.506  0.00  0.00    +0.014 A 
ATOM     16  C   UNL     1      32.336  22.197  15.248  0.00  0.00    +0.037 A 
ATOM     17  C   UNL     1      32.755  22.880  14.098  0.00  0.00    +0.014 A 
ATOM     18  C   UNL     1      33.608  23.982  14.211  0.00  0.00    +0.014 A 
BRANCH  13  20
ATOM     19  N   UNL     1      36.036  25.497  14.593  0.00  0.00    -0.325 N 
ATOM     20  C   UNL     1      35.069  25.476  15.559  0.00  0.00    +0.242 C 
ATOM     21  O   UNL     1      35.006  26.339  16.419  0.00  0.00    -0.270 OA
ATOM     22  H   UNL     1      36.641  26.310  14.590  0.00  0.00    +0.145 HD
ATOM     23  H   UNL     1      35.947  24.983  13.727  0.00  0.00    +0.145 HD
ENDBRANCH  13  20
ENDBRANCH   1  16
TORSDOF 2
ENDMDL
