MODEL 1
REMARK VINA RESULT:      -6.1      0.000      0.000
REMARK  Name = ZINC001228612316
REMARK  5 active torsions:
REMARK  status: ('A' for Active; 'I' for Inactive)
REMARK    1  A    between atoms: C_2  and  C_4
REMARK    2  A    between atoms: C_8  and  O_9
REMARK    3  A    between atoms: O_9  and  C_10
REMARK    4  A    between atoms: C_10  and  C_11
REMARK    5  A    between atoms: C_10  and  C_17
REMARK                            x       y       z     vdW  Elec       q    Type
REMARK                         _______ _______ _______ _____ _____    ______ ____
ROOT
ATOM      1  C   UNL     1      29.392  21.844  16.614  0.00  0.00    +0.040 A 
ATOM      2  C   UNL     1      30.267  20.755  16.636  0.00  0.00    +0.013 A 
ATOM      3  C   UNL     1      31.335  20.711  15.736  0.00  0.00    +0.004 A 
ATOM      4  C   UNL     1      31.530  21.756  14.827  0.00  0.00    +0.046 A 
ATOM      5  C   UNL     1      30.662  22.851  14.809  0.00  0.00    +0.122 A 
ATOM      6  C   UNL     1      29.580  22.870  15.684  0.00  0.00    +0.058 A 
ENDROOT
BRANCH   1   8
ATOM      7  N   UNL     1      28.197  23.103  18.325  0.00  0.00    -0.325 N 
ATOM      8  C   UNL     1      28.245  21.982  17.547  0.00  0.00    +0.242 C 
ATOM      9  O   UNL     1      27.338  21.159  17.577  0.00  0.00    -0.270 OA
ATOM     10  H   UNL     1      27.336  23.241  18.841  0.00  0.00    +0.145 HD
ATOM     11  H   UNL     1      28.762  23.917  18.132  0.00  0.00    +0.145 HD
ENDBRANCH   1   8
BRANCH   5  12
ATOM     12  O   UNL     1      30.943  23.826  13.892  0.00  0.00    -0.484 OA
BRANCH  12  13
ATOM     13  C   UNL     1      32.327  24.164  13.679  0.00  0.00    +0.208 C 
BRANCH  13  14
ATOM     14  C   UNL     1      32.581  24.276  12.190  0.00  0.00    +0.011 A 
ATOM     15  C   UNL     1      31.980  25.303  11.449  0.00  0.00    +0.010 A 
ATOM     16  C   UNL     1      32.208  25.403  10.083  0.00  0.00    +0.020 A 
ATOM     17  C   UNL     1      33.037  24.467   9.492  0.00  0.00    +0.111 A 
ATOM     18  N   UNL     1      33.633  23.459  10.164  0.00  0.00    -0.263 NA
ATOM     19  C   UNL     1      33.389  23.384  11.495  0.00  0.00    +0.118 A 
ENDBRANCH  13  14
BRANCH  13  20
ATOM     20  C   UNL     1      32.640  25.475  14.367  0.00  0.00    +0.034 C 
ATOM     21  C   UNL     1      34.041  26.047  14.408  0.00  0.00    +0.008 C 
ATOM     22  C   UNL     1      33.429  25.501  15.661  0.00  0.00    +0.008 C 
ENDBRANCH  13  20
ENDBRANCH  12  13
ENDBRANCH   5  12
TORSDOF 5
ENDMDL
MODEL 2
REMARK VINA RESULT:      -6.0      2.889      6.067
REMARK  Name = ZINC001228612316
REMARK  5 active torsions:
REMARK  status: ('A' for Active; 'I' for Inactive)
REMARK    1  A    between atoms: C_2  and  C_4
REMARK    2  A    between atoms: C_8  and  O_9
REMARK    3  A    between atoms: O_9  and  C_10
REMARK    4  A    between atoms: C_10  and  C_11
REMARK    5  A    between atoms: C_10  and  C_17
REMARK                            x       y       z     vdW  Elec       q    Type
REMARK                         _______ _______ _______ _____ _____    ______ ____
ROOT
ATOM      1  C   UNL     1      31.836  25.645  13.612  0.00  0.00    +0.040 A 
ATOM      2  C   UNL     1      32.969  26.401  13.922  0.00  0.00    +0.013 A 
ATOM      3  C   UNL     1      33.826  25.973  14.939  0.00  0.00    +0.004 A 
ATOM      4  C   UNL     1      33.554  24.790  15.634  0.00  0.00    +0.046 A 
ATOM      5  C   UNL     1      32.426  24.027  15.320  0.00  0.00    +0.122 A 
ATOM      6  C   UNL     1      31.559  24.479  14.332  0.00  0.00    +0.058 A 
ENDROOT
BRANCH   1   8
ATOM      7  N   UNL     1      29.634  26.418  12.908  0.00  0.00    -0.325 N 
ATOM      8  C   UNL     1      30.884  26.015  12.534  0.00  0.00    +0.242 C 
ATOM      9  O   UNL     1      31.218  26.023  11.356  0.00  0.00    -0.270 OA
ATOM     10  H   UNL     1      29.058  26.801  12.168  0.00  0.00    +0.145 HD
ATOM     11  H   UNL     1      29.417  26.688  13.856  0.00  0.00    +0.145 HD
ENDBRANCH   1   8
BRANCH   5  12
ATOM     12  O   UNL     1      32.254  22.883  16.049  0.00  0.00    -0.484 OA
BRANCH  12  13
ATOM     13  C   UNL     1      31.075  22.098  15.792  0.00  0.00    +0.208 C 
BRANCH  13  14
ATOM     14  C   UNL     1      31.484  20.658  15.559  0.00  0.00    +0.011 A 
ATOM     15  C   UNL     1      32.049  19.910  16.600  0.00  0.00    +0.010 A 
ATOM     16  C   UNL     1      32.431  18.592  16.385  0.00  0.00    +0.020 A 
ATOM     17  C   UNL     1      32.234  18.055  15.125  0.00  0.00    +0.111 A 
ATOM     18  N   UNL     1      31.698  18.740  14.092  0.00  0.00    -0.263 NA
ATOM     19  C   UNL     1      31.339  20.025  14.330  0.00  0.00    +0.118 A 
ENDBRANCH  13  14
BRANCH  13  20
ATOM     20  C   UNL     1      30.135  22.192  16.975  0.00  0.00    +0.034 C 
ATOM     21  C   UNL     1      28.769  21.538  16.971  0.00  0.00    +0.008 C 
ATOM     22  C   UNL     1      28.874  23.030  16.897  0.00  0.00    +0.008 C 
ENDBRANCH  13  20
ENDBRANCH  12  13
ENDBRANCH   5  12
TORSDOF 5
ENDMDL
MODEL 3
REMARK VINA RESULT:      -5.9      2.630      6.466
REMARK  Name = ZINC001228612316
REMARK  5 active torsions:
REMARK  status: ('A' for Active; 'I' for Inactive)
REMARK    1  A    between atoms: C_2  and  C_4
REMARK    2  A    between atoms: C_8  and  O_9
REMARK    3  A    between atoms: O_9  and  C_10
REMARK    4  A    between atoms: C_10  and  C_11
REMARK    5  A    between atoms: C_10  and  C_17
REMARK                            x       y       z     vdW  Elec       q    Type
REMARK                         _______ _______ _______ _____ _____    ______ ____
ROOT
ATOM      1  C   UNL     1      32.346  24.924  11.285  0.00  0.00    +0.040 A 
ATOM      2  C   UNL     1      31.328  25.846  11.543  0.00  0.00    +0.013 A 
ATOM      3  C   UNL     1      30.654  25.803  12.766  0.00  0.00    +0.004 A 
ATOM      4  C   UNL     1      31.004  24.850  13.728  0.00  0.00    +0.046 A 
ATOM      5  C   UNL     1      32.027  23.933  13.477  0.00  0.00    +0.122 A 
ATOM      6  C   UNL     1      32.669  23.958  12.243  0.00  0.00    +0.058 A 
ENDROOT
BRANCH   1   8
ATOM      7  N   UNL     1      34.133  25.825   9.894  0.00  0.00    -0.325 N 
ATOM      8  C   UNL     1      33.128  24.910  10.023  0.00  0.00    +0.242 C 
ATOM      9  O   UNL     1      32.928  24.071   9.153  0.00  0.00    -0.270 OA
ATOM     10  H   UNL     1      34.739  25.699   9.093  0.00  0.00    +0.145 HD
ATOM     11  H   UNL     1      34.502  26.334  10.684  0.00  0.00    +0.145 HD
ENDBRANCH   1   8
BRANCH   5  12
ATOM     12  O   UNL     1      32.301  23.048  14.483  0.00  0.00    -0.484 OA
BRANCH  12  13
ATOM     13  C   UNL     1      31.332  22.019  14.752  0.00  0.00    +0.208 C 
BRANCH  13  14
ATOM     14  C   UNL     1      32.005  20.667  14.633  0.00  0.00    +0.011 A 
ATOM     15  C   UNL     1      31.331  19.596  14.031  0.00  0.00    +0.010 A 
ATOM     16  C   UNL     1      31.944  18.354  13.927  0.00  0.00    +0.020 A 
ATOM     17  C   UNL     1      33.226  18.219  14.431  0.00  0.00    +0.111 A 
ATOM     18  N   UNL     1      33.911  19.221  15.023  0.00  0.00    -0.263 NA
ATOM     19  C   UNL     1      33.285  20.420  15.113  0.00  0.00    +0.118 A 
ENDBRANCH  13  14
BRANCH  13  20
ATOM     20  C   UNL     1      30.766  22.205  16.143  0.00  0.00    +0.034 C 
ATOM     21  C   UNL     1      29.734  21.261  16.724  0.00  0.00    +0.008 C 
ATOM     22  C   UNL     1      29.331  22.652  16.342  0.00  0.00    +0.008 C 
ENDBRANCH  13  20
ENDBRANCH  12  13
ENDBRANCH   5  12
TORSDOF 5
ENDMDL
MODEL 4
REMARK VINA RESULT:      -5.8      2.048      6.784
REMARK  Name = ZINC001228612316
REMARK  5 active torsions:
REMARK  status: ('A' for Active; 'I' for Inactive)
REMARK    1  A    between atoms: C_2  and  C_4
REMARK    2  A    between atoms: C_8  and  O_9
REMARK    3  A    between atoms: O_9  and  C_10
REMARK    4  A    between atoms: C_10  and  C_11
REMARK    5  A    between atoms: C_10  and  C_17
REMARK                            x       y       z     vdW  Elec       q    Type
REMARK                         _______ _______ _______ _____ _____    ______ ____
ROOT
ATOM      1  C   UNL     1      32.668  25.093  11.609  0.00  0.00    +0.040 A 
ATOM      2  C   UNL     1      32.157  26.393  11.651  0.00  0.00    +0.013 A 
ATOM      3  C   UNL     1      31.043  26.670  12.448  0.00  0.00    +0.004 A 
ATOM      4  C   UNL     1      30.453  25.654  13.206  0.00  0.00    +0.046 A 
ATOM      5  C   UNL     1      30.967  24.355  13.174  0.00  0.00    +0.122 A 
ATOM      6  C   UNL     1      32.053  24.079  12.350  0.00  0.00    +0.058 A 
ENDROOT
BRANCH   1   8
ATOM      7  N   UNL     1      34.256  25.575   9.824  0.00  0.00    -0.325 N 
ATOM      8  C   UNL     1      33.859  24.715  10.807  0.00  0.00    +0.242 C 
ATOM      9  O   UNL     1      34.505  23.703  11.053  0.00  0.00    -0.270 OA
ATOM     10  H   UNL     1      35.149  25.366   9.394  0.00  0.00    +0.145 HD
ATOM     11  H   UNL     1      33.927  26.528   9.778  0.00  0.00    +0.145 HD
ENDBRANCH   1   8
BRANCH   5  12
ATOM     12  O   UNL     1      30.326  23.436  13.957  0.00  0.00    -0.484 OA
BRANCH  12  13
ATOM     13  C   UNL     1      31.115  22.710  14.918  0.00  0.00    +0.208 C 
BRANCH  13  14
ATOM     14  C   UNL     1      31.119  23.473  16.227  0.00  0.00    +0.011 A 
ATOM     15  C   UNL     1      32.321  23.976  16.743  0.00  0.00    +0.010 A 
ATOM     16  C   UNL     1      32.327  24.670  17.946  0.00  0.00    +0.020 A 
ATOM     17  C   UNL     1      31.122  24.844  18.603  0.00  0.00    +0.111 A 
ATOM     18  N   UNL     1      29.942  24.373  18.145  0.00  0.00    -0.263 NA
ATOM     19  C   UNL     1      29.967  23.696  16.971  0.00  0.00    +0.118 A 
ENDBRANCH  13  14
BRANCH  13  20
ATOM     20  C   UNL     1      30.529  21.329  15.116  0.00  0.00    +0.034 C 
ATOM     21  C   UNL     1      31.098  20.351  16.122  0.00  0.00    +0.008 C 
ATOM     22  C   UNL     1      31.282  20.095  14.658  0.00  0.00    +0.008 C 
ENDBRANCH  13  20
ENDBRANCH  12  13
ENDBRANCH   5  12
TORSDOF 5
ENDMDL
MODEL 5
REMARK VINA RESULT:      -5.8      4.091      5.944
REMARK  Name = ZINC001228612316
REMARK  5 active torsions:
REMARK  status: ('A' for Active; 'I' for Inactive)
REMARK    1  A    between atoms: C_2  and  C_4
REMARK    2  A    between atoms: C_8  and  O_9
REMARK    3  A    between atoms: O_9  and  C_10
REMARK    4  A    between atoms: C_10  and  C_11
REMARK    5  A    between atoms: C_10  and  C_17
REMARK                            x       y       z     vdW  Elec       q    Type
REMARK                         _______ _______ _______ _____ _____    ______ ____
ROOT
ATOM      1  C   UNL     1      31.841  26.132  12.236  0.00  0.00    +0.040 A 
ATOM      2  C   UNL     1      32.367  27.366  12.626  0.00  0.00    +0.013 A 
ATOM      3  C   UNL     1      33.506  27.862  11.988  0.00  0.00    +0.004 A 
ATOM      4  C   UNL     1      34.108  27.132  10.958  0.00  0.00    +0.046 A 
ATOM      5  C   UNL     1      33.579  25.902  10.559  0.00  0.00    +0.122 A 
ATOM      6  C   UNL     1      32.466  25.397  11.224  0.00  0.00    +0.058 A 
ENDROOT
BRANCH   1   8
ATOM      7  N   UNL     1      29.578  26.377  13.107  0.00  0.00    -0.325 N 
ATOM      8  C   UNL     1      30.623  25.539  12.845  0.00  0.00    +0.242 C 
ATOM      9  O   UNL     1      30.526  24.335  13.046  0.00  0.00    -0.270 OA
ATOM     10  H   UNL     1      28.714  25.926  13.384  0.00  0.00    +0.145 HD
ATOM     11  H   UNL     1      29.515  27.301  12.706  0.00  0.00    +0.145 HD
ENDBRANCH   1   8
BRANCH   5  12
ATOM     12  O   UNL     1      34.233  25.270   9.537  0.00  0.00    -0.484 OA
BRANCH  12  13
ATOM     13  C   UNL     1      34.776  23.963   9.797  0.00  0.00    +0.208 C 
BRANCH  13  14
ATOM     14  C   UNL     1      35.332  23.396   8.507  0.00  0.00    +0.011 A 
ATOM     15  C   UNL     1      35.276  22.017   8.263  0.00  0.00    +0.010 A 
ATOM     16  C   UNL     1      35.791  21.495   7.084  0.00  0.00    +0.020 A 
ATOM     17  C   UNL     1      36.349  22.375   6.173  0.00  0.00    +0.111 A 
ATOM     18  N   UNL     1      36.429  23.709   6.368  0.00  0.00    -0.263 NA
ATOM     19  C   UNL     1      35.922  24.189   7.530  0.00  0.00    +0.118 A 
ENDBRANCH  13  14
BRANCH  13  20
ATOM     20  C   UNL     1      35.868  24.066  10.840  0.00  0.00    +0.034 C 
ATOM     21  C   UNL     1      36.623  22.851  11.337  0.00  0.00    +0.008 C 
ATOM     22  C   UNL     1      35.650  23.539  12.244  0.00  0.00    +0.008 C 
ENDBRANCH  13  20
ENDBRANCH  12  13
ENDBRANCH   5  12
TORSDOF 5
ENDMDL
MODEL 6
REMARK VINA RESULT:      -5.8      2.277      6.790
REMARK  Name = ZINC001228612316
REMARK  5 active torsions:
REMARK  status: ('A' for Active; 'I' for Inactive)
REMARK    1  A    between atoms: C_2  and  C_4
REMARK    2  A    between atoms: C_8  and  O_9
REMARK    3  A    between atoms: O_9  and  C_10
REMARK    4  A    between atoms: C_10  and  C_11
REMARK    5  A    between atoms: C_10  and  C_17
REMARK                            x       y       z     vdW  Elec       q    Type
REMARK                         _______ _______ _______ _____ _____    ______ ____
ROOT
ATOM      1  C   UNL     1      32.434  24.273  11.555  0.00  0.00    +0.040 A 
ATOM      2  C   UNL     1      32.121  25.554  11.093  0.00  0.00    +0.013 A 
ATOM      3  C   UNL     1      31.232  26.351  11.819  0.00  0.00    +0.004 A 
ATOM      4  C   UNL     1      30.668  25.870  13.005  0.00  0.00    +0.046 A 
ATOM      5  C   UNL     1      30.985  24.593  13.474  0.00  0.00    +0.122 A 
ATOM      6  C   UNL     1      31.843  23.793  12.727  0.00  0.00    +0.058 A 
ENDROOT
BRANCH   1   8
ATOM      7  N   UNL     1      32.867  22.496   9.945  0.00  0.00    -0.325 N 
ATOM      8  C   UNL     1      33.383  23.369  10.859  0.00  0.00    +0.242 C 
ATOM      9  O   UNL     1      34.592  23.441  11.042  0.00  0.00    -0.270 OA
ATOM     10  H   UNL     1      33.547  21.997   9.384  0.00  0.00    +0.145 HD
ATOM     11  H   UNL     1      31.935  22.598   9.570  0.00  0.00    +0.145 HD
ENDBRANCH   1   8
BRANCH   5  12
ATOM     12  O   UNL     1      30.390  24.220  14.648  0.00  0.00    -0.484 OA
BRANCH  12  13
ATOM     13  C   UNL     1      31.056  23.225  15.448  0.00  0.00    +0.208 C 
BRANCH  13  14
ATOM     14  C   UNL     1      31.096  23.699  16.886  0.00  0.00    +0.011 A 
ATOM     15  C   UNL     1      29.908  24.036  17.549  0.00  0.00    +0.010 A 
ATOM     16  C   UNL     1      29.944  24.477  18.866  0.00  0.00    +0.020 A 
ATOM     17  C   UNL     1      31.177  24.566  19.488  0.00  0.00    +0.111 A 
ATOM     18  N   UNL     1      32.346  24.257  18.888  0.00  0.00    -0.263 NA
ATOM     19  C   UNL     1      32.280  23.833  17.602  0.00  0.00    +0.118 A 
ENDBRANCH  13  14
BRANCH  13  20
ATOM     20  C   UNL     1      30.312  21.912  15.347  0.00  0.00    +0.034 C 
ATOM     21  C   UNL     1      30.636  20.733  16.240  0.00  0.00    +0.008 C 
ATOM     22  C   UNL     1      30.992  20.678  14.787  0.00  0.00    +0.008 C 
ENDBRANCH  13  20
ENDBRANCH  12  13
ENDBRANCH   5  12
TORSDOF 5
ENDMDL
MODEL 7
REMARK VINA RESULT:      -5.7      1.992      2.490
REMARK  Name = ZINC001228612316
REMARK  5 active torsions:
REMARK  status: ('A' for Active; 'I' for Inactive)
REMARK    1  A    between atoms: C_2  and  C_4
REMARK    2  A    between atoms: C_8  and  O_9
REMARK    3  A    between atoms: O_9  and  C_10
REMARK    4  A    between atoms: C_10  and  C_11
REMARK    5  A    between atoms: C_10  and  C_17
REMARK                            x       y       z     vdW  Elec       q    Type
REMARK                         _______ _______ _______ _____ _____    ______ ____
ROOT
ATOM      1  C   UNL     1      31.071  20.458  15.767  0.00  0.00    +0.040 A 
ATOM      2  C   UNL     1      30.103  20.723  16.739  0.00  0.00    +0.013 A 
ATOM      3  C   UNL     1      29.461  21.964  16.751  0.00  0.00    +0.004 A 
ATOM      4  C   UNL     1      29.780  22.929  15.790  0.00  0.00    +0.046 A 
ATOM      5  C   UNL     1      30.742  22.664  14.812  0.00  0.00    +0.122 A 
ATOM      6  C   UNL     1      31.402  21.440  14.828  0.00  0.00    +0.058 A 
ENDROOT
BRANCH   1   8
ATOM      7  N   UNL     1      32.975  19.147  14.996  0.00  0.00    -0.325 N 
ATOM      8  C   UNL     1      31.787  19.161  15.667  0.00  0.00    +0.242 C 
ATOM      9  O   UNL     1      31.367  18.151  16.220  0.00  0.00    -0.270 OA
ATOM     10  H   UNL     1      33.509  18.289  15.068  0.00  0.00    +0.145 HD
ATOM     11  H   UNL     1      33.479  19.994  14.776  0.00  0.00    +0.145 HD
ENDBRANCH   1   8
BRANCH   5  12
ATOM     12  O   UNL     1      30.975  23.667  13.912  0.00  0.00    -0.484 OA
BRANCH  12  13
ATOM     13  C   UNL     1      32.339  24.080  13.709  0.00  0.00    +0.208 C 
BRANCH  13  14
ATOM     14  C   UNL     1      32.580  24.268  12.226  0.00  0.00    +0.011 A 
ATOM     15  C   UNL     1      31.923  25.293  11.531  0.00  0.00    +0.010 A 
ATOM     16  C   UNL     1      32.138  25.463  10.170  0.00  0.00    +0.020 A 
ATOM     17  C   UNL     1      33.013  24.597   9.537  0.00  0.00    +0.111 A 
ATOM     18  N   UNL     1      33.663  23.594  10.165  0.00  0.00    -0.263 NA
ATOM     19  C   UNL     1      33.431  23.450  11.492  0.00  0.00    +0.118 A 
ENDBRANCH  13  14
BRANCH  13  20
ATOM     20  C   UNL     1      32.593  25.373  14.452  0.00  0.00    +0.034 C 
ATOM     21  C   UNL     1      33.967  26.008  14.516  0.00  0.00    +0.008 C 
ATOM     22  C   UNL     1      33.385  25.381  15.746  0.00  0.00    +0.008 C 
ENDBRANCH  13  20
ENDBRANCH  12  13
ENDBRANCH   5  12
TORSDOF 5
ENDMDL
MODEL 8
REMARK VINA RESULT:      -5.6      2.752      6.335
REMARK  Name = ZINC001228612316
REMARK  5 active torsions:
REMARK  status: ('A' for Active; 'I' for Inactive)
REMARK    1  A    between atoms: C_2  and  C_4
REMARK    2  A    between atoms: C_8  and  O_9
REMARK    3  A    between atoms: O_9  and  C_10
REMARK    4  A    between atoms: C_10  and  C_11
REMARK    5  A    between atoms: C_10  and  C_17
REMARK                            x       y       z     vdW  Elec       q    Type
REMARK                         _______ _______ _______ _____ _____    ______ ____
ROOT
ATOM      1  C   UNL     1      32.236  26.175  13.297  0.00  0.00    +0.040 A 
ATOM      2  C   UNL     1      33.361  26.992  13.160  0.00  0.00    +0.013 A 
ATOM      3  C   UNL     1      34.395  26.902  14.095  0.00  0.00    +0.004 A 
ATOM      4  C   UNL     1      34.307  25.992  15.154  0.00  0.00    +0.046 A 
ATOM      5  C   UNL     1      33.188  25.168  15.289  0.00  0.00    +0.122 A 
ATOM      6  C   UNL     1      32.146  25.289  14.375  0.00  0.00    +0.058 A 
ENDROOT
BRANCH   1   8
ATOM      7  N   UNL     1      29.853  26.416  12.846  0.00  0.00    -0.325 N 
ATOM      8  C   UNL     1      31.101  26.190  12.340  0.00  0.00    +0.242 C 
ATOM      9  O   UNL     1      31.275  26.070  11.134  0.00  0.00    -0.270 OA
ATOM     10  H   UNL     1      29.123  26.566  12.160  0.00  0.00    +0.145 HD
ATOM     11  H   UNL     1      29.707  26.790  13.772  0.00  0.00    +0.145 HD
ENDBRANCH   1   8
BRANCH   5  12
ATOM     12  O   UNL     1      33.201  24.305  16.350  0.00  0.00    -0.484 OA
BRANCH  12  13
ATOM     13  C   UNL     1      32.173  24.455  17.347  0.00  0.00    +0.208 C 
BRANCH  13  14
ATOM     14  C   UNL     1      31.118  23.391  17.128  0.00  0.00    +0.011 A 
ATOM     15  C   UNL     1      31.496  22.055  16.941  0.00  0.00    +0.010 A 
ATOM     16  C   UNL     1      30.529  21.078  16.734  0.00  0.00    +0.020 A 
ATOM     17  C   UNL     1      29.203  21.470  16.722  0.00  0.00    +0.111 A 
ATOM     18  N   UNL     1      28.793  22.745  16.893  0.00  0.00    -0.263 NA
ATOM     19  C   UNL     1      29.759  23.676  17.089  0.00  0.00    +0.118 A 
ENDBRANCH  13  14
BRANCH  13  20
ATOM     20  C   UNL     1      32.781  24.319  18.726  0.00  0.00    +0.034 C 
ATOM     21  C   UNL     1      31.932  24.303  19.980  0.00  0.00    +0.008 C 
ATOM     22  C   UNL     1      32.793  25.493  19.686  0.00  0.00    +0.008 C 
ENDBRANCH  13  20
ENDBRANCH  12  13
ENDBRANCH   5  12
TORSDOF 5
ENDMDL
MODEL 9
REMARK VINA RESULT:      -5.6      3.247      4.804
REMARK  Name = ZINC001228612316
REMARK  5 active torsions:
REMARK  status: ('A' for Active; 'I' for Inactive)
REMARK    1  A    between atoms: C_2  and  C_4
REMARK    2  A    between atoms: C_8  and  O_9
REMARK    3  A    between atoms: O_9  and  C_10
REMARK    4  A    between atoms: C_10  and  C_11
REMARK    5  A    between atoms: C_10  and  C_17
REMARK                            x       y       z     vdW  Elec       q    Type
REMARK                         _______ _______ _______ _____ _____    ______ ____
ROOT
ATOM      1  C   UNL     1      32.838  18.639  16.257  0.00  0.00    +0.040 A 
ATOM      2  C   UNL     1      33.009  17.805  15.150  0.00  0.00    +0.013 A 
ATOM      3  C   UNL     1      32.343  18.098  13.957  0.00  0.00    +0.004 A 
ATOM      4  C   UNL     1      31.520  19.226  13.872  0.00  0.00    +0.046 A 
ATOM      5  C   UNL     1      31.354  20.067  14.975  0.00  0.00    +0.122 A 
ATOM      6  C   UNL     1      31.991  19.748  16.169  0.00  0.00    +0.058 A 
ENDROOT
BRANCH   1   8
ATOM      7  N   UNL     1      34.343  17.329  17.656  0.00  0.00    -0.325 N 
ATOM      8  C   UNL     1      33.522  18.415  17.556  0.00  0.00    +0.242 C 
ATOM      9  O   UNL     1      33.410  19.204  18.487  0.00  0.00    -0.270 OA
ATOM     10  H   UNL     1      34.906  17.283  18.497  0.00  0.00    +0.145 HD
ATOM     11  H   UNL     1      34.673  16.827  16.845  0.00  0.00    +0.145 HD
ENDBRANCH   1   8
BRANCH   5  12
ATOM     12  O   UNL     1      30.538  21.148  14.787  0.00  0.00    -0.484 OA
BRANCH  12  13
ATOM     13  C   UNL     1      30.630  22.228  15.735  0.00  0.00    +0.208 C 
BRANCH  13  14
ATOM     14  C   UNL     1      31.266  23.424  15.057  0.00  0.00    +0.011 A 
ATOM     15  C   UNL     1      30.761  23.890  13.836  0.00  0.00    +0.010 A 
ATOM     16  C   UNL     1      31.347  24.983  13.209  0.00  0.00    +0.020 A 
ATOM     17  C   UNL     1      32.429  25.583  13.828  0.00  0.00    +0.111 A 
ATOM     18  N   UNL     1      32.951  25.165  15.002  0.00  0.00    -0.263 NA
ATOM     19  C   UNL     1      32.361  24.095  15.587  0.00  0.00    +0.118 A 
ENDBRANCH  13  14
BRANCH  13  20
ATOM     20  C   UNL     1      29.247  22.581  16.238  0.00  0.00    +0.034 C 
ATOM     21  C   UNL     1      28.997  23.013  17.668  0.00  0.00    +0.008 C 
ATOM     22  C   UNL     1      28.519  21.670  17.207  0.00  0.00    +0.008 C 
ENDBRANCH  13  20
ENDBRANCH  12  13
ENDBRANCH   5  12
TORSDOF 5
ENDMDL
