MODEL 1
REMARK VINA RESULT:      -7.2      0.000      0.000
REMARK  Name = ZINC000543478179
REMARK  8 active torsions:
REMARK  status: ('A' for Active; 'I' for Inactive)
REMARK    1  A    between atoms: C_1  and  C_2
REMARK    2  A    between atoms: C_2  and  N_3
REMARK    3  A    between atoms: N_9  and  C_10
REMARK    4  A    between atoms: C_10  and  C_11
REMARK    5  A    between atoms: C_10  and  C_12
REMARK    6  A    between atoms: C_15  and  O_16
REMARK    7  A    between atoms: O_16  and  C_17
REMARK    8  A    between atoms: C_17  and  C_18
REMARK                            x       y       z     vdW  Elec       q    Type
REMARK                         _______ _______ _______ _____ _____    ______ ____
ROOT
ATOM      1  C   UNL     1      30.087  21.918  14.863  0.00  0.00    +0.102 C 
ATOM      2  C   UNL     1      29.884  22.558  13.488  0.00  0.00    +0.033 C 
ENDROOT
BRANCH   1   9
ATOM      3  N   UNL     1      31.071  24.127  19.736  0.00  0.00    -0.299 N 
ATOM      4  C   UNL     1      29.740  23.594  20.022  0.00  0.00    +0.127 C 
ATOM      5  C   UNL     1      28.770  23.832  18.860  0.00  0.00    +0.129 C 
ATOM      6  N   UNL     1      29.298  23.244  17.626  0.00  0.00    -0.275 N 
ATOM      7  C   UNL     1      28.467  22.508  16.830  0.00  0.00    +0.303 C 
ATOM      8  O   UNL     1      27.287  22.312  17.137  0.00  0.00    -0.253 OA
ATOM      9  N   UNL     1      28.872  21.938  15.674  0.00  0.00    -0.293 N 
ATOM     10  C   UNL     1      30.700  23.535  17.367  0.00  0.00    +0.205 C 
ATOM     11  C   UNL     1      31.541  24.223  18.442  0.00  0.00    +0.233 C 
ATOM     12  O   UNL     1      32.636  24.712  18.152  0.00  0.00    -0.274 OA
ATOM     13  H   UNL     1      28.090  21.431  15.277  0.00  0.00    +0.151 HD
BRANCH   3  15
ATOM     14  C   UNL     1      31.718  23.652  22.048  0.00  0.00    +0.024 C 
ATOM     15  C   UNL     1      31.931  24.534  20.831  0.00  0.00    +0.104 C 
ENDBRANCH   3  15
ENDBRANCH   1   9
BRANCH   1  16
ATOM     16  C   UNL     1      30.621  20.501  14.762  0.00  0.00    -0.024 A 
ATOM     17  C   UNL     1      31.729  20.078  15.505  0.00  0.00    +0.009 A 
ATOM     18  C   UNL     1      32.219  18.777  15.382  0.00  0.00    +0.049 A 
ATOM     19  C   UNL     1      31.632  17.879  14.480  0.00  0.00    +0.156 A 
ATOM     20  C   UNL     1      30.506  18.288  13.770  0.00  0.00    +0.165 A 
ATOM     21  F   UNL     1      29.891  17.444  12.927  0.00  0.00    -0.202 F 
ATOM     22  C   UNL     1      30.007  19.583  13.893  0.00  0.00    +0.047 A 
BRANCH  19  23
ATOM     23  O   UNL     1      32.095  16.616  14.238  0.00  0.00    -0.489 OA
BRANCH  23  24
ATOM     24  C   UNL     1      33.208  16.542  13.348  0.00  0.00    +0.232 C 
BRANCH  24  25
ATOM     25  C   UNL     1      32.797  15.835  12.096  0.00  0.00    +0.027 C 
ATOM     26  C   UNL     1      32.062  14.522  12.200  0.00  0.00    +0.007 C 
ATOM     27  C   UNL     1      33.476  14.551  11.689  0.00  0.00    +0.007 C 
ENDBRANCH  24  25
ENDBRANCH  23  24
ENDBRANCH  19  23
ENDBRANCH   1  16
TORSDOF 6
ENDMDL
MODEL 2
REMARK VINA RESULT:      -6.7      4.144      8.484
REMARK  Name = ZINC000543478179
REMARK  8 active torsions:
REMARK  status: ('A' for Active; 'I' for Inactive)
REMARK    1  A    between atoms: C_1  and  C_2
REMARK    2  A    between atoms: C_2  and  N_3
REMARK    3  A    between atoms: N_9  and  C_10
REMARK    4  A    between atoms: C_10  and  C_11
REMARK    5  A    between atoms: C_10  and  C_12
REMARK    6  A    between atoms: C_15  and  O_16
REMARK    7  A    between atoms: O_16  and  C_17
REMARK    8  A    between atoms: C_17  and  C_18
REMARK                            x       y       z     vdW  Elec       q    Type
REMARK                         _______ _______ _______ _____ _____    ______ ____
ROOT
ATOM      1  C   UNL     1      30.154  22.653  15.040  0.00  0.00    +0.102 C 
ATOM      2  C   UNL     1      29.030  21.672  14.699  0.00  0.00    +0.033 C 
ENDROOT
BRANCH   1   9
ATOM      3  N   UNL     1      33.524  22.637  10.770  0.00  0.00    -0.299 N 
ATOM      4  C   UNL     1      33.161  24.053  10.734  0.00  0.00    +0.127 C 
ATOM      5  C   UNL     1      31.664  24.262  10.977  0.00  0.00    +0.129 C 
ATOM      6  N   UNL     1      31.266  23.669  12.257  0.00  0.00    -0.275 N 
ATOM      7  C   UNL     1      30.464  24.382  13.102  0.00  0.00    +0.303 C 
ATOM      8  O   UNL     1      30.084  25.523  12.821  0.00  0.00    -0.253 OA
ATOM      9  N   UNL     1      30.048  23.905  14.296  0.00  0.00    -0.293 N 
ATOM     10  C   UNL     1      31.775  22.325  12.486  0.00  0.00    +0.205 C 
ATOM     11  C   UNL     1      32.805  21.732  11.524  0.00  0.00    +0.233 C 
ATOM     12  O   UNL     1      33.046  20.522  11.545  0.00  0.00    -0.274 OA
ATOM     13  H   UNL     1      29.487  24.619  14.746  0.00  0.00    +0.151 HD
BRANCH   3  15
ATOM     14  C   UNL     1      34.351  22.017   8.552  0.00  0.00    +0.024 C 
ATOM     15  C   UNL     1      34.680  22.173  10.026  0.00  0.00    +0.104 C 
ENDBRANCH   3  15
ENDBRANCH   1   9
BRANCH   1  16
ATOM     16  C   UNL     1      30.232  22.938  16.529  0.00  0.00    -0.024 A 
ATOM     17  C   UNL     1      31.450  22.918  17.218  0.00  0.00    +0.009 A 
ATOM     18  C   UNL     1      31.500  23.162  18.591  0.00  0.00    +0.049 A 
ATOM     19  C   UNL     1      30.322  23.392  19.315  0.00  0.00    +0.156 A 
ATOM     20  C   UNL     1      29.115  23.450  18.623  0.00  0.00    +0.165 A 
ATOM     21  F   UNL     1      27.970  23.709  19.273  0.00  0.00    -0.202 F 
ATOM     22  C   UNL     1      29.059  23.215  17.250  0.00  0.00    +0.047 A 
BRANCH  19  23
ATOM     23  O   UNL     1      30.269  23.559  20.670  0.00  0.00    -0.489 OA
BRANCH  23  24
ATOM     24  C   UNL     1      31.344  22.959  21.394  0.00  0.00    +0.232 C 
BRANCH  24  25
ATOM     25  C   UNL     1      32.001  23.991  22.254  0.00  0.00    +0.027 C 
ATOM     26  C   UNL     1      32.473  25.279  21.628  0.00  0.00    +0.007 C 
ATOM     27  C   UNL     1      33.477  24.269  22.115  0.00  0.00    +0.007 C 
ENDBRANCH  24  25
ENDBRANCH  23  24
ENDBRANCH  19  23
ENDBRANCH   1  16
TORSDOF 6
ENDMDL
MODEL 3
REMARK VINA RESULT:      -6.4      3.370      6.217
REMARK  Name = ZINC000543478179
REMARK  8 active torsions:
REMARK  status: ('A' for Active; 'I' for Inactive)
REMARK    1  A    between atoms: C_1  and  C_2
REMARK    2  A    between atoms: C_2  and  N_3
REMARK    3  A    between atoms: N_9  and  C_10
REMARK    4  A    between atoms: C_10  and  C_11
REMARK    5  A    between atoms: C_10  and  C_12
REMARK    6  A    between atoms: C_15  and  O_16
REMARK    7  A    between atoms: O_16  and  C_17
REMARK    8  A    between atoms: C_17  and  C_18
REMARK                            x       y       z     vdW  Elec       q    Type
REMARK                         _______ _______ _______ _____ _____    ______ ____
ROOT
ATOM      1  C   UNL     1      31.381  24.039  20.147  0.00  0.00    +0.102 C 
ATOM      2  C   UNL     1      30.446  23.572  21.265  0.00  0.00    +0.033 C 
ENDROOT
BRANCH   1   9
ATOM      3  N   UNL     1      34.881  28.149  20.813  0.00  0.00    -0.299 N 
ATOM      4  C   UNL     1      35.860  27.082  20.612  0.00  0.00    +0.127 C 
ATOM      5  C   UNL     1      35.474  25.807  21.368  0.00  0.00    +0.129 C 
ATOM      6  N   UNL     1      34.140  25.355  20.960  0.00  0.00    -0.275 N 
ATOM      7  C   UNL     1      33.940  24.033  20.684  0.00  0.00    +0.303 C 
ATOM      8  O   UNL     1      34.862  23.213  20.751  0.00  0.00    -0.253 OA
ATOM      9  N   UNL     1      32.742  23.534  20.309  0.00  0.00    -0.293 N 
ATOM     10  C   UNL     1      33.135  26.405  20.910  0.00  0.00    +0.205 C 
ATOM     11  C   UNL     1      33.556  27.865  21.074  0.00  0.00    +0.233 C 
ATOM     12  O   UNL     1      32.707  28.733  21.299  0.00  0.00    -0.274 OA
ATOM     13  H   UNL     1      32.848  22.541  20.140  0.00  0.00    +0.151 HD
BRANCH   3  15
ATOM     14  C   UNL     1      36.177  29.746  19.487  0.00  0.00    +0.024 C 
ATOM     15  C   UNL     1      35.297  29.535  20.705  0.00  0.00    +0.104 C 
ENDBRANCH   3  15
ENDBRANCH   1   9
BRANCH   1  16
ATOM     16  C   UNL     1      30.853  23.675  18.771  0.00  0.00    -0.024 A 
ATOM     17  C   UNL     1      29.481  23.557  18.518  0.00  0.00    +0.009 A 
ATOM     18  C   UNL     1      29.014  23.202  17.252  0.00  0.00    +0.049 A 
ATOM     19  C   UNL     1      29.915  22.917  16.217  0.00  0.00    +0.156 A 
ATOM     20  C   UNL     1      31.278  23.072  16.458  0.00  0.00    +0.165 A 
ATOM     21  F   UNL     1      32.171  22.848  15.481  0.00  0.00    -0.202 F 
ATOM     22  C   UNL     1      31.751  23.434  17.718  0.00  0.00    +0.047 A 
BRANCH  19  23
ATOM     23  O   UNL     1      29.549  22.485  14.973  0.00  0.00    -0.489 OA
BRANCH  23  24
ATOM     24  C   UNL     1      29.207  21.101  14.891  0.00  0.00    +0.232 C 
BRANCH  24  25
ATOM     25  C   UNL     1      30.273  20.370  14.138  0.00  0.00    +0.027 C 
ATOM     26  C   UNL     1      30.219  18.865  14.059  0.00  0.00    +0.007 C 
ATOM     27  C   UNL     1      31.289  19.535  14.876  0.00  0.00    +0.007 C 
ENDBRANCH  24  25
ENDBRANCH  23  24
ENDBRANCH  19  23
ENDBRANCH   1  16
TORSDOF 6
ENDMDL
MODEL 4
REMARK VINA RESULT:      -6.4      4.098      8.374
REMARK  Name = ZINC000543478179
REMARK  8 active torsions:
REMARK  status: ('A' for Active; 'I' for Inactive)
REMARK    1  A    between atoms: C_1  and  C_2
REMARK    2  A    between atoms: C_2  and  N_3
REMARK    3  A    between atoms: N_9  and  C_10
REMARK    4  A    between atoms: C_10  and  C_11
REMARK    5  A    between atoms: C_10  and  C_12
REMARK    6  A    between atoms: C_15  and  O_16
REMARK    7  A    between atoms: O_16  and  C_17
REMARK    8  A    between atoms: C_17  and  C_18
REMARK                            x       y       z     vdW  Elec       q    Type
REMARK                         _______ _______ _______ _____ _____    ______ ____
ROOT
ATOM      1  C   UNL     1      30.235  22.406  15.026  0.00  0.00    +0.102 C 
ATOM      2  C   UNL     1      29.001  21.512  14.886  0.00  0.00    +0.033 C 
ENDROOT
BRANCH   1   9
ATOM      3  N   UNL     1      33.537  22.832  10.724  0.00  0.00    -0.299 N 
ATOM      4  C   UNL     1      33.113  24.230  10.792  0.00  0.00    +0.127 C 
ATOM      5  C   UNL     1      31.612  24.357  11.067  0.00  0.00    +0.129 C 
ATOM      6  N   UNL     1      31.260  23.659  12.308  0.00  0.00    -0.275 N 
ATOM      7  C   UNL     1      30.441  24.276  13.210  0.00  0.00    +0.303 C 
ATOM      8  O   UNL     1      30.009  25.417  13.014  0.00  0.00    -0.253 OA
ATOM      9  N   UNL     1      30.064  23.701  14.373  0.00  0.00    -0.293 N 
ATOM     10  C   UNL     1      31.829  22.326  12.435  0.00  0.00    +0.205 C 
ATOM     11  C   UNL     1      32.868  21.847  11.422  0.00  0.00    +0.233 C 
ATOM     12  O   UNL     1      33.160  20.650  11.355  0.00  0.00    -0.274 OA
ATOM     13  H   UNL     1      29.481  24.356  14.879  0.00  0.00    +0.151 HD
BRANCH   3  15
ATOM     14  C   UNL     1      34.749  23.268   8.644  0.00  0.00    +0.024 C 
ATOM     15  C   UNL     1      34.699  22.472   9.935  0.00  0.00    +0.104 C 
ENDBRANCH   3  15
ENDBRANCH   1   9
BRANCH   1  16
ATOM     16  C   UNL     1      30.636  22.604  16.476  0.00  0.00    -0.024 A 
ATOM     17  C   UNL     1      29.772  23.199  17.403  0.00  0.00    +0.009 A 
ATOM     18  C   UNL     1      30.165  23.391  18.728  0.00  0.00    +0.049 A 
ATOM     19  C   UNL     1      31.453  23.029  19.147  0.00  0.00    +0.156 A 
ATOM     20  C   UNL     1      32.298  22.402  18.235  0.00  0.00    +0.165 A 
ATOM     21  F   UNL     1      33.525  22.003  18.607  0.00  0.00    -0.202 F 
ATOM     22  C   UNL     1      31.909  22.200  16.912  0.00  0.00    +0.047 A 
BRANCH  19  23
ATOM     23  O   UNL     1      31.949  23.254  20.400  0.00  0.00    -0.489 OA
BRANCH  23  24
ATOM     24  C   UNL     1      31.980  24.624  20.799  0.00  0.00    +0.232 C 
BRANCH  24  25
ATOM     25  C   UNL     1      33.139  25.305  20.141  0.00  0.00    +0.027 C 
ATOM     26  C   UNL     1      33.352  26.781  20.369  0.00  0.00    +0.007 C 
ATOM     27  C   UNL     1      32.908  26.287  19.020  0.00  0.00    +0.007 C 
ENDBRANCH  24  25
ENDBRANCH  23  24
ENDBRANCH  19  23
ENDBRANCH   1  16
TORSDOF 6
ENDMDL
MODEL 5
REMARK VINA RESULT:      -6.3      4.521      7.853
REMARK  Name = ZINC000543478179
REMARK  8 active torsions:
REMARK  status: ('A' for Active; 'I' for Inactive)
REMARK    1  A    between atoms: C_1  and  C_2
REMARK    2  A    between atoms: C_2  and  N_3
REMARK    3  A    between atoms: N_9  and  C_10
REMARK    4  A    between atoms: C_10  and  C_11
REMARK    5  A    between atoms: C_10  and  C_12
REMARK    6  A    between atoms: C_15  and  O_16
REMARK    7  A    between atoms: O_16  and  C_17
REMARK    8  A    between atoms: C_17  and  C_18
REMARK                            x       y       z     vdW  Elec       q    Type
REMARK                         _______ _______ _______ _____ _____    ______ ____
ROOT
ATOM      1  C   UNL     1      32.945  24.373  21.494  0.00  0.00    +0.102 C 
ATOM      2  C   UNL     1      34.363  24.014  21.046  0.00  0.00    +0.033 C 
ENDROOT
BRANCH   1   9
ATOM      3  N   UNL     1      32.710  24.962  26.897  0.00  0.00    -0.299 N 
ATOM      4  C   UNL     1      32.323  26.323  26.529  0.00  0.00    +0.127 C 
ATOM      5  C   UNL     1      33.177  26.867  25.380  0.00  0.00    +0.129 C 
ATOM      6  N   UNL     1      33.088  25.981  24.215  0.00  0.00    -0.275 N 
ATOM      7  C   UNL     1      32.897  26.526  22.977  0.00  0.00    +0.303 C 
ATOM      8  O   UNL     1      32.777  27.746  22.820  0.00  0.00    -0.253 OA
ATOM      9  N   UNL     1      32.811  25.782  21.852  0.00  0.00    -0.293 N 
ATOM     10  C   UNL     1      33.238  24.566  24.517  0.00  0.00    +0.205 C 
ATOM     11  C   UNL     1      33.268  24.102  25.973  0.00  0.00    +0.233 C 
ATOM     12  O   UNL     1      33.654  22.964  26.251  0.00  0.00    -0.274 OA
ATOM     13  H   UNL     1      32.648  26.404  21.070  0.00  0.00    +0.151 HD
BRANCH   3  15
ATOM     14  C   UNL     1      30.993  24.329  28.522  0.00  0.00    +0.024 C 
ATOM     15  C   UNL     1      32.477  24.490  28.249  0.00  0.00    +0.104 C 
ENDBRANCH   3  15
ENDBRANCH   1   9
BRANCH   1  16
ATOM     16  C   UNL     1      31.905  24.000  20.453  0.00  0.00    -0.024 A 
ATOM     17  C   UNL     1      32.248  23.801  19.111  0.00  0.00    +0.009 A 
ATOM     18  C   UNL     1      31.274  23.479  18.163  0.00  0.00    +0.049 A 
ATOM     19  C   UNL     1      29.926  23.389  18.533  0.00  0.00    +0.156 A 
ATOM     20  C   UNL     1      29.590  23.549  19.875  0.00  0.00    +0.165 A 
ATOM     21  F   UNL     1      28.314  23.430  20.276  0.00  0.00    -0.202 F 
ATOM     22  C   UNL     1      30.558  23.863  20.828  0.00  0.00    +0.047 A 
BRANCH  19  23
ATOM     23  O   UNL     1      28.900  23.159  17.660  0.00  0.00    -0.489 OA
BRANCH  23  24
ATOM     24  C   UNL     1      29.283  23.087  16.286  0.00  0.00    +0.232 C 
BRANCH  24  25
ATOM     25  C   UNL     1      29.094  21.689  15.791  0.00  0.00    +0.027 C 
ATOM     26  C   UNL     1      30.264  20.960  15.179  0.00  0.00    +0.007 C 
ATOM     27  C   UNL     1      29.115  21.396  14.311  0.00  0.00    +0.007 C 
ENDBRANCH  24  25
ENDBRANCH  23  24
ENDBRANCH  19  23
ENDBRANCH   1  16
TORSDOF 6
ENDMDL
MODEL 6
REMARK VINA RESULT:      -6.3      4.330      6.575
REMARK  Name = ZINC000543478179
REMARK  8 active torsions:
REMARK  status: ('A' for Active; 'I' for Inactive)
REMARK    1  A    between atoms: C_1  and  C_2
REMARK    2  A    between atoms: C_2  and  N_3
REMARK    3  A    between atoms: N_9  and  C_10
REMARK    4  A    between atoms: C_10  and  C_11
REMARK    5  A    between atoms: C_10  and  C_12
REMARK    6  A    between atoms: C_15  and  O_16
REMARK    7  A    between atoms: O_16  and  C_17
REMARK    8  A    between atoms: C_17  and  C_18
REMARK                            x       y       z     vdW  Elec       q    Type
REMARK                         _______ _______ _______ _____ _____    ______ ____
ROOT
ATOM      1  C   UNL     1      31.828  23.495  19.828  0.00  0.00    +0.102 C 
ATOM      2  C   UNL     1      31.026  22.946  21.010  0.00  0.00    +0.033 C 
ENDROOT
BRANCH   1   9
ATOM      3  N   UNL     1      34.828  27.837  21.145  0.00  0.00    -0.299 N 
ATOM      4  C   UNL     1      35.922  26.943  20.768  0.00  0.00    +0.127 C 
ATOM      5  C   UNL     1      35.709  25.525  21.306  0.00  0.00    +0.129 C 
ATOM      6  N   UNL     1      34.430  24.987  20.834  0.00  0.00    -0.275 N 
ATOM      7  C   UNL     1      34.382  23.712  20.346  0.00  0.00    +0.303 C 
ATOM      8  O   UNL     1      35.396  23.011  20.274  0.00  0.00    -0.253 OA
ATOM      9  N   UNL     1      33.243  23.140  19.899  0.00  0.00    -0.293 N 
ATOM     10  C   UNL     1      33.305  25.901  20.962  0.00  0.00    +0.205 C 
ATOM     11  C   UNL     1      33.553  27.356  21.362  0.00  0.00    +0.233 C 
ATOM     12  O   UNL     1      32.613  28.065  21.729  0.00  0.00    -0.274 OA
ATOM     13  H   UNL     1      33.462  22.208  19.569  0.00  0.00    +0.151 HD
BRANCH   3  15
ATOM     14  C   UNL     1      35.992  29.750  20.160  0.00  0.00    +0.024 C 
ATOM     15  C   UNL     1      35.074  29.262  21.265  0.00  0.00    +0.104 C 
ENDBRANCH   3  15
ENDBRANCH   1   9
BRANCH   1  16
ATOM     16  C   UNL     1      31.249  23.059  18.494  0.00  0.00    -0.024 A 
ATOM     17  C   UNL     1      32.041  22.451  17.513  0.00  0.00    +0.009 A 
ATOM     18  C   UNL     1      31.496  22.075  16.284  0.00  0.00    +0.049 A 
ATOM     19  C   UNL     1      30.151  22.340  15.993  0.00  0.00    +0.156 A 
ATOM     20  C   UNL     1      29.354  22.910  16.983  0.00  0.00    +0.165 A 
ATOM     21  F   UNL     1      28.051  23.141  16.758  0.00  0.00    -0.202 F 
ATOM     22  C   UNL     1      29.890  23.280  18.215  0.00  0.00    +0.047 A 
BRANCH  19  23
ATOM     23  O   UNL     1      29.556  22.080  14.790  0.00  0.00    -0.489 OA
BRANCH  23  24
ATOM     24  C   UNL     1      30.390  22.286  13.649  0.00  0.00    +0.232 C 
BRANCH  24  25
ATOM     25  C   UNL     1      30.249  23.700  13.181  0.00  0.00    +0.027 C 
ATOM     26  C   UNL     1      30.975  24.138  11.934  0.00  0.00    +0.007 C 
ATOM     27  C   UNL     1      31.414  24.653  13.277  0.00  0.00    +0.007 C 
ENDBRANCH  24  25
ENDBRANCH  23  24
ENDBRANCH  19  23
ENDBRANCH   1  16
TORSDOF 6
ENDMDL
MODEL 7
REMARK VINA RESULT:      -6.2      3.874      8.110
REMARK  Name = ZINC000543478179
REMARK  8 active torsions:
REMARK  status: ('A' for Active; 'I' for Inactive)
REMARK    1  A    between atoms: C_1  and  C_2
REMARK    2  A    between atoms: C_2  and  N_3
REMARK    3  A    between atoms: N_9  and  C_10
REMARK    4  A    between atoms: C_10  and  C_11
REMARK    5  A    between atoms: C_10  and  C_12
REMARK    6  A    between atoms: C_15  and  O_16
REMARK    7  A    between atoms: O_16  and  C_17
REMARK    8  A    between atoms: C_17  and  C_18
REMARK                            x       y       z     vdW  Elec       q    Type
REMARK                         _______ _______ _______ _____ _____    ______ ____
ROOT
ATOM      1  C   UNL     1      31.687  21.619  15.381  0.00  0.00    +0.102 C 
ATOM      2  C   UNL     1      31.792  20.094  15.455  0.00  0.00    +0.033 C 
ENDROOT
BRANCH   1   9
ATOM      3  N   UNL     1      33.550  25.353  11.892  0.00  0.00    -0.299 N 
ATOM      4  C   UNL     1      32.123  25.514  11.616  0.00  0.00    +0.127 C 
ATOM      5  C   UNL     1      31.404  24.164  11.532  0.00  0.00    +0.129 C 
ATOM      6  N   UNL     1      31.599  23.405  12.771  0.00  0.00    -0.275 N 
ATOM      7  C   UNL     1      30.527  22.787  13.350  0.00  0.00    +0.303 C 
ATOM      8  O   UNL     1      29.394  22.873  12.864  0.00  0.00    -0.253 OA
ATOM      9  N   UNL     1      30.621  22.063  14.486  0.00  0.00    -0.293 N 
ATOM     10  C   UNL     1      32.971  23.376  13.255  0.00  0.00    +0.205 C 
ATOM     11  C   UNL     1      34.025  24.263  12.593  0.00  0.00    +0.233 C 
ATOM     12  O   UNL     1      35.224  24.063  12.805  0.00  0.00    -0.274 OA
ATOM     13  H   UNL     1      29.697  21.727  14.728  0.00  0.00    +0.151 HD
BRANCH   3  15
ATOM     14  C   UNL     1      34.861  26.169   9.994  0.00  0.00    +0.024 C 
ATOM     15  C   UNL     1      34.486  26.370  11.451  0.00  0.00    +0.104 C 
ENDBRANCH   3  15
ENDBRANCH   1   9
BRANCH   1  16
ATOM     16  C   UNL     1      31.509  22.247  16.752  0.00  0.00    -0.024 A 
ATOM     17  C   UNL     1      32.453  22.066  17.770  0.00  0.00    +0.009 A 
ATOM     18  C   UNL     1      32.263  22.634  19.031  0.00  0.00    +0.049 A 
ATOM     19  C   UNL     1      31.100  23.364  19.313  0.00  0.00    +0.156 A 
ATOM     20  C   UNL     1      30.181  23.576  18.289  0.00  0.00    +0.165 A 
ATOM     21  F   UNL     1      29.075  24.304  18.508  0.00  0.00    -0.202 F 
ATOM     22  C   UNL     1      30.368  23.018  17.026  0.00  0.00    +0.047 A 
BRANCH  19  23
ATOM     23  O   UNL     1      30.795  23.885  20.539  0.00  0.00    -0.489 OA
BRANCH  23  24
ATOM     24  C   UNL     1      31.381  23.202  21.647  0.00  0.00    +0.232 C 
BRANCH  24  25
ATOM     25  C   UNL     1      32.196  24.166  22.451  0.00  0.00    +0.027 C 
ATOM     26  C   UNL     1      32.703  25.426  21.796  0.00  0.00    +0.007 C 
ATOM     27  C   UNL     1      33.668  24.335  22.171  0.00  0.00    +0.007 C 
ENDBRANCH  24  25
ENDBRANCH  23  24
ENDBRANCH  19  23
ENDBRANCH   1  16
TORSDOF 6
ENDMDL
MODEL 8
REMARK VINA RESULT:      -6.2      4.900      7.786
REMARK  Name = ZINC000543478179
REMARK  8 active torsions:
REMARK  status: ('A' for Active; 'I' for Inactive)
REMARK    1  A    between atoms: C_1  and  C_2
REMARK    2  A    between atoms: C_2  and  N_3
REMARK    3  A    between atoms: N_9  and  C_10
REMARK    4  A    between atoms: C_10  and  C_11
REMARK    5  A    between atoms: C_10  and  C_12
REMARK    6  A    between atoms: C_15  and  O_16
REMARK    7  A    between atoms: O_16  and  C_17
REMARK    8  A    between atoms: C_17  and  C_18
REMARK                            x       y       z     vdW  Elec       q    Type
REMARK                         _______ _______ _______ _____ _____    ______ ____
ROOT
ATOM      1  C   UNL     1      31.568  24.871  12.062  0.00  0.00    +0.102 C 
ATOM      2  C   UNL     1      30.592  26.004  12.386  0.00  0.00    +0.033 C 
ENDROOT
BRANCH   1   9
ATOM      3  N   UNL     1      34.479  21.722   8.715  0.00  0.00    -0.299 N 
ATOM      4  C   UNL     1      35.591  22.452   9.323  0.00  0.00    +0.127 C 
ATOM      5  C   UNL     1      35.280  23.945   9.467  0.00  0.00    +0.129 C 
ATOM      6  N   UNL     1      34.057  24.138  10.252  0.00  0.00    -0.275 N 
ATOM      7  C   UNL     1      34.041  25.081  11.240  0.00  0.00    +0.303 C 
ATOM      8  O   UNL     1      35.040  25.759  11.500  0.00  0.00    -0.253 OA
ATOM      9  N   UNL     1      32.954  25.326  12.004  0.00  0.00    -0.293 N 
ATOM     10  C   UNL     1      32.947  23.282   9.863  0.00  0.00    +0.205 C 
ATOM     11  C   UNL     1      33.176  22.155   8.857  0.00  0.00    +0.233 C 
ATOM     12  O   UNL     1      32.214  21.598   8.321  0.00  0.00    -0.274 OA
ATOM     13  H   UNL     1      33.191  26.046  12.675  0.00  0.00    +0.151 HD
BRANCH   3  15
ATOM     14  C   UNL     1      35.073  19.357   8.912  0.00  0.00    +0.024 C 
ATOM     15  C   UNL     1      34.741  20.503   7.974  0.00  0.00    +0.104 C 
ENDBRANCH   3  15
ENDBRANCH   1   9
BRANCH   1  16
ATOM     16  C   UNL     1      31.441  23.712  13.034  0.00  0.00    -0.024 A 
ATOM     17  C   UNL     1      32.486  23.360  13.897  0.00  0.00    +0.009 A 
ATOM     18  C   UNL     1      32.359  22.279  14.771  0.00  0.00    +0.049 A 
ATOM     19  C   UNL     1      31.195  21.498  14.770  0.00  0.00    +0.156 A 
ATOM     20  C   UNL     1      30.142  21.872  13.939  0.00  0.00    +0.165 A 
ATOM     21  F   UNL     1      28.995  21.174  13.940  0.00  0.00    -0.202 F 
ATOM     22  C   UNL     1      30.259  22.955  13.070  0.00  0.00    +0.047 A 
BRANCH  19  23
ATOM     23  O   UNL     1      31.018  20.377  15.532  0.00  0.00    -0.489 OA
BRANCH  23  24
ATOM     24  C   UNL     1      31.710  19.218  15.068  0.00  0.00    +0.232 C 
BRANCH  24  25
ATOM     25  C   UNL     1      30.721  18.232  14.530  0.00  0.00    +0.027 C 
ATOM     26  C   UNL     1      31.216  17.056  13.727  0.00  0.00    +0.007 C 
ATOM     27  C   UNL     1      30.449  18.158  13.049  0.00  0.00    +0.007 C 
ENDBRANCH  24  25
ENDBRANCH  23  24
ENDBRANCH  19  23
ENDBRANCH   1  16
TORSDOF 6
ENDMDL
MODEL 9
REMARK VINA RESULT:      -6.2     18.061     19.346
REMARK  Name = ZINC000543478179
REMARK  8 active torsions:
REMARK  status: ('A' for Active; 'I' for Inactive)
REMARK    1  A    between atoms: C_1  and  C_2
REMARK    2  A    between atoms: C_2  and  N_3
REMARK    3  A    between atoms: N_9  and  C_10
REMARK    4  A    between atoms: C_10  and  C_11
REMARK    5  A    between atoms: C_10  and  C_12
REMARK    6  A    between atoms: C_15  and  O_16
REMARK    7  A    between atoms: O_16  and  C_17
REMARK    8  A    between atoms: C_17  and  C_18
REMARK                            x       y       z     vdW  Elec       q    Type
REMARK                         _______ _______ _______ _____ _____    ______ ____
ROOT
ATOM      1  C   UNL     1      25.130   4.604  25.228  0.00  0.00    +0.102 C 
ATOM      2  C   UNL     1      24.065   4.157  24.224  0.00  0.00    +0.033 C 
ENDROOT
BRANCH   1   9
ATOM      3  N   UNL     1      24.802   6.074  30.455  0.00  0.00    -0.299 N 
ATOM      4  C   UNL     1      25.569   4.843  30.639  0.00  0.00    +0.127 C 
ATOM      5  C   UNL     1      25.040   3.705  29.761  0.00  0.00    +0.129 C 
ATOM      6  N   UNL     1      25.050   4.103  28.350  0.00  0.00    -0.275 N 
ATOM      7  C   UNL     1      25.533   3.231  27.416  0.00  0.00    +0.303 C 
ATOM      8  O   UNL     1      25.981   2.126  27.736  0.00  0.00    -0.253 OA
ATOM      9  N   UNL     1      25.572   3.517  26.096  0.00  0.00    -0.293 N 
ATOM     10  C   UNL     1      24.504   5.426  28.090  0.00  0.00    +0.205 C 
ATOM     11  C   UNL     1      24.167   6.350  29.260  0.00  0.00    +0.233 C 
ATOM     12  O   UNL     1      23.469   7.350  29.077  0.00  0.00    -0.274 OA
ATOM     13  H   UNL     1      25.989   2.731  25.612  0.00  0.00    +0.151 HD
BRANCH   3  15
ATOM     14  C   UNL     1      23.655   6.658  32.536  0.00  0.00    +0.024 C 
ATOM     15  C   UNL     1      24.727   7.042  31.532  0.00  0.00    +0.104 C 
ENDBRANCH   3  15
ENDBRANCH   1   9
BRANCH   1  16
ATOM     16  C   UNL     1      26.325   5.243  24.545  0.00  0.00    -0.024 A 
ATOM     17  C   UNL     1      26.633   4.982  23.204  0.00  0.00    +0.009 A 
ATOM     18  C   UNL     1      27.748   5.562  22.599  0.00  0.00    +0.049 A 
ATOM     19  C   UNL     1      28.607   6.388  23.337  0.00  0.00    +0.156 A 
ATOM     20  C   UNL     1      28.280   6.679  24.659  0.00  0.00    +0.165 A 
ATOM     21  F   UNL     1      29.055   7.499  25.387  0.00  0.00    -0.202 F 
ATOM     22  C   UNL     1      27.163   6.109  25.267  0.00  0.00    +0.047 A 
BRANCH  19  23
ATOM     23  O   UNL     1      29.762   6.932  22.849  0.00  0.00    -0.489 OA
BRANCH  23  24
ATOM     24  C   UNL     1      30.953   6.221  23.186  0.00  0.00    +0.232 C 
BRANCH  24  25
ATOM     25  C   UNL     1      32.093   7.183  23.290  0.00  0.00    +0.027 C 
ATOM     26  C   UNL     1      33.419   6.825  22.667  0.00  0.00    +0.007 C 
ATOM     27  C   UNL     1      33.281   6.865  24.164  0.00  0.00    +0.007 C 
ENDBRANCH  24  25
ENDBRANCH  23  24
ENDBRANCH  19  23
ENDBRANCH   1  16
TORSDOF 6
ENDMDL
