MODEL 1
REMARK VINA RESULT:      -6.2      0.000      0.000
REMARK  Name = ZINC001228612316
REMARK  5 active torsions:
REMARK  status: ('A' for Active; 'I' for Inactive)
REMARK    1  A    between atoms: C_2  and  C_4
REMARK    2  A    between atoms: C_8  and  O_9
REMARK    3  A    between atoms: O_9  and  C_10
REMARK    4  A    between atoms: C_10  and  C_11
REMARK    5  A    between atoms: C_10  and  C_17
REMARK                            x       y       z     vdW  Elec       q    Type
REMARK                         _______ _______ _______ _____ _____    ______ ____
ROOT
ATOM      1  C   UNL     1      29.708  18.015  14.917  0.00  0.00    +0.040 A 
ATOM      2  C   UNL     1      30.588  17.271  14.126  0.00  0.00    +0.013 A 
ATOM      3  C   UNL     1      31.408  17.927  13.204  0.00  0.00    +0.004 A 
ATOM      4  C   UNL     1      31.355  19.319  13.083  0.00  0.00    +0.046 A 
ATOM      5  C   UNL     1      30.483  20.067  13.878  0.00  0.00    +0.122 A 
ATOM      6  C   UNL     1      29.643  19.404  14.768  0.00  0.00    +0.058 A 
ENDROOT
BRANCH   1   8
ATOM      7  N   UNL     1      28.693  16.044  15.929  0.00  0.00    -0.325 N 
ATOM      8  C   UNL     1      28.817  17.404  15.934  0.00  0.00    +0.242 C 
ATOM      9  O   UNL     1      28.261  18.080  16.792  0.00  0.00    -0.270 OA
ATOM     10  H   UNL     1      28.200  15.647  16.719  0.00  0.00    +0.145 HD
ATOM     11  H   UNL     1      29.338  15.447  15.432  0.00  0.00    +0.145 HD
ENDBRANCH   1   8
BRANCH   5  12
ATOM     12  O   UNL     1      30.512  21.421  13.692  0.00  0.00    -0.484 OA
BRANCH  12  13
ATOM     13  C   UNL     1      31.794  22.075  13.744  0.00  0.00    +0.208 C 
BRANCH  13  14
ATOM     14  C   UNL     1      31.791  23.239  12.774  0.00  0.00    +0.011 A 
ATOM     15  C   UNL     1      30.848  24.267  12.912  0.00  0.00    +0.010 A 
ATOM     16  C   UNL     1      30.840  25.331  12.019  0.00  0.00    +0.020 A 
ATOM     17  C   UNL     1      31.783  25.337  11.007  0.00  0.00    +0.111 A 
ATOM     18  N   UNL     1      32.706  24.367  10.833  0.00  0.00    -0.263 NA
ATOM     19  C   UNL     1      32.687  23.339  11.717  0.00  0.00    +0.118 A 
ENDBRANCH  13  14
BRANCH  13  20
ATOM     20  C   UNL     1      32.057  22.564  15.151  0.00  0.00    +0.034 C 
ATOM     21  C   UNL     1      33.351  23.251  15.535  0.00  0.00    +0.008 C 
ATOM     22  C   UNL     1      33.073  21.867  16.036  0.00  0.00    +0.008 C 
ENDBRANCH  13  20
ENDBRANCH  12  13
ENDBRANCH   5  12
TORSDOF 5
ENDMDL
MODEL 2
REMARK VINA RESULT:      -6.0      2.048      2.784
REMARK  Name = ZINC001228612316
REMARK  5 active torsions:
REMARK  status: ('A' for Active; 'I' for Inactive)
REMARK    1  A    between atoms: C_2  and  C_4
REMARK    2  A    between atoms: C_8  and  O_9
REMARK    3  A    between atoms: O_9  and  C_10
REMARK    4  A    between atoms: C_10  and  C_11
REMARK    5  A    between atoms: C_10  and  C_17
REMARK                            x       y       z     vdW  Elec       q    Type
REMARK                         _______ _______ _______ _____ _____    ______ ____
ROOT
ATOM      1  C   UNL     1      29.592  17.624  14.935  0.00  0.00    +0.040 A 
ATOM      2  C   UNL     1      30.486  16.993  14.065  0.00  0.00    +0.013 A 
ATOM      3  C   UNL     1      31.293  17.766  13.227  0.00  0.00    +0.004 A 
ATOM      4  C   UNL     1      31.212  19.162  13.266  0.00  0.00    +0.046 A 
ATOM      5  C   UNL     1      30.325  19.796  14.141  0.00  0.00    +0.122 A 
ATOM      6  C   UNL     1      29.499  19.019  14.946  0.00  0.00    +0.058 A 
ENDROOT
BRANCH   1   8
ATOM      7  N   UNL     1      28.236  17.559  16.959  0.00  0.00    -0.325 N 
ATOM      8  C   UNL     1      28.713  16.882  15.874  0.00  0.00    +0.242 C 
ATOM      9  O   UNL     1      28.371  15.726  15.657  0.00  0.00    -0.270 OA
ATOM     10  H   UNL     1      27.528  17.077  17.499  0.00  0.00    +0.145 HD
ATOM     11  H   UNL     1      28.266  18.566  17.021  0.00  0.00    +0.145 HD
ENDBRANCH   1   8
BRANCH   5  12
ATOM     12  O   UNL     1      30.328  21.163  14.112  0.00  0.00    -0.484 OA
BRANCH  12  13
ATOM     13  C   UNL     1      30.576  21.858  15.348  0.00  0.00    +0.208 C 
BRANCH  13  14
ATOM     14  C   UNL     1      31.756  22.788  15.161  0.00  0.00    +0.011 A 
ATOM     15  C   UNL     1      32.026  23.337  13.900  0.00  0.00    +0.010 A 
ATOM     16  C   UNL     1      33.112  24.185  13.725  0.00  0.00    +0.020 A 
ATOM     17  C   UNL     1      33.902  24.464  14.825  0.00  0.00    +0.111 A 
ATOM     18  N   UNL     1      33.683  23.955  16.057  0.00  0.00    -0.263 NA
ATOM     19  C   UNL     1      32.619  23.128  16.196  0.00  0.00    +0.118 A 
ENDBRANCH  13  14
BRANCH  13  20
ATOM     20  C   UNL     1      29.345  22.642  15.745  0.00  0.00    +0.034 C 
ATOM     21  C   UNL     1      29.083  23.059  17.177  0.00  0.00    +0.008 C 
ATOM     22  C   UNL     1      28.238  21.992  16.552  0.00  0.00    +0.008 C 
ENDBRANCH  13  20
ENDBRANCH  12  13
ENDBRANCH   5  12
TORSDOF 5
ENDMDL
MODEL 3
REMARK VINA RESULT:      -6.0      2.108      3.196
REMARK  Name = ZINC001228612316
REMARK  5 active torsions:
REMARK  status: ('A' for Active; 'I' for Inactive)
REMARK    1  A    between atoms: C_2  and  C_4
REMARK    2  A    between atoms: C_8  and  O_9
REMARK    3  A    between atoms: O_9  and  C_10
REMARK    4  A    between atoms: C_10  and  C_11
REMARK    5  A    between atoms: C_10  and  C_17
REMARK                            x       y       z     vdW  Elec       q    Type
REMARK                         _______ _______ _______ _____ _____    ______ ____
ROOT
ATOM      1  C   UNL     1      29.780  17.368  14.862  0.00  0.00    +0.040 A 
ATOM      2  C   UNL     1      30.127  16.592  13.753  0.00  0.00    +0.013 A 
ATOM      3  C   UNL     1      31.131  17.036  12.889  0.00  0.00    +0.004 A 
ATOM      4  C   UNL     1      31.790  18.244  13.140  0.00  0.00    +0.046 A 
ATOM      5  C   UNL     1      31.451  19.018  14.253  0.00  0.00    +0.122 A 
ATOM      6  C   UNL     1      30.426  18.587  15.089  0.00  0.00    +0.058 A 
ENDROOT
BRANCH   1   8
ATOM      7  N   UNL     1      28.392  15.644  15.882  0.00  0.00    -0.325 N 
ATOM      8  C   UNL     1      28.741  16.963  15.842  0.00  0.00    +0.242 C 
ATOM      9  O   UNL     1      28.257  17.763  16.634  0.00  0.00    -0.270 OA
ATOM     10  H   UNL     1      27.794  15.372  16.653  0.00  0.00    +0.145 HD
ATOM     11  H   UNL     1      28.956  14.924  15.453  0.00  0.00    +0.145 HD
ENDBRANCH   1   8
BRANCH   5  12
ATOM     12  O   UNL     1      32.160  20.176  14.418  0.00  0.00    -0.484 OA
BRANCH  12  13
ATOM     13  C   UNL     1      31.566  21.397  13.939  0.00  0.00    +0.208 C 
BRANCH  13  14
ATOM     14  C   UNL     1      30.858  22.082  15.088  0.00  0.00    +0.011 A 
ATOM     15  C   UNL     1      29.462  22.012  15.197  0.00  0.00    +0.010 A 
ATOM     16  C   UNL     1      28.810  22.645  16.247  0.00  0.00    +0.020 A 
ATOM     17  C   UNL     1      29.579  23.335  17.167  0.00  0.00    +0.111 A 
ATOM     18  N   UNL     1      30.924  23.433  17.101  0.00  0.00    -0.263 NA
ATOM     19  C   UNL     1      31.532  22.808  16.063  0.00  0.00    +0.118 A 
ENDBRANCH  13  14
BRANCH  13  20
ATOM     20  C   UNL     1      32.643  22.296  13.373  0.00  0.00    +0.034 C 
ATOM     21  C   UNL     1      32.327  23.423  12.412  0.00  0.00    +0.008 C 
ATOM     22  C   UNL     1      33.040  22.205  11.913  0.00  0.00    +0.008 C 
ENDBRANCH  13  20
ENDBRANCH  12  13
ENDBRANCH   5  12
TORSDOF 5
ENDMDL
MODEL 4
REMARK VINA RESULT:      -6.0      2.635      3.850
REMARK  Name = ZINC001228612316
REMARK  5 active torsions:
REMARK  status: ('A' for Active; 'I' for Inactive)
REMARK    1  A    between atoms: C_2  and  C_4
REMARK    2  A    between atoms: C_8  and  O_9
REMARK    3  A    between atoms: O_9  and  C_10
REMARK    4  A    between atoms: C_10  and  C_11
REMARK    5  A    between atoms: C_10  and  C_17
REMARK                            x       y       z     vdW  Elec       q    Type
REMARK                         _______ _______ _______ _____ _____    ______ ____
ROOT
ATOM      1  C   UNL     1      30.497  17.608  13.943  0.00  0.00    +0.040 A 
ATOM      2  C   UNL     1      31.344  17.281  12.881  0.00  0.00    +0.013 A 
ATOM      3  C   UNL     1      32.256  18.229  12.410  0.00  0.00    +0.004 A 
ATOM      4  C   UNL     1      32.326  19.493  13.006  0.00  0.00    +0.046 A 
ATOM      5  C   UNL     1      31.486  19.820  14.074  0.00  0.00    +0.122 A 
ATOM      6  C   UNL     1      30.556  18.883  14.513  0.00  0.00    +0.058 A 
ENDROOT
BRANCH   1   8
ATOM      7  N   UNL     1      29.243  16.760  15.853  0.00  0.00    -0.325 N 
ATOM      8  C   UNL     1      29.514  16.657  14.519  0.00  0.00    +0.242 C 
ATOM      9  O   UNL     1      28.914  15.849  13.819  0.00  0.00    -0.270 OA
ATOM     10  H   UNL     1      28.468  16.202  16.187  0.00  0.00    +0.145 HD
ATOM     11  H   UNL     1      29.499  17.575  16.392  0.00  0.00    +0.145 HD
ENDBRANCH   1   8
BRANCH   5  12
ATOM     12  O   UNL     1      31.638  21.075  14.595  0.00  0.00    -0.484 OA
BRANCH  12  13
ATOM     13  C   UNL     1      30.611  22.044  14.315  0.00  0.00    +0.208 C 
BRANCH  13  14
ATOM     14  C   UNL     1      29.806  22.284  15.576  0.00  0.00    +0.011 A 
ATOM     15  C   UNL     1      28.609  21.587  15.789  0.00  0.00    +0.010 A 
ATOM     16  C   UNL     1      27.866  21.811  16.942  0.00  0.00    +0.020 A 
ATOM     17  C   UNL     1      28.348  22.730  17.856  0.00  0.00    +0.111 A 
ATOM     18  N   UNL     1      29.493  23.427  17.691  0.00  0.00    -0.263 NA
ATOM     19  C   UNL     1      30.194  23.191  16.555  0.00  0.00    +0.118 A 
ENDBRANCH  13  14
BRANCH  13  20
ATOM     20  C   UNL     1      31.245  23.334  13.842  0.00  0.00    +0.034 C 
ATOM     21  C   UNL     1      30.777  24.048  12.591  0.00  0.00    +0.008 C 
ATOM     22  C   UNL     1      32.108  23.361  12.596  0.00  0.00    +0.008 C 
ENDBRANCH  13  20
ENDBRANCH  12  13
ENDBRANCH   5  12
TORSDOF 5
ENDMDL
MODEL 5
REMARK VINA RESULT:      -5.9      1.967      2.469
REMARK  Name = ZINC001228612316
REMARK  5 active torsions:
REMARK  status: ('A' for Active; 'I' for Inactive)
REMARK    1  A    between atoms: C_2  and  C_4
REMARK    2  A    between atoms: C_8  and  O_9
REMARK    3  A    between atoms: O_9  and  C_10
REMARK    4  A    between atoms: C_10  and  C_11
REMARK    5  A    between atoms: C_10  and  C_17
REMARK                            x       y       z     vdW  Elec       q    Type
REMARK                         _______ _______ _______ _____ _____    ______ ____
ROOT
ATOM      1  C   UNL     1      31.153  18.243  13.380  0.00  0.00    +0.040 A 
ATOM      2  C   UNL     1      30.272  17.815  14.377  0.00  0.00    +0.013 A 
ATOM      3  C   UNL     1      29.490  18.753  15.054  0.00  0.00    +0.004 A 
ATOM      4  C   UNL     1      29.581  20.110  14.727  0.00  0.00    +0.046 A 
ATOM      5  C   UNL     1      30.454  20.540  13.724  0.00  0.00    +0.122 A 
ATOM      6  C   UNL     1      31.256  19.604  13.080  0.00  0.00    +0.058 A 
ENDROOT
BRANCH   1   8
ATOM      7  N   UNL     1      32.856  17.860  11.679  0.00  0.00    -0.325 N 
ATOM      8  C   UNL     1      32.005  17.313  12.597  0.00  0.00    +0.242 C 
ATOM      9  O   UNL     1      32.000  16.106  12.805  0.00  0.00    -0.270 OA
ATOM     10  H   UNL     1      33.525  17.220  11.268  0.00  0.00    +0.145 HD
ATOM     11  H   UNL     1      33.086  18.842  11.678  0.00  0.00    +0.145 HD
ENDBRANCH   1   8
BRANCH   5  12
ATOM     12  O   UNL     1      30.462  21.884  13.472  0.00  0.00    -0.484 OA
BRANCH  12  13
ATOM     13  C   UNL     1      31.730  22.566  13.518  0.00  0.00    +0.208 C 
BRANCH  13  14
ATOM     14  C   UNL     1      31.726  23.681  12.494  0.00  0.00    +0.011 A 
ATOM     15  C   UNL     1      30.833  24.753  12.625  0.00  0.00    +0.010 A 
ATOM     16  C   UNL     1      30.824  25.774  11.683  0.00  0.00    +0.020 A 
ATOM     17  C   UNL     1      31.716  25.692  10.629  0.00  0.00    +0.111 A 
ATOM     18  N   UNL     1      32.590  24.677  10.459  0.00  0.00    -0.263 NA
ATOM     19  C   UNL     1      32.573  23.694  11.392  0.00  0.00    +0.118 A 
ENDBRANCH  13  14
BRANCH  13  20
ATOM     20  C   UNL     1      31.954  23.126  14.906  0.00  0.00    +0.034 C 
ATOM     21  C   UNL     1      33.283  23.714  15.330  0.00  0.00    +0.008 C 
ATOM     22  C   UNL     1      32.841  22.402  15.900  0.00  0.00    +0.008 C 
ENDBRANCH  13  20
ENDBRANCH  12  13
ENDBRANCH   5  12
TORSDOF 5
ENDMDL
MODEL 6
REMARK VINA RESULT:      -5.8      3.043      6.968
REMARK  Name = ZINC001228612316
REMARK  5 active torsions:
REMARK  status: ('A' for Active; 'I' for Inactive)
REMARK    1  A    between atoms: C_2  and  C_4
REMARK    2  A    between atoms: C_8  and  O_9
REMARK    3  A    between atoms: O_9  and  C_10
REMARK    4  A    between atoms: C_10  and  C_11
REMARK    5  A    between atoms: C_10  and  C_17
REMARK                            x       y       z     vdW  Elec       q    Type
REMARK                         _______ _______ _______ _____ _____    ______ ____
ROOT
ATOM      1  C   UNL     1      32.382  24.922  10.323  0.00  0.00    +0.040 A 
ATOM      2  C   UNL     1      31.540  26.015  10.546  0.00  0.00    +0.013 A 
ATOM      3  C   UNL     1      30.738  26.045  11.690  0.00  0.00    +0.004 A 
ATOM      4  C   UNL     1      30.788  24.992  12.609  0.00  0.00    +0.046 A 
ATOM      5  C   UNL     1      31.635  23.902  12.394  0.00  0.00    +0.122 A 
ATOM      6  C   UNL     1      32.403  23.862  11.235  0.00  0.00    +0.058 A 
ENDROOT
BRANCH   1   8
ATOM      7  N   UNL     1      33.302  25.867   8.274  0.00  0.00    -0.325 N 
ATOM      8  C   UNL     1      33.282  24.817   9.147  0.00  0.00    +0.242 C 
ATOM      9  O   UNL     1      34.029  23.859   8.992  0.00  0.00    -0.270 OA
ATOM     10  H   UNL     1      34.026  25.833   7.566  0.00  0.00    +0.145 HD
ATOM     11  H   UNL     1      32.922  26.771   8.510  0.00  0.00    +0.145 HD
ENDBRANCH   1   8
BRANCH   5  12
ATOM     12  O   UNL     1      31.619  22.930  13.356  0.00  0.00    -0.484 OA
BRANCH  12  13
ATOM     13  C   UNL     1      31.501  23.349  14.728  0.00  0.00    +0.208 C 
BRANCH  13  14
ATOM     14  C   UNL     1      30.291  22.679  15.344  0.00  0.00    +0.011 A 
ATOM     15  C   UNL     1      29.876  21.420  14.889  0.00  0.00    +0.010 A 
ATOM     16  C   UNL     1      28.762  20.807  15.448  0.00  0.00    +0.020 A 
ATOM     17  C   UNL     1      28.090  21.475  16.456  0.00  0.00    +0.111 A 
ATOM     18  N   UNL     1      28.451  22.690  16.923  0.00  0.00    -0.263 NA
ATOM     19  C   UNL     1      29.539  23.265  16.355  0.00  0.00    +0.118 A 
ENDBRANCH  13  14
BRANCH  13  20
ATOM     20  C   UNL     1      32.755  22.967  15.484  0.00  0.00    +0.034 C 
ATOM     21  C   UNL     1      32.972  23.358  16.931  0.00  0.00    +0.008 C 
ATOM     22  C   UNL     1      33.783  24.017  15.858  0.00  0.00    +0.008 C 
ENDBRANCH  13  20
ENDBRANCH  12  13
ENDBRANCH   5  12
TORSDOF 5
ENDMDL
MODEL 7
REMARK VINA RESULT:      -5.8      2.087      2.487
REMARK  Name = ZINC001228612316
REMARK  5 active torsions:
REMARK  status: ('A' for Active; 'I' for Inactive)
REMARK    1  A    between atoms: C_2  and  C_4
REMARK    2  A    between atoms: C_8  and  O_9
REMARK    3  A    between atoms: O_9  and  C_10
REMARK    4  A    between atoms: C_10  and  C_11
REMARK    5  A    between atoms: C_10  and  C_17
REMARK                            x       y       z     vdW  Elec       q    Type
REMARK                         _______ _______ _______ _____ _____    ______ ____
ROOT
ATOM      1  C   UNL     1      28.342  20.964  16.082  0.00  0.00    +0.040 A 
ATOM      2  C   UNL     1      28.796  19.799  15.459  0.00  0.00    +0.013 A 
ATOM      3  C   UNL     1      29.840  19.876  14.533  0.00  0.00    +0.004 A 
ATOM      4  C   UNL     1      30.431  21.110  14.242  0.00  0.00    +0.046 A 
ATOM      5  C   UNL     1      29.985  22.275  14.870  0.00  0.00    +0.122 A 
ATOM      6  C   UNL     1      28.921  22.196  15.764  0.00  0.00    +0.058 A 
ENDROOT
BRANCH   1   8
ATOM      7  N   UNL     1      27.086  19.846  17.847  0.00  0.00    -0.325 N 
ATOM      8  C   UNL     1      27.254  20.972  17.092  0.00  0.00    +0.242 C 
ATOM      9  O   UNL     1      26.570  21.968  17.294  0.00  0.00    -0.270 OA
ATOM     10  H   UNL     1      26.439  19.931  18.621  0.00  0.00    +0.145 HD
ATOM     11  H   UNL     1      27.791  19.127  17.904  0.00  0.00    +0.145 HD
ENDBRANCH   1   8
BRANCH   5  12
ATOM     12  O   UNL     1      30.633  23.429  14.527  0.00  0.00    -0.484 OA
BRANCH  12  13
ATOM     13  C   UNL     1      31.911  23.309  13.874  0.00  0.00    +0.208 C 
BRANCH  13  14
ATOM     14  C   UNL     1      31.880  24.101  12.584  0.00  0.00    +0.011 A 
ATOM     15  C   UNL     1      31.004  25.187  12.446  0.00  0.00    +0.010 A 
ATOM     16  C   UNL     1      30.970  25.911  11.261  0.00  0.00    +0.020 A 
ATOM     17  C   UNL     1      31.820  25.526  10.240  0.00  0.00    +0.111 A 
ATOM     18  N   UNL     1      32.675  24.484  10.326  0.00  0.00    -0.263 NA
ATOM     19  C   UNL     1      32.684  23.795  11.492  0.00  0.00    +0.118 A 
ENDBRANCH  13  14
BRANCH  13  20
ATOM     20  C   UNL     1      32.998  23.832  14.787  0.00  0.00    +0.034 C 
ATOM     21  C   UNL     1      34.408  23.281  14.756  0.00  0.00    +0.008 C 
ATOM     22  C   UNL     1      33.525  22.985  15.929  0.00  0.00    +0.008 C 
ENDBRANCH  13  20
ENDBRANCH  12  13
ENDBRANCH   5  12
TORSDOF 5
ENDMDL
MODEL 8
REMARK VINA RESULT:      -5.8      2.893      6.927
REMARK  Name = ZINC001228612316
REMARK  5 active torsions:
REMARK  status: ('A' for Active; 'I' for Inactive)
REMARK    1  A    between atoms: C_2  and  C_4
REMARK    2  A    between atoms: C_8  and  O_9
REMARK    3  A    between atoms: O_9  and  C_10
REMARK    4  A    between atoms: C_10  and  C_11
REMARK    5  A    between atoms: C_10  and  C_17
REMARK                            x       y       z     vdW  Elec       q    Type
REMARK                         _______ _______ _______ _____ _____    ______ ____
ROOT
ATOM      1  C   UNL     1      32.364  24.920  10.257  0.00  0.00    +0.040 A 
ATOM      2  C   UNL     1      31.543  26.028  10.481  0.00  0.00    +0.013 A 
ATOM      3  C   UNL     1      30.758  26.080  11.636  0.00  0.00    +0.004 A 
ATOM      4  C   UNL     1      30.803  25.034  12.564  0.00  0.00    +0.046 A 
ATOM      5  C   UNL     1      31.630  23.930  12.346  0.00  0.00    +0.122 A 
ATOM      6  C   UNL     1      32.381  23.868  11.177  0.00  0.00    +0.058 A 
ENDROOT
BRANCH   1   8
ATOM      7  N   UNL     1      33.443  25.906   8.307  0.00  0.00    -0.325 N 
ATOM      8  C   UNL     1      33.246  24.791   9.069  0.00  0.00    +0.242 C 
ATOM      9  O   UNL     1      33.830  23.745   8.812  0.00  0.00    -0.270 OA
ATOM     10  H   UNL     1      34.159  25.828   7.594  0.00  0.00    +0.145 HD
ATOM     11  H   UNL     1      33.212  26.832   8.637  0.00  0.00    +0.145 HD
ENDBRANCH   1   8
BRANCH   5  12
ATOM     12  O   UNL     1      31.612  22.966  13.316  0.00  0.00    -0.484 OA
BRANCH  12  13
ATOM     13  C   UNL     1      31.407  23.390  14.677  0.00  0.00    +0.208 C 
BRANCH  13  14
ATOM     14  C   UNL     1      30.237  22.624  15.259  0.00  0.00    +0.011 A 
ATOM     15  C   UNL     1      29.441  23.206  16.255  0.00  0.00    +0.010 A 
ATOM     16  C   UNL     1      28.372  22.503  16.794  0.00  0.00    +0.020 A 
ATOM     17  C   UNL     1      28.125  21.228  16.316  0.00  0.00    +0.111 A 
ATOM     18  N   UNL     1      28.867  20.626  15.362  0.00  0.00    -0.263 NA
ATOM     19  C   UNL     1      29.906  21.335  14.857  0.00  0.00    +0.118 A 
ENDBRANCH  13  14
BRANCH  13  20
ATOM     20  C   UNL     1      32.660  23.129  15.483  0.00  0.00    +0.034 C 
ATOM     21  C   UNL     1      32.919  23.812  16.810  0.00  0.00    +0.008 C 
ATOM     22  C   UNL     1      33.734  24.191  15.611  0.00  0.00    +0.008 C 
ENDBRANCH  13  20
ENDBRANCH  12  13
ENDBRANCH   5  12
TORSDOF 5
ENDMDL
MODEL 9
REMARK VINA RESULT:      -5.7      2.957      5.095
REMARK  Name = ZINC001228612316
REMARK  5 active torsions:
REMARK  status: ('A' for Active; 'I' for Inactive)
REMARK    1  A    between atoms: C_2  and  C_4
REMARK    2  A    between atoms: C_8  and  O_9
REMARK    3  A    between atoms: O_9  and  C_10
REMARK    4  A    between atoms: C_10  and  C_11
REMARK    5  A    between atoms: C_10  and  C_17
REMARK                            x       y       z     vdW  Elec       q    Type
REMARK                         _______ _______ _______ _____ _____    ______ ____
ROOT
ATOM      1  C   UNL     1      28.358  22.114  16.606  0.00  0.00    +0.040 A 
ATOM      2  C   UNL     1      29.145  23.029  17.310  0.00  0.00    +0.013 A 
ATOM      3  C   UNL     1      30.398  23.389  16.809  0.00  0.00    +0.004 A 
ATOM      4  C   UNL     1      30.855  22.844  15.604  0.00  0.00    +0.046 A 
ATOM      5  C   UNL     1      30.067  21.936  14.893  0.00  0.00    +0.122 A 
ATOM      6  C   UNL     1      28.836  21.554  15.417  0.00  0.00    +0.058 A 
ENDROOT
BRANCH   1   8
ATOM      7  N   UNL     1      26.860  20.405  17.486  0.00  0.00    -0.325 N 
ATOM      8  C   UNL     1      27.007  21.692  17.054  0.00  0.00    +0.242 C 
ATOM      9  O   UNL     1      26.069  22.479  17.100  0.00  0.00    -0.270 OA
ATOM     10  H   UNL     1      25.971  20.188  17.920  0.00  0.00    +0.145 HD
ATOM     11  H   UNL     1      27.650  19.823  17.723  0.00  0.00    +0.145 HD
ENDBRANCH   1   8
BRANCH   5  12
ATOM     12  O   UNL     1      30.598  21.468  13.723  0.00  0.00    -0.484 OA
BRANCH  12  13
ATOM     13  C   UNL     1      31.843  20.747  13.794  0.00  0.00    +0.208 C 
BRANCH  13  14
ATOM     14  C   UNL     1      31.579  19.283  13.513  0.00  0.00    +0.011 A 
ATOM     15  C   UNL     1      30.664  18.570  14.299  0.00  0.00    +0.010 A 
ATOM     16  C   UNL     1      30.425  17.225  14.048  0.00  0.00    +0.020 A 
ATOM     17  C   UNL     1      31.114  16.627  13.007  0.00  0.00    +0.111 A 
ATOM     18  N   UNL     1      32.007  17.272  12.227  0.00  0.00    -0.263 NA
ATOM     19  C   UNL     1      32.222  18.583  12.499  0.00  0.00    +0.118 A 
ENDBRANCH  13  14
BRANCH  13  20
ATOM     20  C   UNL     1      32.813  21.311  12.779  0.00  0.00    +0.034 C 
ATOM     21  C   UNL     1      34.294  21.444  13.070  0.00  0.00    +0.008 C 
ATOM     22  C   UNL     1      33.444  22.674  12.985  0.00  0.00    +0.008 C 
ENDBRANCH  13  20
ENDBRANCH  12  13
ENDBRANCH   5  12
TORSDOF 5
ENDMDL
