MODEL 1
REMARK VINA RESULT:      -6.8      0.000      0.000
REMARK  Name = ZINC000560333501
REMARK  5 active torsions:
REMARK  status: ('A' for Active; 'I' for Inactive)
REMARK    1  A    between atoms: C_2  and  C_3
REMARK    2  A    between atoms: C_7  and  C_8
REMARK    3  A    between atoms: C_8  and  C_9
REMARK    4  A    between atoms: N_11  and  C_12
REMARK    5  A    between atoms: C_12  and  C_13
REMARK                            x       y       z     vdW  Elec       q    Type
REMARK                         _______ _______ _______ _____ _____    ______ ____
ROOT
ATOM      1  C   UNL     1      29.479  22.858  16.721  0.00  0.00    +0.217 C 
ATOM      2  O   UNL     1      28.452  22.505  17.308  0.00  0.00    -0.275 OA
ATOM      3  N   UNL     1      30.468  23.622  17.317  0.00  0.00    -0.315 N 
ATOM      4  H   UNL     1      31.375  23.600  16.867  0.00  0.00    +0.149 HD
ENDROOT
BRANCH   1   5
ATOM      5  C   UNL     1      29.719  22.472  15.280  0.00  0.00    +0.131 C 
BRANCH   5  10
ATOM      6  C   UNL     1      32.102  19.485  15.596  0.00  0.00    +0.052 A 
ATOM      7  C   UNL     1      31.456  18.541  14.789  0.00  0.00    +0.019 A 
ATOM      8  C   UNL     1      30.274  18.882  14.133  0.00  0.00    +0.002 A 
ATOM      9  C   UNL     1      29.736  20.162  14.274  0.00  0.00    +0.004 A 
ATOM     10  C   UNL     1      30.374  21.123  15.072  0.00  0.00    -0.037 A 
ATOM     11  C   UNL     1      31.559  20.769  15.739  0.00  0.00    +0.023 A 
BRANCH   6  13
ATOM     12  N   UNL     1      34.278  18.836  16.851  0.00  0.00    -0.191 NA
ATOM     13  C   UNL     1      33.307  19.128  16.286  0.00  0.00    +0.099 C 
ENDBRANCH   6  13
ENDBRANCH   5  10
ENDBRANCH   1   5
BRANCH   3  14
ATOM     14  C   UNL     1      30.460  23.743  18.764  0.00  0.00    +0.108 C 
BRANCH  14  15
ATOM     15  C   UNL     1      31.435  22.832  19.534  0.00  0.00    +0.011 C 
ATOM     16  C   UNL     1      31.143  22.754  21.030  0.00  0.00    +0.033 C 
ATOM     17  C   UNL     1      31.253  24.129  21.671  0.00  0.00    +0.161 C 
ATOM     18  O   UNL     1      32.445  24.830  21.324  0.00  0.00    -0.373 OA
ATOM     19  C   UNL     1      33.014  24.754  19.984  0.00  0.00    +0.070 C 
ATOM     20  C   UNL     1      32.663  25.892  18.963  0.00  0.00    +0.035 C 
ATOM     21  C   UNL     1      33.856  26.685  19.496  0.00  0.00    +0.006 C 
ATOM     22  C   UNL     1      34.465  25.345  19.952  0.00  0.00    +0.035 C 
ATOM     23  C   UNL     1      32.885  23.342  19.399  0.00  0.00    +0.040 C 
ENDBRANCH  14  15
ENDBRANCH   3  14
TORSDOF 5
ENDMDL
MODEL 2
REMARK VINA RESULT:      -6.6      4.673      7.218
REMARK  Name = ZINC000560333501
REMARK  5 active torsions:
REMARK  status: ('A' for Active; 'I' for Inactive)
REMARK    1  A    between atoms: C_2  and  C_3
REMARK    2  A    between atoms: C_7  and  C_8
REMARK    3  A    between atoms: C_8  and  C_9
REMARK    4  A    between atoms: N_11  and  C_12
REMARK    5  A    between atoms: C_12  and  C_13
REMARK                            x       y       z     vdW  Elec       q    Type
REMARK                         _______ _______ _______ _____ _____    ______ ____
ROOT
ATOM      1  C   UNL     1      30.213  23.901  13.423  0.00  0.00    +0.217 C 
ATOM      2  O   UNL     1      29.523  23.045  12.864  0.00  0.00    -0.275 OA
ATOM      3  N   UNL     1      30.768  23.724  14.679  0.00  0.00    -0.315 N 
ATOM      4  H   UNL     1      31.541  24.336  14.911  0.00  0.00    +0.149 HD
ENDROOT
BRANCH   1   5
ATOM      5  C   UNL     1      30.497  25.226  12.755  0.00  0.00    +0.131 C 
BRANCH   5  10
ATOM      6  C   UNL     1      32.780  24.268   9.827  0.00  0.00    +0.052 A 
ATOM      7  C   UNL     1      33.675  25.344   9.823  0.00  0.00    +0.019 A 
ATOM      8  C   UNL     1      33.551  26.354  10.776  0.00  0.00    +0.002 A 
ATOM      9  C   UNL     1      32.539  26.292  11.737  0.00  0.00    +0.004 A 
ATOM     10  C   UNL     1      31.638  25.219  11.761  0.00  0.00    -0.037 A 
ATOM     11  C   UNL     1      31.763  24.210  10.790  0.00  0.00    +0.023 A 
BRANCH   6  13
ATOM     12  N   UNL     1      32.995  22.414   8.026  0.00  0.00    -0.191 NA
ATOM     13  C   UNL     1      32.897  23.241   8.834  0.00  0.00    +0.099 C 
ENDBRANCH   6  13
ENDBRANCH   5  10
ENDBRANCH   1   5
BRANCH   3  14
ATOM     14  C   UNL     1      30.815  22.379  15.224  0.00  0.00    +0.108 C 
BRANCH  14  15
ATOM     15  C   UNL     1      32.204  21.851  15.630  0.00  0.00    +0.011 C 
ATOM     16  C   UNL     1      33.282  22.098  14.578  0.00  0.00    +0.033 C 
ATOM     17  C   UNL     1      32.929  21.401  13.273  0.00  0.00    +0.161 C 
ATOM     18  O   UNL     1      32.546  20.038  13.437  0.00  0.00    -0.373 OA
ATOM     19  C   UNL     1      31.751  19.598  14.576  0.00  0.00    +0.070 C 
ATOM     20  C   UNL     1      30.198  19.474  14.396  0.00  0.00    +0.035 C 
ATOM     21  C   UNL     1      30.409  18.041  13.906  0.00  0.00    +0.006 C 
ATOM     22  C   UNL     1      31.737  18.035  14.687  0.00  0.00    +0.035 C 
ATOM     23  C   UNL     1      32.164  20.326  15.862  0.00  0.00    +0.040 C 
ENDBRANCH  14  15
ENDBRANCH   3  14
TORSDOF 5
ENDMDL
MODEL 3
REMARK VINA RESULT:      -6.5      4.713      7.382
REMARK  Name = ZINC000560333501
REMARK  5 active torsions:
REMARK  status: ('A' for Active; 'I' for Inactive)
REMARK    1  A    between atoms: C_2  and  C_3
REMARK    2  A    between atoms: C_7  and  C_8
REMARK    3  A    between atoms: C_8  and  C_9
REMARK    4  A    between atoms: N_11  and  C_12
REMARK    5  A    between atoms: C_12  and  C_13
REMARK                            x       y       z     vdW  Elec       q    Type
REMARK                         _______ _______ _______ _____ _____    ______ ____
ROOT
ATOM      1  C   UNL     1      30.167  23.891  13.418  0.00  0.00    +0.217 C 
ATOM      2  O   UNL     1      29.510  23.017  12.847  0.00  0.00    -0.275 OA
ATOM      3  N   UNL     1      30.740  23.714  14.666  0.00  0.00    -0.315 N 
ATOM      4  H   UNL     1      31.487  24.354  14.905  0.00  0.00    +0.149 HD
ENDROOT
BRANCH   1   5
ATOM      5  C   UNL     1      30.386  25.240  12.775  0.00  0.00    +0.131 C 
BRANCH   5  10
ATOM      6  C   UNL     1      33.509  26.378  10.862  0.00  0.00    +0.052 A 
ATOM      7  C   UNL     1      33.707  25.291  10.004  0.00  0.00    +0.019 A 
ATOM      8  C   UNL     1      32.822  24.214  10.031  0.00  0.00    +0.002 A 
ATOM      9  C   UNL     1      31.736  24.220  10.909  0.00  0.00    +0.004 A 
ATOM     10  C   UNL     1      31.517  25.304  11.771  0.00  0.00    -0.037 A 
ATOM     11  C   UNL     1      32.420  26.380  11.745  0.00  0.00    +0.023 A 
BRANCH   6  13
ATOM     12  N   UNL     1      35.173  28.368  10.828  0.00  0.00    -0.191 NA
ATOM     13  C   UNL     1      34.430  27.476  10.847  0.00  0.00    +0.099 C 
ENDBRANCH   6  13
ENDBRANCH   5  10
ENDBRANCH   1   5
BRANCH   3  14
ATOM     14  C   UNL     1      30.851  22.361  15.183  0.00  0.00    +0.108 C 
BRANCH  14  15
ATOM     15  C   UNL     1      32.273  21.861  15.498  0.00  0.00    +0.011 C 
ATOM     16  C   UNL     1      33.270  22.103  14.368  0.00  0.00    +0.033 C 
ATOM     17  C   UNL     1      32.836  21.376  13.104  0.00  0.00    +0.161 C 
ATOM     18  O   UNL     1      32.487  20.011  13.320  0.00  0.00    -0.373 OA
ATOM     19  C   UNL     1      31.782  19.582  14.521  0.00  0.00    +0.070 C 
ATOM     20  C   UNL     1      30.223  19.432  14.454  0.00  0.00    +0.035 C 
ATOM     21  C   UNL     1      30.421  17.993  13.976  0.00  0.00    +0.006 C 
ATOM     22  C   UNL     1      31.801  18.021  14.661  0.00  0.00    +0.035 C 
ATOM     23  C   UNL     1      32.274  20.340  15.761  0.00  0.00    +0.040 C 
ENDBRANCH  14  15
ENDBRANCH   3  14
TORSDOF 5
ENDMDL
MODEL 4
REMARK VINA RESULT:      -6.5      5.084      7.643
REMARK  Name = ZINC000560333501
REMARK  5 active torsions:
REMARK  status: ('A' for Active; 'I' for Inactive)
REMARK    1  A    between atoms: C_2  and  C_3
REMARK    2  A    between atoms: C_7  and  C_8
REMARK    3  A    between atoms: C_8  and  C_9
REMARK    4  A    between atoms: N_11  and  C_12
REMARK    5  A    between atoms: C_12  and  C_13
REMARK                            x       y       z     vdW  Elec       q    Type
REMARK                         _______ _______ _______ _____ _____    ______ ____
ROOT
ATOM      1  C   UNL     1      31.683  21.180  13.561  0.00  0.00    +0.217 C 
ATOM      2  O   UNL     1      32.837  20.853  13.848  0.00  0.00    -0.275 OA
ATOM      3  N   UNL     1      31.380  22.093  12.566  0.00  0.00    -0.315 N 
ATOM      4  H   UNL     1      30.431  22.065  12.213  0.00  0.00    +0.149 HD
ENDROOT
BRANCH   1   5
ATOM      5  C   UNL     1      30.504  20.590  14.299  0.00  0.00    +0.131 C 
BRANCH   5  10
ATOM      6  C   UNL     1      27.977  22.217  16.680  0.00  0.00    +0.052 A 
ATOM      7  C   UNL     1      28.818  23.036  17.442  0.00  0.00    +0.019 A 
ATOM      8  C   UNL     1      30.184  23.076  17.169  0.00  0.00    +0.002 A 
ATOM      9  C   UNL     1      30.715  22.305  16.133  0.00  0.00    +0.004 A 
ATOM     10  C   UNL     1      29.887  21.484  15.353  0.00  0.00    -0.037 A 
ATOM     11  C   UNL     1      28.513  21.441  15.643  0.00  0.00    +0.023 A 
BRANCH   6  13
ATOM     12  N   UNL     1      25.441  22.110  17.217  0.00  0.00    -0.191 NA
ATOM     13  C   UNL     1      26.575  22.162  16.975  0.00  0.00    +0.099 C 
ENDBRANCH   6  13
ENDBRANCH   5  10
ENDBRANCH   1   5
BRANCH   3  14
ATOM     14  C   UNL     1      32.420  22.439  11.613  0.00  0.00    +0.108 C 
BRANCH  14  15
ATOM     15  C   UNL     1      31.964  23.161  10.331  0.00  0.00    +0.011 C 
ATOM     16  C   UNL     1      32.739  22.739   9.086  0.00  0.00    +0.033 C 
ATOM     17  C   UNL     1      34.219  23.051   9.243  0.00  0.00    +0.161 C 
ATOM     18  O   UNL     1      34.481  24.377   9.697  0.00  0.00    -0.373 OA
ATOM     19  C   UNL     1      33.631  25.028  10.686  0.00  0.00    +0.070 C 
ATOM     20  C   UNL     1      34.069  24.980  12.191  0.00  0.00    +0.035 C 
ATOM     21  C   UNL     1      34.883  26.252  11.954  0.00  0.00    +0.006 C 
ATOM     22  C   UNL     1      33.941  26.561  10.775  0.00  0.00    +0.035 C 
ATOM     23  C   UNL     1      32.152  24.687  10.465  0.00  0.00    +0.040 C 
ENDBRANCH  14  15
ENDBRANCH   3  14
TORSDOF 5
ENDMDL
MODEL 5
REMARK VINA RESULT:      -6.4      3.804      4.875
REMARK  Name = ZINC000560333501
REMARK  5 active torsions:
REMARK  status: ('A' for Active; 'I' for Inactive)
REMARK    1  A    between atoms: C_2  and  C_3
REMARK    2  A    between atoms: C_7  and  C_8
REMARK    3  A    between atoms: C_8  and  C_9
REMARK    4  A    between atoms: N_11  and  C_12
REMARK    5  A    between atoms: C_12  and  C_13
REMARK                            x       y       z     vdW  Elec       q    Type
REMARK                         _______ _______ _______ _____ _____    ______ ____
ROOT
ATOM      1  C   UNL     1      30.175  22.490  14.558  0.00  0.00    +0.217 C 
ATOM      2  O   UNL     1      30.799  21.438  14.719  0.00  0.00    -0.275 OA
ATOM      3  N   UNL     1      29.820  23.327  15.602  0.00  0.00    -0.315 N 
ATOM      4  H   UNL     1      29.587  24.279  15.346  0.00  0.00    +0.149 HD
ENDROOT
BRANCH   1   5
ATOM      5  C   UNL     1      29.746  22.933  13.179  0.00  0.00    +0.131 C 
BRANCH   5  10
ATOM      6  C   UNL     1      32.395  24.192  10.709  0.00  0.00    +0.052 A 
ATOM      7  C   UNL     1      32.411  25.559  11.008  0.00  0.00    +0.019 A 
ATOM      8  C   UNL     1      31.589  26.059  12.018  0.00  0.00    +0.002 A 
ATOM      9  C   UNL     1      30.753  25.199  12.733  0.00  0.00    +0.004 A 
ATOM     10  C   UNL     1      30.729  23.825  12.451  0.00  0.00    -0.037 A 
ATOM     11  C   UNL     1      31.552  23.331  11.426  0.00  0.00    +0.023 A 
BRANCH   6  13
ATOM     12  N   UNL     1      33.905  23.271   8.811  0.00  0.00    -0.191 NA
ATOM     13  C   UNL     1      33.225  23.682   9.658  0.00  0.00    +0.099 C 
ENDBRANCH   6  13
ENDBRANCH   5  10
ENDBRANCH   1   5
BRANCH   3  14
ATOM     14  C   UNL     1      30.473  23.138  16.884  0.00  0.00    +0.108 C 
BRANCH  14  15
ATOM     15  C   UNL     1      31.853  23.801  17.057  0.00  0.00    +0.011 C 
ATOM     16  C   UNL     1      33.006  22.803  17.112  0.00  0.00    +0.033 C 
ATOM     17  C   UNL     1      32.842  21.857  18.292  0.00  0.00    +0.161 C 
ATOM     18  O   UNL     1      32.555  22.519  19.521  0.00  0.00    -0.373 OA
ATOM     19  C   UNL     1      31.689  23.689  19.577  0.00  0.00    +0.070 C 
ATOM     20  C   UNL     1      30.177  23.479  19.935  0.00  0.00    +0.035 C 
ATOM     21  C   UNL     1      30.550  23.603  21.412  0.00  0.00    +0.006 C 
ATOM     22  C   UNL     1      31.790  24.402  20.968  0.00  0.00    +0.035 C 
ATOM     23  C   UNL     1      31.913  24.609  18.370  0.00  0.00    +0.040 C 
ENDBRANCH  14  15
ENDBRANCH   3  14
TORSDOF 5
ENDMDL
MODEL 6
REMARK VINA RESULT:      -6.4      1.491      1.972
REMARK  Name = ZINC000560333501
REMARK  5 active torsions:
REMARK  status: ('A' for Active; 'I' for Inactive)
REMARK    1  A    between atoms: C_2  and  C_3
REMARK    2  A    between atoms: C_7  and  C_8
REMARK    3  A    between atoms: C_8  and  C_9
REMARK    4  A    between atoms: N_11  and  C_12
REMARK    5  A    between atoms: C_12  and  C_13
REMARK                            x       y       z     vdW  Elec       q    Type
REMARK                         _______ _______ _______ _____ _____    ______ ____
ROOT
ATOM      1  C   UNL     1      29.148  22.965  17.035  0.00  0.00    +0.217 C 
ATOM      2  O   UNL     1      28.170  22.637  17.711  0.00  0.00    -0.275 OA
ATOM      3  N   UNL     1      30.147  23.801  17.503  0.00  0.00    -0.315 N 
ATOM      4  H   UNL     1      31.026  23.765  17.002  0.00  0.00    +0.149 HD
ENDROOT
BRANCH   1   5
ATOM      5  C   UNL     1      29.315  22.464  15.620  0.00  0.00    +0.131 C 
BRANCH   5  10
ATOM      6  C   UNL     1      30.899  19.171  14.458  0.00  0.00    +0.052 A 
ATOM      7  C   UNL     1      32.176  19.276  15.021  0.00  0.00    +0.019 A 
ATOM      8  C   UNL     1      32.507  20.392  15.788  0.00  0.00    +0.002 A 
ATOM      9  C   UNL     1      31.567  21.402  16.000  0.00  0.00    +0.004 A 
ATOM     10  C   UNL     1      30.281  21.311  15.450  0.00  0.00    -0.037 A 
ATOM     11  C   UNL     1      29.958  20.189  14.669  0.00  0.00    +0.023 A 
BRANCH   6  13
ATOM     12  N   UNL     1      30.290  17.108  13.007  0.00  0.00    -0.191 NA
ATOM     13  C   UNL     1      30.565  18.033  13.653  0.00  0.00    +0.099 C 
ENDBRANCH   6  13
ENDBRANCH   5  10
ENDBRANCH   1   5
BRANCH   3  14
ATOM     14  C   UNL     1      30.221  24.045  18.933  0.00  0.00    +0.108 C 
BRANCH  14  15
ATOM     15  C   UNL     1      31.017  23.021  19.764  0.00  0.00    +0.011 C 
ATOM     16  C   UNL     1      31.088  23.363  21.249  0.00  0.00    +0.033 C 
ATOM     17  C   UNL     1      31.775  24.704  21.460  0.00  0.00    +0.161 C 
ATOM     18  O   UNL     1      33.004  24.835  20.750  0.00  0.00    -0.373 OA
ATOM     19  C   UNL     1      33.178  24.285  19.412  0.00  0.00    +0.070 C 
ATOM     20  C   UNL     1      32.965  25.236  18.184  0.00  0.00    +0.035 C 
ATOM     21  C   UNL     1      34.438  25.632  18.284  0.00  0.00    +0.006 C 
ATOM     22  C   UNL     1      34.688  24.286  18.992  0.00  0.00    +0.035 C 
ATOM     23  C   UNL     1      32.476  22.928  19.269  0.00  0.00    +0.040 C 
ENDBRANCH  14  15
ENDBRANCH   3  14
TORSDOF 5
ENDMDL
MODEL 7
REMARK VINA RESULT:      -6.3      2.280      3.203
REMARK  Name = ZINC000560333501
REMARK  5 active torsions:
REMARK  status: ('A' for Active; 'I' for Inactive)
REMARK    1  A    between atoms: C_2  and  C_3
REMARK    2  A    between atoms: C_7  and  C_8
REMARK    3  A    between atoms: C_8  and  C_9
REMARK    4  A    between atoms: N_11  and  C_12
REMARK    5  A    between atoms: C_12  and  C_13
REMARK                            x       y       z     vdW  Elec       q    Type
REMARK                         _______ _______ _______ _____ _____    ______ ____
ROOT
ATOM      1  C   UNL     1      28.458  22.644  17.049  0.00  0.00    +0.217 C 
ATOM      2  O   UNL     1      27.641  22.485  17.960  0.00  0.00    -0.275 OA
ATOM      3  N   UNL     1      29.492  23.563  17.111  0.00  0.00    -0.315 N 
ATOM      4  H   UNL     1      30.260  23.409  16.470  0.00  0.00    +0.149 HD
ENDROOT
BRANCH   1   5
ATOM      5  C   UNL     1      28.373  21.829  15.781  0.00  0.00    +0.131 C 
BRANCH   5  10
ATOM      6  C   UNL     1      31.062  22.582  13.153  0.00  0.00    +0.052 A 
ATOM      7  C   UNL     1      32.097  21.744  13.583  0.00  0.00    +0.019 A 
ATOM      8  C   UNL     1      31.913  20.928  14.698  0.00  0.00    +0.002 A 
ATOM      9  C   UNL     1      30.697  20.941  15.384  0.00  0.00    +0.004 A 
ATOM     10  C   UNL     1      29.646  21.768  14.963  0.00  0.00    -0.037 A 
ATOM     11  C   UNL     1      29.843  22.596  13.845  0.00  0.00    +0.023 A 
BRANCH   6  13
ATOM     12  N   UNL     1      31.420  24.133  11.104  0.00  0.00    -0.191 NA
ATOM     13  C   UNL     1      31.259  23.435  12.018  0.00  0.00    +0.099 C 
ENDBRANCH   6  13
ENDBRANCH   5  10
ENDBRANCH   1   5
BRANCH   3  14
ATOM     14  C   UNL     1      29.827  24.131  18.405  0.00  0.00    +0.108 C 
BRANCH  14  15
ATOM     15  C   UNL     1      30.671  23.248  19.344  0.00  0.00    +0.011 C 
ATOM     16  C   UNL     1      31.293  24.017  20.507  0.00  0.00    +0.033 C 
ATOM     17  C   UNL     1      32.227  25.103  19.994  0.00  0.00    +0.161 C 
ATOM     18  O   UNL     1      33.150  24.646  19.008  0.00  0.00    -0.373 OA
ATOM     19  C   UNL     1      32.768  23.669  17.997  0.00  0.00    +0.070 C 
ATOM     20  C   UNL     1      32.318  24.193  16.589  0.00  0.00    +0.035 C 
ATOM     21  C   UNL     1      33.783  24.167  16.154  0.00  0.00    +0.006 C 
ATOM     22  C   UNL     1      34.025  23.109  17.248  0.00  0.00    +0.035 C 
ATOM     23  C   UNL     1      31.840  22.594  18.579  0.00  0.00    +0.040 C 
ENDBRANCH  14  15
ENDBRANCH   3  14
TORSDOF 5
ENDMDL
MODEL 8
REMARK VINA RESULT:      -6.2     11.214     12.803
REMARK  Name = ZINC000560333501
REMARK  5 active torsions:
REMARK  status: ('A' for Active; 'I' for Inactive)
REMARK    1  A    between atoms: C_2  and  C_3
REMARK    2  A    between atoms: C_7  and  C_8
REMARK    3  A    between atoms: C_8  and  C_9
REMARK    4  A    between atoms: N_11  and  C_12
REMARK    5  A    between atoms: C_12  and  C_13
REMARK                            x       y       z     vdW  Elec       q    Type
REMARK                         _______ _______ _______ _____ _____    ______ ____
ROOT
ATOM      1  C   UNL     1      19.301  28.554  15.648  0.00  0.00    +0.217 C 
ATOM      2  O   UNL     1      18.487  29.191  16.321  0.00  0.00    -0.275 OA
ATOM      3  N   UNL     1      20.461  29.110  15.137  0.00  0.00    -0.315 N 
ATOM      4  H   UNL     1      21.186  28.455  14.870  0.00  0.00    +0.149 HD
ENDROOT
BRANCH   1   5
ATOM      5  C   UNL     1      19.072  27.095  15.332  0.00  0.00    +0.131 C 
BRANCH   5  10
ATOM      6  C   UNL     1      21.035  25.279  18.080  0.00  0.00    +0.052 A 
ATOM      7  C   UNL     1      21.558  24.196  17.364  0.00  0.00    +0.019 A 
ATOM      8  C   UNL     1      21.295  24.073  16.000  0.00  0.00    +0.002 A 
ATOM      9  C   UNL     1      20.516  25.030  15.347  0.00  0.00    +0.004 A 
ATOM     10  C   UNL     1      19.989  26.125  16.046  0.00  0.00    -0.037 A 
ATOM     11  C   UNL     1      20.249  26.236  17.423  0.00  0.00    +0.023 A 
BRANCH   6  13
ATOM     12  N   UNL     1      21.501  25.492  20.624  0.00  0.00    -0.191 NA
ATOM     13  C   UNL     1      21.289  25.394  19.486  0.00  0.00    +0.099 C 
ENDBRANCH   6  13
ENDBRANCH   5  10
ENDBRANCH   1   5
BRANCH   3  14
ATOM     14  C   UNL     1      20.901  30.387  15.671  0.00  0.00    +0.108 C 
BRANCH  14  15
ATOM     15  C   UNL     1      21.862  30.334  16.874  0.00  0.00    +0.011 C 
ATOM     16  C   UNL     1      21.169  30.549  18.217  0.00  0.00    +0.033 C 
ATOM     17  C   UNL     1      20.504  31.916  18.266  0.00  0.00    +0.161 C 
ATOM     18  O   UNL     1      21.353  32.982  17.847  0.00  0.00    -0.373 OA
ATOM     19  C   UNL     1      22.295  32.822  16.747  0.00  0.00    +0.070 C 
ATOM     20  C   UNL     1      21.858  33.297  15.318  0.00  0.00    +0.035 C 
ATOM     21  C   UNL     1      22.391  34.689  15.661  0.00  0.00    +0.006 C 
ATOM     22  C   UNL     1      23.311  34.013  16.695  0.00  0.00    +0.035 C 
ATOM     23  C   UNL     1      22.942  31.431  16.761  0.00  0.00    +0.040 C 
ENDBRANCH  14  15
ENDBRANCH   3  14
TORSDOF 5
ENDMDL
MODEL 9
REMARK VINA RESULT:      -6.2      2.903      3.671
REMARK  Name = ZINC000560333501
REMARK  5 active torsions:
REMARK  status: ('A' for Active; 'I' for Inactive)
REMARK    1  A    between atoms: C_2  and  C_3
REMARK    2  A    between atoms: C_7  and  C_8
REMARK    3  A    between atoms: C_8  and  C_9
REMARK    4  A    between atoms: N_11  and  C_12
REMARK    5  A    between atoms: C_12  and  C_13
REMARK                            x       y       z     vdW  Elec       q    Type
REMARK                         _______ _______ _______ _____ _____    ______ ____
ROOT
ATOM      1  C   UNL     1      30.116  22.724  16.113  0.00  0.00    +0.217 C 
ATOM      2  O   UNL     1      28.943  22.966  16.412  0.00  0.00    -0.275 OA
ATOM      3  N   UNL     1      31.185  23.025  16.939  0.00  0.00    -0.315 N 
ATOM      4  H   UNL     1      32.047  22.529  16.746  0.00  0.00    +0.149 HD
ENDROOT
BRANCH   1   5
ATOM      5  C   UNL     1      30.461  22.075  14.794  0.00  0.00    +0.131 C 
BRANCH   5  10
ATOM      6  C   UNL     1      31.696  23.473  11.444  0.00  0.00    +0.052 A 
ATOM      7  C   UNL     1      31.293  24.809  11.548  0.00  0.00    +0.019 A 
ATOM      8  C   UNL     1      30.651  25.254  12.703  0.00  0.00    +0.002 A 
ATOM      9  C   UNL     1      30.412  24.370  13.757  0.00  0.00    +0.004 A 
ATOM     10  C   UNL     1      30.815  23.030  13.675  0.00  0.00    -0.037 A 
ATOM     11  C   UNL     1      31.452  22.587  12.503  0.00  0.00    +0.023 A 
BRANCH   6  13
ATOM     12  N   UNL     1      32.854  22.634   9.279  0.00  0.00    -0.191 NA
ATOM     13  C   UNL     1      32.339  23.013  10.249  0.00  0.00    +0.099 C 
ENDBRANCH   6  13
ENDBRANCH   5  10
ENDBRANCH   1   5
BRANCH   3  14
ATOM     14  C   UNL     1      30.910  23.337  18.330  0.00  0.00    +0.108 C 
BRANCH  14  15
ATOM     15  C   UNL     1      31.828  22.676  19.376  0.00  0.00    +0.011 C 
ATOM     16  C   UNL     1      31.204  22.588  20.766  0.00  0.00    +0.033 C 
ATOM     17  C   UNL     1      30.884  23.976  21.300  0.00  0.00    +0.161 C 
ATOM     18  O   UNL     1      31.964  24.899  21.180  0.00  0.00    -0.373 OA
ATOM     19  C   UNL     1      32.843  24.901  20.018  0.00  0.00    +0.070 C 
ATOM     20  C   UNL     1      32.534  25.905  18.853  0.00  0.00    +0.035 C 
ATOM     21  C   UNL     1      33.384  26.948  19.580  0.00  0.00    +0.006 C 
ATOM     22  C   UNL     1      34.114  25.781  20.271  0.00  0.00    +0.035 C 
ATOM     23  C   UNL     1      33.139  23.474  19.537  0.00  0.00    +0.040 C 
ENDBRANCH  14  15
ENDBRANCH   3  14
TORSDOF 5
ENDMDL
