MODEL 1
REMARK VINA RESULT:      -6.3      0.000      0.000
REMARK  Name = ZINC001228612316
REMARK  5 active torsions:
REMARK  status: ('A' for Active; 'I' for Inactive)
REMARK    1  A    between atoms: C_2  and  C_4
REMARK    2  A    between atoms: C_8  and  O_9
REMARK    3  A    between atoms: O_9  and  C_10
REMARK    4  A    between atoms: C_10  and  C_11
REMARK    5  A    between atoms: C_10  and  C_17
REMARK                            x       y       z     vdW  Elec       q    Type
REMARK                         _______ _______ _______ _____ _____    ______ ____
ROOT
ATOM      1  C   UNL     1      33.203  23.612  10.378  0.00  0.00    +0.040 A 
ATOM      2  C   UNL     1      32.139  24.479  10.637  0.00  0.00    +0.013 A 
ATOM      3  C   UNL     1      31.452  24.384  11.850  0.00  0.00    +0.004 A 
ATOM      4  C   UNL     1      31.836  23.433  12.801  0.00  0.00    +0.046 A 
ATOM      5  C   UNL     1      32.905  22.570  12.549  0.00  0.00    +0.122 A 
ATOM      6  C   UNL     1      33.561  22.647  11.324  0.00  0.00    +0.058 A 
ENDROOT
BRANCH   1   8
ATOM      7  N   UNL     1      34.456  24.875   8.713  0.00  0.00    -0.325 N 
ATOM      8  C   UNL     1      34.000  23.657   9.126  0.00  0.00    +0.242 C 
ATOM      9  O   UNL     1      34.298  22.636   8.517  0.00  0.00    -0.270 OA
ATOM     10  H   UNL     1      35.115  24.858   7.943  0.00  0.00    +0.145 HD
ATOM     11  H   UNL     1      34.470  25.680   9.322  0.00  0.00    +0.145 HD
ENDBRANCH   1   8
BRANCH   5  12
ATOM     12  O   UNL     1      33.209  21.683  13.545  0.00  0.00    -0.484 OA
BRANCH  12  13
ATOM     13  C   UNL     1      32.210  20.711  13.903  0.00  0.00    +0.208 C 
BRANCH  13  14
ATOM     14  C   UNL     1      32.707  19.332  13.522  0.00  0.00    +0.011 A 
ATOM     15  C   UNL     1      32.175  18.196  14.147  0.00  0.00    +0.010 A 
ATOM     16  C   UNL     1      32.634  16.931  13.803  0.00  0.00    +0.020 A 
ATOM     17  C   UNL     1      33.619  16.838  12.836  0.00  0.00    +0.111 A 
ATOM     18  N   UNL     1      34.164  17.905  12.212  0.00  0.00    -0.263 NA
ATOM     19  C   UNL     1      33.698  19.126  12.571  0.00  0.00    +0.118 A 
ENDBRANCH  13  14
BRANCH  13  20
ATOM     20  C   UNL     1      31.943  20.783  15.391  0.00  0.00    +0.034 C 
ATOM     21  C   UNL     1      30.543  20.916  15.952  0.00  0.00    +0.008 C 
ATOM     22  C   UNL     1      31.485  22.077  16.035  0.00  0.00    +0.008 C 
ENDBRANCH  13  20
ENDBRANCH  12  13
ENDBRANCH   5  12
TORSDOF 5
ENDMDL
MODEL 2
REMARK VINA RESULT:      -6.3      3.945      6.135
REMARK  Name = ZINC001228612316
REMARK  5 active torsions:
REMARK  status: ('A' for Active; 'I' for Inactive)
REMARK    1  A    between atoms: C_2  and  C_4
REMARK    2  A    between atoms: C_8  and  O_9
REMARK    3  A    between atoms: O_9  and  C_10
REMARK    4  A    between atoms: C_10  and  C_11
REMARK    5  A    between atoms: C_10  and  C_17
REMARK                            x       y       z     vdW  Elec       q    Type
REMARK                         _______ _______ _______ _____ _____    ______ ____
ROOT
ATOM      1  C   UNL     1      34.932  24.857  17.238  0.00  0.00    +0.040 A 
ATOM      2  C   UNL     1      35.942  25.595  16.616  0.00  0.00    +0.013 A 
ATOM      3  C   UNL     1      36.399  25.209  15.353  0.00  0.00    +0.004 A 
ATOM      4  C   UNL     1      35.842  24.097  14.714  0.00  0.00    +0.046 A 
ATOM      5  C   UNL     1      34.826  23.362  15.330  0.00  0.00    +0.122 A 
ATOM      6  C   UNL     1      34.401  23.730  16.603  0.00  0.00    +0.058 A 
ENDROOT
BRANCH   1   8
ATOM      7  N   UNL     1      33.202  25.910  18.594  0.00  0.00    -0.325 N 
ATOM      8  C   UNL     1      34.373  25.207  18.568  0.00  0.00    +0.242 C 
ATOM      9  O   UNL     1      34.899  24.829  19.607  0.00  0.00    -0.270 OA
ATOM     10  H   UNL     1      32.770  26.007  19.505  0.00  0.00    +0.145 HD
ATOM     11  H   UNL     1      32.607  25.994  17.783  0.00  0.00    +0.145 HD
ENDBRANCH   1   8
BRANCH   5  12
ATOM     12  O   UNL     1      34.340  22.298  14.621  0.00  0.00    -0.484 OA
BRANCH  12  13
ATOM     13  C   UNL     1      32.950  22.325  14.244  0.00  0.00    +0.208 C 
BRANCH  13  14
ATOM     14  C   UNL     1      32.828  22.938  12.864  0.00  0.00    +0.011 A 
ATOM     15  C   UNL     1      31.851  23.911  12.611  0.00  0.00    +0.010 A 
ATOM     16  C   UNL     1      31.733  24.469  11.344  0.00  0.00    +0.020 A 
ATOM     17  C   UNL     1      32.603  24.035  10.360  0.00  0.00    +0.111 A 
ATOM     18  N   UNL     1      33.555  23.098  10.557  0.00  0.00    -0.263 NA
ATOM     19  C   UNL     1      33.644  22.569  11.802  0.00  0.00    +0.118 A 
ENDBRANCH  13  14
BRANCH  13  20
ATOM     20  C   UNL     1      32.397  20.917  14.246  0.00  0.00    +0.034 C 
ATOM     21  C   UNL     1      31.045  20.583  13.650  0.00  0.00    +0.008 C 
ATOM     22  C   UNL     1      31.228  20.545  15.136  0.00  0.00    +0.008 C 
ENDBRANCH  13  20
ENDBRANCH  12  13
ENDBRANCH   5  12
TORSDOF 5
ENDMDL
MODEL 3
REMARK VINA RESULT:      -6.0      1.313      1.390
REMARK  Name = ZINC001228612316
REMARK  5 active torsions:
REMARK  status: ('A' for Active; 'I' for Inactive)
REMARK    1  A    between atoms: C_2  and  C_4
REMARK    2  A    between atoms: C_8  and  O_9
REMARK    3  A    between atoms: O_9  and  C_10
REMARK    4  A    between atoms: C_10  and  C_11
REMARK    5  A    between atoms: C_10  and  C_17
REMARK                            x       y       z     vdW  Elec       q    Type
REMARK                         _______ _______ _______ _____ _____    ______ ____
ROOT
ATOM      1  C   UNL     1      32.799  23.738  10.179  0.00  0.00    +0.040 A 
ATOM      2  C   UNL     1      31.753  24.448  10.774  0.00  0.00    +0.013 A 
ATOM      3  C   UNL     1      31.537  24.334  12.149  0.00  0.00    +0.004 A 
ATOM      4  C   UNL     1      32.370  23.521  12.925  0.00  0.00    +0.046 A 
ATOM      5  C   UNL     1      33.423  22.817  12.335  0.00  0.00    +0.122 A 
ATOM      6  C   UNL     1      33.609  22.907  10.959  0.00  0.00    +0.058 A 
ENDROOT
BRANCH   1   8
ATOM      7  N   UNL     1      34.377  24.194   8.378  0.00  0.00    -0.325 N 
ATOM      8  C   UNL     1      33.113  23.817   8.730  0.00  0.00    +0.242 C 
ATOM      9  O   UNL     1      32.295  23.495   7.877  0.00  0.00    -0.270 OA
ATOM     10  H   UNL     1      34.605  24.098   7.396  0.00  0.00    +0.145 HD
ATOM     11  H   UNL     1      35.141  24.194   9.037  0.00  0.00    +0.145 HD
ENDBRANCH   1   8
BRANCH   5  12
ATOM     12  O   UNL     1      34.186  22.059  13.180  0.00  0.00    -0.484 OA
BRANCH  12  13
ATOM     13  C   UNL     1      33.512  21.351  14.237  0.00  0.00    +0.208 C 
BRANCH  13  14
ATOM     14  C   UNL     1      33.470  19.877  13.891  0.00  0.00    +0.011 A 
ATOM     15  C   UNL     1      32.350  19.107  14.232  0.00  0.00    +0.010 A 
ATOM     16  C   UNL     1      32.313  17.753  13.922  0.00  0.00    +0.020 A 
ATOM     17  C   UNL     1      33.404  17.205  13.272  0.00  0.00    +0.111 A 
ATOM     18  N   UNL     1      34.505  17.908  12.928  0.00  0.00    -0.263 NA
ATOM     19  C   UNL     1      34.515  19.225  13.248  0.00  0.00    +0.118 A 
ENDBRANCH  13  14
BRANCH  13  20
ATOM     20  C   UNL     1      34.249  21.565  15.540  0.00  0.00    +0.034 C 
ATOM     21  C   UNL     1      33.715  21.049  16.860  0.00  0.00    +0.008 C 
ATOM     22  C   UNL     1      33.711  22.522  16.587  0.00  0.00    +0.008 C 
ENDBRANCH  13  20
ENDBRANCH  12  13
ENDBRANCH   5  12
TORSDOF 5
ENDMDL
MODEL 4
REMARK VINA RESULT:      -6.0      2.384      4.197
REMARK  Name = ZINC001228612316
REMARK  5 active torsions:
REMARK  status: ('A' for Active; 'I' for Inactive)
REMARK    1  A    between atoms: C_2  and  C_4
REMARK    2  A    between atoms: C_8  and  O_9
REMARK    3  A    between atoms: O_9  and  C_10
REMARK    4  A    between atoms: C_10  and  C_11
REMARK    5  A    between atoms: C_10  and  C_17
REMARK                            x       y       z     vdW  Elec       q    Type
REMARK                         _______ _______ _______ _____ _____    ______ ____
ROOT
ATOM      1  C   UNL     1      34.424  21.102   8.170  0.00  0.00    +0.040 A 
ATOM      2  C   UNL     1      34.365  19.706   8.157  0.00  0.00    +0.013 A 
ATOM      3  C   UNL     1      34.183  19.013   9.356  0.00  0.00    +0.004 A 
ATOM      4  C   UNL     1      34.053  19.714  10.559  0.00  0.00    +0.046 A 
ATOM      5  C   UNL     1      34.103  21.110  10.575  0.00  0.00    +0.122 A 
ATOM      6  C   UNL     1      34.320  21.792   9.382  0.00  0.00    +0.058 A 
ENDROOT
BRANCH   1   8
ATOM      7  N   UNL     1      34.704  23.271   7.094  0.00  0.00    -0.325 N 
ATOM      8  C   UNL     1      34.594  21.919   6.942  0.00  0.00    +0.242 C 
ATOM      9  O   UNL     1      34.698  21.402   5.835  0.00  0.00    -0.270 OA
ATOM     10  H   UNL     1      34.964  23.785   6.261  0.00  0.00    +0.145 HD
ATOM     11  H   UNL     1      34.901  23.697   7.987  0.00  0.00    +0.145 HD
ENDBRANCH   1   8
BRANCH   5  12
ATOM     12  O   UNL     1      33.955  21.703  11.798  0.00  0.00    -0.484 OA
BRANCH  12  13
ATOM     13  C   UNL     1      32.651  22.206  12.144  0.00  0.00    +0.208 C 
BRANCH  13  14
ATOM     14  C   UNL     1      32.342  21.825  13.577  0.00  0.00    +0.011 A 
ATOM     15  C   UNL     1      31.235  21.017  13.868  0.00  0.00    +0.010 A 
ATOM     16  C   UNL     1      30.946  20.673  15.182  0.00  0.00    +0.020 A 
ATOM     17  C   UNL     1      31.783  21.148  16.176  0.00  0.00    +0.111 A 
ATOM     18  N   UNL     1      32.858  21.932  15.944  0.00  0.00    -0.263 NA
ATOM     19  C   UNL     1      33.111  22.255  14.652  0.00  0.00    +0.118 A 
ENDBRANCH  13  14
BRANCH  13  20
ATOM     20  C   UNL     1      32.628  23.710  11.983  0.00  0.00    +0.034 C 
ATOM     21  C   UNL     1      31.353  24.515  12.126  0.00  0.00    +0.008 C 
ATOM     22  C   UNL     1      31.974  24.349  10.773  0.00  0.00    +0.008 C 
ENDBRANCH  13  20
ENDBRANCH  12  13
ENDBRANCH   5  12
TORSDOF 5
ENDMDL
MODEL 5
REMARK VINA RESULT:      -5.8      4.171      5.854
REMARK  Name = ZINC001228612316
REMARK  5 active torsions:
REMARK  status: ('A' for Active; 'I' for Inactive)
REMARK    1  A    between atoms: C_2  and  C_4
REMARK    2  A    between atoms: C_8  and  O_9
REMARK    3  A    between atoms: O_9  and  C_10
REMARK    4  A    between atoms: C_10  and  C_11
REMARK    5  A    between atoms: C_10  and  C_17
REMARK                            x       y       z     vdW  Elec       q    Type
REMARK                         _______ _______ _______ _____ _____    ______ ____
ROOT
ATOM      1  C   UNL     1      32.338  20.567  15.996  0.00  0.00    +0.040 A 
ATOM      2  C   UNL     1      33.174  20.622  17.114  0.00  0.00    +0.013 A 
ATOM      3  C   UNL     1      34.321  19.825  17.156  0.00  0.00    +0.004 A 
ATOM      4  C   UNL     1      34.633  18.987  16.080  0.00  0.00    +0.046 A 
ATOM      5  C   UNL     1      33.804  18.936  14.957  0.00  0.00    +0.122 A 
ATOM      6  C   UNL     1      32.645  19.705  14.938  0.00  0.00    +0.058 A 
ENDROOT
BRANCH   1   8
ATOM      7  N   UNL     1      31.206  22.545  15.132  0.00  0.00    -0.325 N 
ATOM      8  C   UNL     1      31.112  21.393  15.858  0.00  0.00    +0.242 C 
ATOM      9  O   UNL     1      30.037  21.030  16.321  0.00  0.00    -0.270 OA
ATOM     10  H   UNL     1      30.328  23.009  14.932  0.00  0.00    +0.145 HD
ATOM     11  H   UNL     1      31.983  22.730  14.515  0.00  0.00    +0.145 HD
ENDBRANCH   1   8
BRANCH   5  12
ATOM     12  O   UNL     1      34.200  18.094  13.955  0.00  0.00    -0.484 OA
BRANCH  12  13
ATOM     13  C   UNL     1      33.932  16.689  14.117  0.00  0.00    +0.208 C 
BRANCH  13  14
ATOM     14  C   UNL     1      33.344  16.150  12.829  0.00  0.00    +0.011 A 
ATOM     15  C   UNL     1      32.152  15.415  12.855  0.00  0.00    +0.010 A 
ATOM     16  C   UNL     1      31.615  14.914  11.675  0.00  0.00    +0.020 A 
ATOM     17  C   UNL     1      32.290  15.168  10.495  0.00  0.00    +0.111 A 
ATOM     18  N   UNL     1      33.443  15.867  10.424  0.00  0.00    -0.263 NA
ATOM     19  C   UNL     1      33.945  16.339  11.591  0.00  0.00    +0.118 A 
ENDBRANCH  13  14
BRANCH  13  20
ATOM     20  C   UNL     1      35.216  15.963  14.453  0.00  0.00    +0.034 C 
ATOM     21  C   UNL     1      35.257  14.467  14.686  0.00  0.00    +0.008 C 
ATOM     22  C   UNL     1      35.447  15.400  15.842  0.00  0.00    +0.008 C 
ENDBRANCH  13  20
ENDBRANCH  12  13
ENDBRANCH   5  12
TORSDOF 5
ENDMDL
MODEL 6
REMARK VINA RESULT:      -5.8      3.630      5.811
REMARK  Name = ZINC001228612316
REMARK  5 active torsions:
REMARK  status: ('A' for Active; 'I' for Inactive)
REMARK    1  A    between atoms: C_2  and  C_4
REMARK    2  A    between atoms: C_8  and  O_9
REMARK    3  A    between atoms: O_9  and  C_10
REMARK    4  A    between atoms: C_10  and  C_11
REMARK    5  A    between atoms: C_10  and  C_17
REMARK                            x       y       z     vdW  Elec       q    Type
REMARK                         _______ _______ _______ _____ _____    ______ ____
ROOT
ATOM      1  C   UNL     1      32.180  20.065  14.917  0.00  0.00    +0.040 A 
ATOM      2  C   UNL     1      33.170  20.221  15.891  0.00  0.00    +0.013 A 
ATOM      3  C   UNL     1      33.951  19.124  16.262  0.00  0.00    +0.004 A 
ATOM      4  C   UNL     1      33.749  17.881  15.653  0.00  0.00    +0.046 A 
ATOM      5  C   UNL     1      32.767  17.723  14.673  0.00  0.00    +0.122 A 
ATOM      6  C   UNL     1      31.968  18.811  14.335  0.00  0.00    +0.058 A 
ENDROOT
BRANCH   1   8
ATOM      7  N   UNL     1      31.107  22.217  15.310  0.00  0.00    -0.325 N 
ATOM      8  C   UNL     1      31.319  21.180  14.449  0.00  0.00    +0.242 C 
ATOM      9  O   UNL     1      30.866  21.207  13.311  0.00  0.00    -0.270 OA
ATOM     10  H   UNL     1      30.641  23.025  14.916  0.00  0.00    +0.145 HD
ATOM     11  H   UNL     1      31.678  22.361  16.130  0.00  0.00    +0.145 HD
ENDBRANCH   1   8
BRANCH   5  12
ATOM     12  O   UNL     1      32.655  16.472  14.131  0.00  0.00    -0.484 OA
BRANCH  12  13
ATOM     13  C   UNL     1      32.698  16.359  12.697  0.00  0.00    +0.208 C 
BRANCH  13  14
ATOM     14  C   UNL     1      34.116  16.604  12.227  0.00  0.00    +0.011 A 
ATOM     15  C   UNL     1      35.171  15.840  12.745  0.00  0.00    +0.010 A 
ATOM     16  C   UNL     1      36.473  16.068  12.320  0.00  0.00    +0.020 A 
ATOM     17  C   UNL     1      36.685  17.060  11.380  0.00  0.00    +0.111 A 
ATOM     18  N   UNL     1      35.702  17.824  10.857  0.00  0.00    -0.263 NA
ATOM     19  C   UNL     1      34.442  17.581  11.294  0.00  0.00    +0.118 A 
ENDBRANCH  13  14
BRANCH  13  20
ATOM     20  C   UNL     1      32.237  14.978  12.283  0.00  0.00    +0.034 C 
ATOM     21  C   UNL     1      32.435  14.452  10.877  0.00  0.00    +0.008 C 
ATOM     22  C   UNL     1      31.057  14.803  11.348  0.00  0.00    +0.008 C 
ENDBRANCH  13  20
ENDBRANCH  12  13
ENDBRANCH   5  12
TORSDOF 5
ENDMDL
MODEL 7
REMARK VINA RESULT:      -5.8      2.554      3.441
REMARK  Name = ZINC001228612316
REMARK  5 active torsions:
REMARK  status: ('A' for Active; 'I' for Inactive)
REMARK    1  A    between atoms: C_2  and  C_4
REMARK    2  A    between atoms: C_8  and  O_9
REMARK    3  A    between atoms: O_9  and  C_10
REMARK    4  A    between atoms: C_10  and  C_11
REMARK    5  A    between atoms: C_10  and  C_17
REMARK                            x       y       z     vdW  Elec       q    Type
REMARK                         _______ _______ _______ _____ _____    ______ ____
ROOT
ATOM      1  C   UNL     1      33.703  23.074  10.762  0.00  0.00    +0.040 A 
ATOM      2  C   UNL     1      32.767  24.006  10.305  0.00  0.00    +0.013 A 
ATOM      3  C   UNL     1      31.776  24.470  11.174  0.00  0.00    +0.004 A 
ATOM      4  C   UNL     1      31.729  24.011  12.494  0.00  0.00    +0.046 A 
ATOM      5  C   UNL     1      32.669  23.086  12.957  0.00  0.00    +0.122 A 
ATOM      6  C   UNL     1      33.630  22.602  12.076  0.00  0.00    +0.058 A 
ENDROOT
BRANCH   1   8
ATOM      7  N   UNL     1      34.504  22.235   8.619  0.00  0.00    -0.325 N 
ATOM      8  C   UNL     1      34.801  22.544   9.915  0.00  0.00    +0.242 C 
ATOM      9  O   UNL     1      35.947  22.446  10.335  0.00  0.00    -0.270 OA
ATOM     10  H   UNL     1      35.297  22.017   8.028  0.00  0.00    +0.145 HD
ATOM     11  H   UNL     1      33.661  22.560   8.168  0.00  0.00    +0.145 HD
ENDBRANCH   1   8
BRANCH   5  12
ATOM     12  O   UNL     1      32.545  22.708  14.265  0.00  0.00    -0.484 OA
BRANCH  12  13
ATOM     13  C   UNL     1      33.028  21.402  14.633  0.00  0.00    +0.208 C 
BRANCH  13  14
ATOM     14  C   UNL     1      33.836  21.519  15.909  0.00  0.00    +0.011 A 
ATOM     15  C   UNL     1      33.869  20.455  16.820  0.00  0.00    +0.010 A 
ATOM     16  C   UNL     1      34.604  20.563  17.994  0.00  0.00    +0.020 A 
ATOM     17  C   UNL     1      35.291  21.742  18.224  0.00  0.00    +0.111 A 
ATOM     18  N   UNL     1      35.284  22.794  17.377  0.00  0.00    -0.263 NA
ATOM     19  C   UNL     1      34.555  22.661  16.242  0.00  0.00    +0.118 A 
ENDBRANCH  13  14
BRANCH  13  20
ATOM     20  C   UNL     1      31.857  20.466  14.834  0.00  0.00    +0.034 C 
ATOM     21  C   UNL     1      31.857  19.051  14.293  0.00  0.00    +0.008 C 
ATOM     22  C   UNL     1      30.964  20.081  13.671  0.00  0.00    +0.008 C 
ENDBRANCH  13  20
ENDBRANCH  12  13
ENDBRANCH   5  12
TORSDOF 5
ENDMDL
MODEL 8
REMARK VINA RESULT:      -5.7      4.046      5.245
REMARK  Name = ZINC001228612316
REMARK  5 active torsions:
REMARK  status: ('A' for Active; 'I' for Inactive)
REMARK    1  A    between atoms: C_2  and  C_4
REMARK    2  A    between atoms: C_8  and  O_9
REMARK    3  A    between atoms: O_9  and  C_10
REMARK    4  A    between atoms: C_10  and  C_11
REMARK    5  A    between atoms: C_10  and  C_17
REMARK                            x       y       z     vdW  Elec       q    Type
REMARK                         _______ _______ _______ _____ _____    ______ ____
ROOT
ATOM      1  C   UNL     1      33.075  21.434  16.102  0.00  0.00    +0.040 A 
ATOM      2  C   UNL     1      31.684  21.561  16.122  0.00  0.00    +0.013 A 
ATOM      3  C   UNL     1      30.904  20.723  15.320  0.00  0.00    +0.004 A 
ATOM      4  C   UNL     1      31.515  19.758  14.512  0.00  0.00    +0.046 A 
ATOM      5  C   UNL     1      32.905  19.623  14.496  0.00  0.00    +0.122 A 
ATOM      6  C   UNL     1      33.676  20.485  15.270  0.00  0.00    +0.058 A 
ENDROOT
BRANCH   1   8
ATOM      7  N   UNL     1      33.961  23.617  16.727  0.00  0.00    -0.325 N 
ATOM      8  C   UNL     1      33.977  22.268  16.936  0.00  0.00    +0.242 C 
ATOM      9  O   UNL     1      34.664  21.779  17.825  0.00  0.00    -0.270 OA
ATOM     10  H   UNL     1      34.473  24.170  17.404  0.00  0.00    +0.145 HD
ATOM     11  H   UNL     1      33.222  24.073  16.213  0.00  0.00    +0.145 HD
ENDBRANCH   1   8
BRANCH   5  12
ATOM     12  O   UNL     1      33.405  18.645  13.682  0.00  0.00    -0.484 OA
BRANCH  12  13
ATOM     13  C   UNL     1      33.135  17.276  14.037  0.00  0.00    +0.208 C 
BRANCH  13  14
ATOM     14  C   UNL     1      32.923  16.473  12.771  0.00  0.00    +0.011 A 
ATOM     15  C   UNL     1      31.878  15.542  12.695  0.00  0.00    +0.010 A 
ATOM     16  C   UNL     1      31.688  14.800  11.536  0.00  0.00    +0.020 A 
ATOM     17  C   UNL     1      32.554  15.012  10.479  0.00  0.00    +0.111 A 
ATOM     18  N   UNL     1      33.576  15.894  10.509  0.00  0.00    -0.263 NA
ATOM     19  C   UNL     1      33.740  16.601  11.654  0.00  0.00    +0.118 A 
ENDBRANCH  13  14
BRANCH  13  20
ATOM     20  C   UNL     1      34.298  16.718  14.827  0.00  0.00    +0.034 C 
ATOM     21  C   UNL     1      34.299  15.302  15.366  0.00  0.00    +0.008 C 
ATOM     22  C   UNL     1      34.168  16.453  16.315  0.00  0.00    +0.008 C 
ENDBRANCH  13  20
ENDBRANCH  12  13
ENDBRANCH   5  12
TORSDOF 5
ENDMDL
MODEL 9
REMARK VINA RESULT:      -5.7      3.647      6.531
REMARK  Name = ZINC001228612316
REMARK  5 active torsions:
REMARK  status: ('A' for Active; 'I' for Inactive)
REMARK    1  A    between atoms: C_2  and  C_4
REMARK    2  A    between atoms: C_8  and  O_9
REMARK    3  A    between atoms: O_9  and  C_10
REMARK    4  A    between atoms: C_10  and  C_11
REMARK    5  A    between atoms: C_10  and  C_17
REMARK                            x       y       z     vdW  Elec       q    Type
REMARK                         _______ _______ _______ _____ _____    ______ ____
ROOT
ATOM      1  C   UNL     1      37.501  26.943   9.078  0.00  0.00    +0.040 A 
ATOM      2  C   UNL     1      38.410  25.986   8.620  0.00  0.00    +0.013 A 
ATOM      3  C   UNL     1      37.956  24.706   8.290  0.00  0.00    +0.004 A 
ATOM      4  C   UNL     1      36.598  24.392   8.409  0.00  0.00    +0.046 A 
ATOM      5  C   UNL     1      35.685  25.349   8.859  0.00  0.00    +0.122 A 
ATOM      6  C   UNL     1      36.151  26.609   9.220  0.00  0.00    +0.058 A 
ENDROOT
BRANCH   1   8
ATOM      7  N   UNL     1      36.922  29.289   9.391  0.00  0.00    -0.325 N 
ATOM      8  C   UNL     1      37.893  28.331   9.431  0.00  0.00    +0.242 C 
ATOM      9  O   UNL     1      39.027  28.603   9.807  0.00  0.00    -0.270 OA
ATOM     10  H   UNL     1      37.181  30.190   9.775  0.00  0.00    +0.145 HD
ATOM     11  H   UNL     1      35.940  29.059   9.360  0.00  0.00    +0.145 HD
ENDBRANCH   1   8
BRANCH   5  12
ATOM     12  O   UNL     1      34.380  24.947   8.931  0.00  0.00    -0.484 OA
BRANCH  12  13
ATOM     13  C   UNL     1      34.122  23.562   9.227  0.00  0.00    +0.208 C 
BRANCH  13  14
ATOM     14  C   UNL     1      33.350  23.474  10.527  0.00  0.00    +0.011 A 
ATOM     15  C   UNL     1      32.247  24.310  10.749  0.00  0.00    +0.010 A 
ATOM     16  C   UNL     1      31.542  24.235  11.943  0.00  0.00    +0.020 A 
ATOM     17  C   UNL     1      31.963  23.317  12.889  0.00  0.00    +0.111 A 
ATOM     18  N   UNL     1      33.022  22.496  12.722  0.00  0.00    -0.263 NA
ATOM     19  C   UNL     1      33.693  22.595  11.548  0.00  0.00    +0.118 A 
ENDBRANCH  13  14
BRANCH  13  20
ATOM     20  C   UNL     1      33.326  22.942   8.100  0.00  0.00    +0.034 C 
ATOM     21  C   UNL     1      33.151  21.443   7.969  0.00  0.00    +0.008 C 
ATOM     22  C   UNL     1      34.021  22.173   6.993  0.00  0.00    +0.008 C 
ENDBRANCH  13  20
ENDBRANCH  12  13
ENDBRANCH   5  12
TORSDOF 5
ENDMDL
