MODEL 1
REMARK VINA RESULT:      -6.4      0.000      0.000
REMARK  Name = ZINC000329563636
REMARK  3 active torsions:
REMARK  status: ('A' for Active; 'I' for Inactive)
REMARK    1  A    between atoms: C_1  and  C_2
REMARK    2  A    between atoms: C_2  and  N_3
REMARK    3  A    between atoms: N_9  and  C_10
REMARK                            x       y       z     vdW  Elec       q    Type
REMARK                         _______ _______ _______ _____ _____    ______ ____
ROOT
ATOM      1  C   UNL     1      34.749  22.398  12.210  0.00  0.00    +0.112 C 
ATOM      2  C   UNL     1      35.054  21.511  13.421  0.00  0.00    +0.075 C 
ATOM      3  C   UNL     1      33.901  21.364  14.425  0.00  0.00    +0.113 C 
ATOM      4  C   UNL     1      32.864  20.267  14.070  0.00  0.00    +0.048 C 
ATOM      5  C   UNL     1      33.024  19.172  15.119  0.00  0.00    +0.004 C 
ATOM      6  C   UNL     1      33.505  19.909  16.352  0.00  0.00    +0.004 C 
ATOM      7  C   UNL     1      34.493  20.913  15.784  0.00  0.00    +0.048 C 
ATOM      8  O   UNL     1      33.226  22.617  14.651  0.00  0.00    -0.485 OA
ATOM      9  C   UNL     1      32.737  23.178  13.501  0.00  0.00    +0.126 A 
ATOM     10  C   UNL     1      31.528  23.865  13.583  0.00  0.00    +0.046 A 
ATOM     11  C   UNL     1      30.963  24.423  12.435  0.00  0.00    +0.004 A 
ATOM     12  C   UNL     1      31.617  24.311  11.211  0.00  0.00    +0.001 A 
ATOM     13  C   UNL     1      32.843  23.650  11.139  0.00  0.00    +0.009 A 
ATOM     14  C   UNL     1      33.413  23.077  12.288  0.00  0.00    +0.015 A 
ENDROOT
BRANCH   1  21
ATOM     15  N   UNL     1      38.376  27.199  10.366  0.00  0.00    -0.299 N 
ATOM     16  C   UNL     1      37.980  26.289   9.292  0.00  0.00    +0.127 C 
ATOM     17  C   UNL     1      38.181  24.825   9.672  0.00  0.00    +0.129 C 
ATOM     18  N   UNL     1      37.450  24.551  10.901  0.00  0.00    -0.275 N 
ATOM     19  C   UNL     1      36.463  23.593  10.893  0.00  0.00    +0.303 C 
ATOM     20  O   UNL     1      36.174  22.949   9.886  0.00  0.00    -0.253 OA
ATOM     21  N   UNL     1      35.790  23.416  12.068  0.00  0.00    -0.292 N 
ATOM     22  C   UNL     1      37.832  25.398  12.034  0.00  0.00    +0.205 C 
ATOM     23  C   UNL     1      38.366  26.807  11.700  0.00  0.00    +0.233 C 
ATOM     24  O   UNL     1      38.753  27.549  12.605  0.00  0.00    -0.274 OA
ATOM     25  H   UNL     1      36.257  23.667  12.923  0.00  0.00    +0.151 HD
BRANCH  15  27
ATOM     26  C   UNL     1      37.463  29.298   9.438  0.00  0.00    +0.024 C 
ATOM     27  C   UNL     1      38.671  28.586  10.022  0.00  0.00    +0.104 C 
ENDBRANCH  15  27
ENDBRANCH   1  21
TORSDOF 2
ENDMDL
MODEL 2
REMARK VINA RESULT:      -6.3      6.091      9.401
REMARK  Name = ZINC000329563636
REMARK  3 active torsions:
REMARK  status: ('A' for Active; 'I' for Inactive)
REMARK    1  A    between atoms: C_1  and  C_2
REMARK    2  A    between atoms: C_2  and  N_3
REMARK    3  A    between atoms: N_9  and  C_10
REMARK                            x       y       z     vdW  Elec       q    Type
REMARK                         _______ _______ _______ _____ _____    ______ ____
ROOT
ATOM      1  C   UNL     1      34.518  19.125  14.290  0.00  0.00    +0.112 C 
ATOM      2  C   UNL     1      33.322  20.079  14.211  0.00  0.00    +0.075 C 
ATOM      3  C   UNL     1      32.888  20.688  15.553  0.00  0.00    +0.113 C 
ATOM      4  C   UNL     1      33.678  21.953  15.979  0.00  0.00    +0.048 C 
ATOM      5  C   UNL     1      32.697  23.117  15.900  0.00  0.00    +0.004 C 
ATOM      6  C   UNL     1      31.349  22.483  16.181  0.00  0.00    +0.004 C 
ATOM      7  C   UNL     1      31.423  21.174  15.416  0.00  0.00    +0.048 C 
ATOM      8  O   UNL     1      32.916  19.716  16.615  0.00  0.00    -0.485 OA
ATOM      9  C   UNL     1      34.144  19.131  16.776  0.00  0.00    +0.126 A 
ATOM     10  C   UNL     1      34.543  18.817  18.074  0.00  0.00    +0.046 A 
ATOM     11  C   UNL     1      35.801  18.257  18.301  0.00  0.00    +0.004 A 
ATOM     12  C   UNL     1      36.651  17.992  17.229  0.00  0.00    +0.001 A 
ATOM     13  C   UNL     1      36.234  18.279  15.929  0.00  0.00    +0.009 A 
ATOM     14  C   UNL     1      34.974  18.853  15.693  0.00  0.00    +0.015 A 
ENDROOT
BRANCH   1  21
ATOM     15  N   UNL     1      34.559  13.331  11.834  0.00  0.00    -0.299 N 
ATOM     16  C   UNL     1      35.690  14.168  11.436  0.00  0.00    +0.127 C 
ATOM     17  C   UNL     1      35.250  15.560  10.993  0.00  0.00    +0.129 C 
ATOM     18  N   UNL     1      34.482  16.176  12.066  0.00  0.00    -0.275 N 
ATOM     19  C   UNL     1      34.928  17.356  12.617  0.00  0.00    +0.303 C 
ATOM     20  O   UNL     1      35.953  17.918  12.235  0.00  0.00    -0.253 OA
ATOM     21  N   UNL     1      34.182  17.856  13.645  0.00  0.00    -0.292 N 
ATOM     22  C   UNL     1      33.304  15.411  12.483  0.00  0.00    +0.205 C 
ATOM     23  C   UNL     1      33.371  13.879  12.304  0.00  0.00    +0.233 C 
ATOM     24  O   UNL     1      32.393  13.184  12.588  0.00  0.00    -0.274 OA
ATOM     25  H   UNL     1      33.210  17.600  13.693  0.00  0.00    +0.151 HD
BRANCH  15  27
ATOM     26  C   UNL     1      34.960  11.323  10.453  0.00  0.00    +0.024 C 
ATOM     27  C   UNL     1      34.742  11.884  11.848  0.00  0.00    +0.104 C 
ENDBRANCH  15  27
ENDBRANCH   1  21
TORSDOF 2
ENDMDL
MODEL 3
REMARK VINA RESULT:      -6.2      3.595      5.228
REMARK  Name = ZINC000329563636
REMARK  3 active torsions:
REMARK  status: ('A' for Active; 'I' for Inactive)
REMARK    1  A    between atoms: C_1  and  C_2
REMARK    2  A    between atoms: C_2  and  N_3
REMARK    3  A    between atoms: N_9  and  C_10
REMARK                            x       y       z     vdW  Elec       q    Type
REMARK                         _______ _______ _______ _____ _____    ______ ____
ROOT
ATOM      1  C   UNL     1      33.428  22.832  12.451  0.00  0.00    +0.112 C 
ATOM      2  C   UNL     1      32.210  22.115  13.044  0.00  0.00    +0.075 C 
ATOM      3  C   UNL     1      32.374  21.656  14.501  0.00  0.00    +0.113 C 
ATOM      4  C   UNL     1      32.065  22.742  15.564  0.00  0.00    +0.048 C 
ATOM      5  C   UNL     1      30.791  22.298  16.273  0.00  0.00    +0.004 C 
ATOM      6  C   UNL     1      30.830  20.785  16.187  0.00  0.00    +0.004 C 
ATOM      7  C   UNL     1      31.337  20.537  14.778  0.00  0.00    +0.048 C 
ATOM      8  O   UNL     1      33.678  21.096  14.742  0.00  0.00    -0.485 OA
ATOM      9  C   UNL     1      34.698  21.958  14.438  0.00  0.00    +0.126 A 
ATOM     10  C   UNL     1      35.834  21.924  15.245  0.00  0.00    +0.046 A 
ATOM     11  C   UNL     1      36.886  22.809  15.006  0.00  0.00    +0.004 A 
ATOM     12  C   UNL     1      36.812  23.712  13.948  0.00  0.00    +0.001 A 
ATOM     13  C   UNL     1      35.688  23.721  13.123  0.00  0.00    +0.009 A 
ATOM     14  C   UNL     1      34.619  22.841  13.364  0.00  0.00    +0.015 A 
ENDROOT
BRANCH   1  21
ATOM     15  N   UNL     1      35.974  21.368   6.886  0.00  0.00    -0.299 N 
ATOM     16  C   UNL     1      35.508  22.750   6.996  0.00  0.00    +0.127 C 
ATOM     17  C   UNL     1      34.105  22.839   7.588  0.00  0.00    +0.129 C 
ATOM     18  N   UNL     1      34.092  22.167   8.879  0.00  0.00    -0.275 N 
ATOM     19  C   UNL     1      33.756  22.884  10.005  0.00  0.00    +0.303 C 
ATOM     20  O   UNL     1      33.458  24.077   9.964  0.00  0.00    -0.253 OA
ATOM     21  N   UNL     1      33.805  22.202  11.186  0.00  0.00    -0.292 N 
ATOM     22  C   UNL     1      34.505  20.761   8.833  0.00  0.00    +0.205 C 
ATOM     23  C   UNL     1      35.492  20.363   7.716  0.00  0.00    +0.233 C 
ATOM     24  O   UNL     1      35.838  19.186   7.592  0.00  0.00    -0.274 OA
ATOM     25  H   UNL     1      33.694  21.202  11.160  0.00  0.00    +0.151 HD
BRANCH  15  27
ATOM     26  C   UNL     1      36.587  21.047   4.515  0.00  0.00    +0.024 C 
ATOM     27  C   UNL     1      37.062  21.079   5.957  0.00  0.00    +0.104 C 
ENDBRANCH  15  27
ENDBRANCH   1  21
TORSDOF 2
ENDMDL
MODEL 4
REMARK VINA RESULT:      -6.1      1.888      2.234
REMARK  Name = ZINC000329563636
REMARK  3 active torsions:
REMARK  status: ('A' for Active; 'I' for Inactive)
REMARK    1  A    between atoms: C_1  and  C_2
REMARK    2  A    between atoms: C_2  and  N_3
REMARK    3  A    between atoms: N_9  and  C_10
REMARK                            x       y       z     vdW  Elec       q    Type
REMARK                         _______ _______ _______ _____ _____    ______ ____
ROOT
ATOM      1  C   UNL     1      34.745  22.496  13.303  0.00  0.00    +0.112 C 
ATOM      2  C   UNL     1      34.072  22.160  14.637  0.00  0.00    +0.075 C 
ATOM      3  C   UNL     1      32.541  22.285  14.641  0.00  0.00    +0.113 C 
ATOM      4  C   UNL     1      31.784  21.038  14.115  0.00  0.00    +0.048 C 
ATOM      5  C   UNL     1      31.066  20.435  15.317  0.00  0.00    +0.004 C 
ATOM      6  C   UNL     1      30.789  21.623  16.216  0.00  0.00    +0.004 C 
ATOM      7  C   UNL     1      32.068  22.435  16.110  0.00  0.00    +0.048 C 
ATOM      8  O   UNL     1      32.099  23.458  13.931  0.00  0.00    -0.485 OA
ATOM      9  C   UNL     1      32.538  23.498  12.634  0.00  0.00    +0.126 A 
ATOM     10  C   UNL     1      31.681  24.043  11.680  0.00  0.00    +0.046 A 
ATOM     11  C   UNL     1      32.060  24.073  10.337  0.00  0.00    +0.004 A 
ATOM     12  C   UNL     1      33.304  23.578   9.953  0.00  0.00    +0.001 A 
ATOM     13  C   UNL     1      34.172  23.063  10.915  0.00  0.00    +0.009 A 
ATOM     14  C   UNL     1      33.793  23.019  12.268  0.00  0.00    +0.015 A 
ENDROOT
BRANCH   1  21
ATOM     15  N   UNL     1      39.435  26.646  12.680  0.00  0.00    -0.299 N 
ATOM     16  C   UNL     1      39.635  25.391  11.957  0.00  0.00    +0.127 C 
ATOM     17  C   UNL     1      39.336  24.172  12.825  0.00  0.00    +0.129 C 
ATOM     18  N   UNL     1      37.979  24.281  13.342  0.00  0.00    -0.275 N 
ATOM     19  C   UNL     1      37.065  23.300  13.034  0.00  0.00    +0.303 C 
ATOM     20  O   UNL     1      37.349  22.325  12.340  0.00  0.00    -0.253 OA
ATOM     21  N   UNL     1      35.802  23.485  13.517  0.00  0.00    -0.292 N 
ATOM     22  C   UNL     1      37.724  25.497  14.119  0.00  0.00    +0.205 C 
ATOM     23  C   UNL     1      38.560  26.742  13.756  0.00  0.00    +0.233 C 
ATOM     24  O   UNL     1      38.429  27.781  14.406  0.00  0.00    -0.274 OA
ATOM     25  H   UNL     1      35.688  24.056  14.339  0.00  0.00    +0.151 HD
BRANCH  15  27
ATOM     26  C   UNL     1      39.574  28.234  10.793  0.00  0.00    +0.024 C 
ATOM     27  C   UNL     1      40.087  27.848  12.170  0.00  0.00    +0.104 C 
ENDBRANCH  15  27
ENDBRANCH   1  21
TORSDOF 2
ENDMDL
MODEL 5
REMARK VINA RESULT:      -6.1     13.716     15.420
REMARK  Name = ZINC000329563636
REMARK  3 active torsions:
REMARK  status: ('A' for Active; 'I' for Inactive)
REMARK    1  A    between atoms: C_1  and  C_2
REMARK    2  A    between atoms: C_2  and  N_3
REMARK    3  A    between atoms: N_9  and  C_10
REMARK                            x       y       z     vdW  Elec       q    Type
REMARK                         _______ _______ _______ _____ _____    ______ ____
ROOT
ATOM      1  C   UNL     1      24.662  34.673  16.097  0.00  0.00    +0.112 C 
ATOM      2  C   UNL     1      23.840  33.641  15.318  0.00  0.00    +0.075 C 
ATOM      3  C   UNL     1      24.145  32.175  15.662  0.00  0.00    +0.113 C 
ATOM      4  C   UNL     1      23.387  31.625  16.898  0.00  0.00    +0.048 C 
ATOM      5  C   UNL     1      22.397  30.594  16.369  0.00  0.00    +0.004 C 
ATOM      6  C   UNL     1      23.064  30.048  15.123  0.00  0.00    +0.004 C 
ATOM      7  C   UNL     1      23.662  31.289  14.485  0.00  0.00    +0.048 C 
ATOM      8  O   UNL     1      25.558  31.945  15.814  0.00  0.00    -0.485 OA
ATOM      9  C   UNL     1      26.134  32.746  16.765  0.00  0.00    +0.126 A 
ATOM     10  C   UNL     1      27.161  32.200  17.533  0.00  0.00    +0.046 A 
ATOM     11  C   UNL     1      27.756  32.958  18.543  0.00  0.00    +0.004 A 
ATOM     12  C   UNL     1      27.337  34.267  18.771  0.00  0.00    +0.001 A 
ATOM     13  C   UNL     1      26.331  34.820  17.980  0.00  0.00    +0.009 A 
ATOM     14  C   UNL     1      25.719  34.060  16.968  0.00  0.00    +0.015 A 
ENDROOT
BRANCH   1  21
ATOM     15  N   UNL     1      27.978  39.290  13.397  0.00  0.00    -0.299 N 
ATOM     16  C   UNL     1      27.168  39.711  14.539  0.00  0.00    +0.127 C 
ATOM     17  C   UNL     1      25.742  39.176  14.464  0.00  0.00    +0.129 C 
ATOM     18  N   UNL     1      25.787  37.726  14.347  0.00  0.00    -0.275 N 
ATOM     19  C   UNL     1      25.182  36.957  15.315  0.00  0.00    +0.303 C 
ATOM     20  O   UNL     1      24.595  37.447  16.279  0.00  0.00    -0.253 OA
ATOM     21  N   UNL     1      25.297  35.605  15.165  0.00  0.00    -0.292 N 
ATOM     22  C   UNL     1      26.545  37.235  13.193  0.00  0.00    +0.205 C 
ATOM     23  C   UNL     1      27.695  38.129  12.686  0.00  0.00    +0.233 C 
ATOM     24  O   UNL     1      28.338  37.797  11.687  0.00  0.00    -0.274 OA
ATOM     25  H   UNL     1      25.446  35.242  14.238  0.00  0.00    +0.151 HD
BRANCH  15  27
ATOM     26  C   UNL     1      30.383  39.577  13.882  0.00  0.00    +0.024 C 
ATOM     27  C   UNL     1      29.181  40.054  13.084  0.00  0.00    +0.104 C 
ENDBRANCH  15  27
ENDBRANCH   1  21
TORSDOF 2
ENDMDL
MODEL 6
REMARK VINA RESULT:      -6.0      5.334      8.219
REMARK  Name = ZINC000329563636
REMARK  3 active torsions:
REMARK  status: ('A' for Active; 'I' for Inactive)
REMARK    1  A    between atoms: C_1  and  C_2
REMARK    2  A    between atoms: C_2  and  N_3
REMARK    3  A    between atoms: N_9  and  C_10
REMARK                            x       y       z     vdW  Elec       q    Type
REMARK                         _______ _______ _______ _____ _____    ______ ____
ROOT
ATOM      1  C   UNL     1      34.668  16.176  12.744  0.00  0.00    +0.112 C 
ATOM      2  C   UNL     1      33.783  14.931  12.863  0.00  0.00    +0.075 C 
ATOM      3  C   UNL     1      33.747  14.039  11.612  0.00  0.00    +0.113 C 
ATOM      4  C   UNL     1      34.910  13.019  11.506  0.00  0.00    +0.048 C 
ATOM      5  C   UNL     1      34.288  11.639  11.686  0.00  0.00    +0.004 C 
ATOM      6  C   UNL     1      32.878  11.799  11.153  0.00  0.00    +0.004 C 
ATOM      7  C   UNL     1      32.469  13.165  11.676  0.00  0.00    +0.048 C 
ATOM      8  O   UNL     1      33.669  14.817  10.403  0.00  0.00    -0.485 OA
ATOM      9  C   UNL     1      34.699  15.712  10.273  0.00  0.00    +0.126 A 
ATOM     10  C   UNL     1      35.191  15.946   8.990  0.00  0.00    +0.046 A 
ATOM     11  C   UNL     1      36.265  16.817   8.803  0.00  0.00    +0.004 A 
ATOM     12  C   UNL     1      36.833  17.469   9.896  0.00  0.00    +0.001 A 
ATOM     13  C   UNL     1      36.316  17.256  11.174  0.00  0.00    +0.009 A 
ATOM     14  C   UNL     1      35.242  16.372  11.371  0.00  0.00    +0.015 A 
ENDROOT
BRANCH   1  21
ATOM     15  N   UNL     1      32.679  22.028  13.931  0.00  0.00    -0.299 N 
ATOM     16  C   UNL     1      33.995  21.709  14.484  0.00  0.00    +0.127 C 
ATOM     17  C   UNL     1      34.005  20.368  15.213  0.00  0.00    +0.129 C 
ATOM     18  N   UNL     1      33.543  19.331  14.301  0.00  0.00    -0.275 N 
ATOM     19  C   UNL     1      34.380  18.280  14.004  0.00  0.00    +0.303 C 
ATOM     20  O   UNL     1      35.508  18.176  14.485  0.00  0.00    -0.253 OA
ATOM     21  N   UNL     1      33.900  17.366  13.111  0.00  0.00    -0.292 N 
ATOM     22  C   UNL     1      32.208  19.565  13.745  0.00  0.00    +0.205 C 
ATOM     23  C   UNL     1      31.763  21.035  13.599  0.00  0.00    +0.233 C 
ATOM     24  O   UNL     1      30.632  21.298  13.185  0.00  0.00    -0.274 OA
ATOM     25  H   UNL     1      32.902  17.271  13.021  0.00  0.00    +0.151 HD
BRANCH  15  27
ATOM     26  C   UNL     1      32.733  23.763  12.175  0.00  0.00    +0.024 C 
ATOM     27  C   UNL     1      32.383  23.420  13.612  0.00  0.00    +0.104 C 
ENDBRANCH  15  27
ENDBRANCH   1  21
TORSDOF 2
ENDMDL
MODEL 7
REMARK VINA RESULT:      -6.0      5.081      8.493
REMARK  Name = ZINC000329563636
REMARK  3 active torsions:
REMARK  status: ('A' for Active; 'I' for Inactive)
REMARK    1  A    between atoms: C_1  and  C_2
REMARK    2  A    between atoms: C_2  and  N_3
REMARK    3  A    between atoms: N_9  and  C_10
REMARK                            x       y       z     vdW  Elec       q    Type
REMARK                         _______ _______ _______ _____ _____    ______ ____
ROOT
ATOM      1  C   UNL     1      33.840  20.696  16.490  0.00  0.00    +0.112 C 
ATOM      2  C   UNL     1      34.807  21.732  17.071  0.00  0.00    +0.075 C 
ATOM      3  C   UNL     1      34.645  23.154  16.514  0.00  0.00    +0.113 C 
ATOM      4  C   UNL     1      33.552  24.005  17.209  0.00  0.00    +0.048 C 
ATOM      5  C   UNL     1      34.283  25.108  17.966  0.00  0.00    +0.004 C 
ATOM      6  C   UNL     1      35.543  25.338  17.155  0.00  0.00    +0.004 C 
ATOM      7  C   UNL     1      35.962  23.930  16.771  0.00  0.00    +0.048 C 
ATOM      8  O   UNL     1      34.427  23.149  15.090  0.00  0.00    -0.485 OA
ATOM      9  C   UNL     1      33.338  22.406  14.717  0.00  0.00    +0.126 A 
ATOM     10  C   UNL     1      32.582  22.867  13.640  0.00  0.00    +0.046 A 
ATOM     11  C   UNL     1      31.439  22.172  13.242  0.00  0.00    +0.004 A 
ATOM     12  C   UNL     1      31.065  21.006  13.906  0.00  0.00    +0.001 A 
ATOM     13  C   UNL     1      31.842  20.531  14.962  0.00  0.00    +0.009 A 
ATOM     14  C   UNL     1      32.988  21.231  15.376  0.00  0.00    +0.015 A 
ENDROOT
BRANCH   1  21
ATOM     15  N   UNL     1      35.993  14.929  15.181  0.00  0.00    -0.299 N 
ATOM     16  C   UNL     1      35.689  15.158  16.593  0.00  0.00    +0.127 C 
ATOM     17  C   UNL     1      36.271  16.473  17.102  0.00  0.00    +0.129 C 
ATOM     18  N   UNL     1      35.782  17.561  16.267  0.00  0.00    -0.275 N 
ATOM     19  C   UNL     1      35.051  18.574  16.846  0.00  0.00    +0.303 C 
ATOM     20  O   UNL     1      34.798  18.601  18.050  0.00  0.00    -0.253 OA
ATOM     21  N   UNL     1      34.590  19.539  15.999  0.00  0.00    -0.292 N 
ATOM     22  C   UNL     1      36.094  17.418  14.842  0.00  0.00    +0.205 C 
ATOM     23  C   UNL     1      36.240  15.979  14.304  0.00  0.00    +0.233 C 
ATOM     24  O   UNL     1      36.552  15.792  13.126  0.00  0.00    -0.274 OA
ATOM     25  H   UNL     1      35.088  19.691  15.138  0.00  0.00    +0.151 HD
BRANCH  15  27
ATOM     26  C   UNL     1      34.489  13.176  14.305  0.00  0.00    +0.024 C 
ATOM     27  C   UNL     1      35.912  13.565  14.669  0.00  0.00    +0.104 C 
ENDBRANCH  15  27
ENDBRANCH   1  21
TORSDOF 2
ENDMDL
MODEL 8
REMARK VINA RESULT:      -5.9      3.552      5.411
REMARK  Name = ZINC000329563636
REMARK  3 active torsions:
REMARK  status: ('A' for Active; 'I' for Inactive)
REMARK    1  A    between atoms: C_1  and  C_2
REMARK    2  A    between atoms: C_2  and  N_3
REMARK    3  A    between atoms: N_9  and  C_10
REMARK                            x       y       z     vdW  Elec       q    Type
REMARK                         _______ _______ _______ _____ _____    ______ ____
ROOT
ATOM      1  C   UNL     1      34.525  20.926  12.345  0.00  0.00    +0.112 C 
ATOM      2  C   UNL     1      33.284  21.599  12.938  0.00  0.00    +0.075 C 
ATOM      3  C   UNL     1      32.417  20.694  13.827  0.00  0.00    +0.113 C 
ATOM      4  C   UNL     1      32.883  20.593  15.302  0.00  0.00    +0.048 C 
ATOM      5  C   UNL     1      31.819  21.295  16.137  0.00  0.00    +0.004 C 
ATOM      6  C   UNL     1      30.542  21.103  15.344  0.00  0.00    +0.004 C 
ATOM      7  C   UNL     1      30.997  21.310  13.910  0.00  0.00    +0.048 C 
ATOM      8  O   UNL     1      32.275  19.374  13.269  0.00  0.00    -0.485 OA
ATOM      9  C   UNL     1      33.476  18.752  13.049  0.00  0.00    +0.126 A 
ATOM     10  C   UNL     1      33.536  17.375  13.254  0.00  0.00    +0.046 A 
ATOM     11  C   UNL     1      34.743  16.696  13.084  0.00  0.00    +0.004 A 
ATOM     12  C   UNL     1      35.885  17.390  12.690  0.00  0.00    +0.001 A 
ATOM     13  C   UNL     1      35.813  18.763  12.455  0.00  0.00    +0.009 A 
ATOM     14  C   UNL     1      34.604  19.456  12.634  0.00  0.00    +0.015 A 
ENDROOT
BRANCH   1  21
ATOM     15  N   UNL     1      36.063  22.345   6.410  0.00  0.00    -0.299 N 
ATOM     16  C   UNL     1      36.343  23.404   7.380  0.00  0.00    +0.127 C 
ATOM     17  C   UNL     1      35.164  23.656   8.314  0.00  0.00    +0.129 C 
ATOM     18  N   UNL     1      34.807  22.408   8.973  0.00  0.00    -0.275 N 
ATOM     19  C   UNL     1      34.860  22.337  10.346  0.00  0.00    +0.303 C 
ATOM     20  O   UNL     1      35.194  23.293  11.046  0.00  0.00    -0.253 OA
ATOM     21  N   UNL     1      34.552  21.126  10.896  0.00  0.00    -0.292 N 
ATOM     22  C   UNL     1      34.468  21.316   8.057  0.00  0.00    +0.205 C 
ATOM     23  C   UNL     1      35.137  21.341   6.667  0.00  0.00    +0.233 C 
ATOM     24  O   UNL     1      34.855  20.478   5.833  0.00  0.00    -0.274 OA
ATOM     25  H   UNL     1      33.960  20.505  10.371  0.00  0.00    +0.151 HD
BRANCH  15  27
ATOM     26  C   UNL     1      36.970  23.641   4.512  0.00  0.00    +0.024 C 
ATOM     27  C   UNL     1      36.873  22.288   5.197  0.00  0.00    +0.104 C 
ENDBRANCH  15  27
ENDBRANCH   1  21
TORSDOF 2
ENDMDL
MODEL 9
REMARK VINA RESULT:      -5.9      4.793      9.183
REMARK  Name = ZINC000329563636
REMARK  3 active torsions:
REMARK  status: ('A' for Active; 'I' for Inactive)
REMARK    1  A    between atoms: C_1  and  C_2
REMARK    2  A    between atoms: C_2  and  N_3
REMARK    3  A    between atoms: N_9  and  C_10
REMARK                            x       y       z     vdW  Elec       q    Type
REMARK                         _______ _______ _______ _____ _____    ______ ____
ROOT
ATOM      1  C   UNL     1      34.469  19.702  13.603  0.00  0.00    +0.112 C 
ATOM      2  C   UNL     1      34.968  20.487  12.386  0.00  0.00    +0.075 C 
ATOM      3  C   UNL     1      34.188  21.774  12.079  0.00  0.00    +0.113 C 
ATOM      4  C   UNL     1      34.645  23.019  12.883  0.00  0.00    +0.048 C 
ATOM      5  C   UNL     1      35.286  23.967  11.875  0.00  0.00    +0.004 C 
ATOM      6  C   UNL     1      34.564  23.668  10.577  0.00  0.00    +0.004 C 
ATOM      7  C   UNL     1      34.439  22.155  10.598  0.00  0.00    +0.048 C 
ATOM      8  O   UNL     1      32.768  21.589  12.235  0.00  0.00    -0.485 OA
ATOM      9  C   UNL     1      32.418  21.151  13.485  0.00  0.00    +0.126 A 
ATOM     10  C   UNL     1      31.221  21.623  14.021  0.00  0.00    +0.046 A 
ATOM     11  C   UNL     1      30.834  21.241  15.307  0.00  0.00    +0.004 A 
ATOM     12  C   UNL     1      31.633  20.373  16.048  0.00  0.00    +0.001 A 
ATOM     13  C   UNL     1      32.814  19.878  15.495  0.00  0.00    +0.009 A 
ATOM     14  C   UNL     1      33.216  20.266  14.205  0.00  0.00    +0.015 A 
ENDROOT
BRANCH   1  21
ATOM     15  N   UNL     1      33.894  13.437  13.456  0.00  0.00    -0.299 N 
ATOM     16  C   UNL     1      35.151  13.918  14.027  0.00  0.00    +0.127 C 
ATOM     17  C   UNL     1      35.801  14.996  13.164  0.00  0.00    +0.129 C 
ATOM     18  N   UNL     1      34.851  16.082  12.970  0.00  0.00    -0.275 N 
ATOM     19  C   UNL     1      35.182  17.346  13.404  0.00  0.00    +0.303 C 
ATOM     20  O   UNL     1      36.256  17.598  13.948  0.00  0.00    -0.253 OA
ATOM     21  N   UNL     1      34.230  18.308  13.229  0.00  0.00    -0.292 N 
ATOM     22  C   UNL     1      33.584  15.677  12.357  0.00  0.00    +0.205 C 
ATOM     23  C   UNL     1      33.122  14.226  12.611  0.00  0.00    +0.233 C 
ATOM     24  O   UNL     1      32.090  13.808  12.081  0.00  0.00    -0.274 OA
ATOM     25  H   UNL     1      33.553  18.176  12.495  0.00  0.00    +0.151 HD
BRANCH  15  27
ATOM     26  C   UNL     1      34.171  10.989  13.278  0.00  0.00    +0.024 C 
ATOM     27  C   UNL     1      33.390  12.138  13.892  0.00  0.00    +0.104 C 
ENDBRANCH  15  27
ENDBRANCH   1  21
TORSDOF 2
ENDMDL
