MODEL 1
REMARK VINA RESULT:      -6.3      0.000      0.000
REMARK  Name = ZINC001228612316
REMARK  5 active torsions:
REMARK  status: ('A' for Active; 'I' for Inactive)
REMARK    1  A    between atoms: C_2  and  C_4
REMARK    2  A    between atoms: C_8  and  O_9
REMARK    3  A    between atoms: O_9  and  C_10
REMARK    4  A    between atoms: C_10  and  C_11
REMARK    5  A    between atoms: C_10  and  C_17
REMARK                            x       y       z     vdW  Elec       q    Type
REMARK                         _______ _______ _______ _____ _____    ______ ____
ROOT
ATOM      1  C   UNL     1      33.227  23.607  10.399  0.00  0.00    +0.040 A 
ATOM      2  C   UNL     1      32.156  24.470  10.643  0.00  0.00    +0.013 A 
ATOM      3  C   UNL     1      31.455  24.375  11.848  0.00  0.00    +0.004 A 
ATOM      4  C   UNL     1      31.832  23.427  12.806  0.00  0.00    +0.046 A 
ATOM      5  C   UNL     1      32.907  22.568  12.568  0.00  0.00    +0.122 A 
ATOM      6  C   UNL     1      33.577  22.645  11.351  0.00  0.00    +0.058 A 
ENDROOT
BRANCH   1   8
ATOM      7  N   UNL     1      34.427  24.879   8.702  0.00  0.00    -0.325 N 
ATOM      8  C   UNL     1      34.039  23.652   9.156  0.00  0.00    +0.242 C 
ATOM      9  O   UNL     1      34.406  22.629   8.591  0.00  0.00    -0.270 OA
ATOM     10  H   UNL     1      35.097  24.872   7.942  0.00  0.00    +0.145 HD
ATOM     11  H   UNL     1      34.384  25.706   9.280  0.00  0.00    +0.145 HD
ENDBRANCH   1   8
BRANCH   5  12
ATOM     12  O   UNL     1      33.203  21.685  13.569  0.00  0.00    -0.484 OA
BRANCH  12  13
ATOM     13  C   UNL     1      32.199  20.716  13.925  0.00  0.00    +0.208 C 
BRANCH  13  14
ATOM     14  C   UNL     1      32.696  19.335  13.553  0.00  0.00    +0.011 A 
ATOM     15  C   UNL     1      32.182  18.204  14.202  0.00  0.00    +0.010 A 
ATOM     16  C   UNL     1      32.642  16.937  13.867  0.00  0.00    +0.020 A 
ATOM     17  C   UNL     1      33.609  16.836  12.884  0.00  0.00    +0.111 A 
ATOM     18  N   UNL     1      34.137  17.897  12.236  0.00  0.00    -0.263 NA
ATOM     19  C   UNL     1      33.671  19.121  12.587  0.00  0.00    +0.118 A 
ENDBRANCH  13  14
BRANCH  13  20
ATOM     20  C   UNL     1      31.922  20.794  15.410  0.00  0.00    +0.034 C 
ATOM     21  C   UNL     1      30.516  20.914  15.961  0.00  0.00    +0.008 C 
ATOM     22  C   UNL     1      31.444  22.087  16.042  0.00  0.00    +0.008 C 
ENDBRANCH  13  20
ENDBRANCH  12  13
ENDBRANCH   5  12
TORSDOF 5
ENDMDL
MODEL 2
REMARK VINA RESULT:      -6.3      3.909      6.100
REMARK  Name = ZINC001228612316
REMARK  5 active torsions:
REMARK  status: ('A' for Active; 'I' for Inactive)
REMARK    1  A    between atoms: C_2  and  C_4
REMARK    2  A    between atoms: C_8  and  O_9
REMARK    3  A    between atoms: O_9  and  C_10
REMARK    4  A    between atoms: C_10  and  C_11
REMARK    5  A    between atoms: C_10  and  C_17
REMARK                            x       y       z     vdW  Elec       q    Type
REMARK                         _______ _______ _______ _____ _____    ______ ____
ROOT
ATOM      1  C   UNL     1      34.962  24.791  17.167  0.00  0.00    +0.040 A 
ATOM      2  C   UNL     1      35.954  25.554  16.546  0.00  0.00    +0.013 A 
ATOM      3  C   UNL     1      36.410  25.189  15.277  0.00  0.00    +0.004 A 
ATOM      4  C   UNL     1      35.869  24.073  14.631  0.00  0.00    +0.046 A 
ATOM      5  C   UNL     1      34.871  23.313  15.245  0.00  0.00    +0.122 A 
ATOM      6  C   UNL     1      34.448  23.661  16.524  0.00  0.00    +0.058 A 
ENDROOT
BRANCH   1   8
ATOM      7  N   UNL     1      33.213  25.784  18.544  0.00  0.00    -0.325 N 
ATOM      8  C   UNL     1      34.404  25.119  18.503  0.00  0.00    +0.242 C 
ATOM      9  O   UNL     1      34.952  24.752  19.536  0.00  0.00    -0.270 OA
ATOM     10  H   UNL     1      32.787  25.864  19.459  0.00  0.00    +0.145 HD
ATOM     11  H   UNL     1      32.608  25.853  17.739  0.00  0.00    +0.145 HD
ENDBRANCH   1   8
BRANCH   5  12
ATOM     12  O   UNL     1      34.400  22.248  14.528  0.00  0.00    -0.484 OA
BRANCH  12  13
ATOM     13  C   UNL     1      33.009  22.255  14.157  0.00  0.00    +0.208 C 
BRANCH  13  14
ATOM     14  C   UNL     1      32.866  22.905  12.797  0.00  0.00    +0.011 A 
ATOM     15  C   UNL     1      31.874  23.870  12.579  0.00  0.00    +0.010 A 
ATOM     16  C   UNL     1      31.738  24.462  11.330  0.00  0.00    +0.020 A 
ATOM     17  C   UNL     1      32.607  24.070  10.327  0.00  0.00    +0.111 A 
ATOM     18  N   UNL     1      33.574  23.142  10.490  0.00  0.00    -0.263 NA
ATOM     19  C   UNL     1      33.680  22.578  11.718  0.00  0.00    +0.118 A 
ENDBRANCH  13  14
BRANCH  13  20
ATOM     20  C   UNL     1      32.487  20.835  14.120  0.00  0.00    +0.034 C 
ATOM     21  C   UNL     1      31.088  20.505  13.644  0.00  0.00    +0.008 C 
ATOM     22  C   UNL     1      31.424  20.374  15.097  0.00  0.00    +0.008 C 
ENDBRANCH  13  20
ENDBRANCH  12  13
ENDBRANCH   5  12
TORSDOF 5
ENDMDL
MODEL 3
REMARK VINA RESULT:      -6.0      1.350      1.461
REMARK  Name = ZINC001228612316
REMARK  5 active torsions:
REMARK  status: ('A' for Active; 'I' for Inactive)
REMARK    1  A    between atoms: C_2  and  C_4
REMARK    2  A    between atoms: C_8  and  O_9
REMARK    3  A    between atoms: O_9  and  C_10
REMARK    4  A    between atoms: C_10  and  C_11
REMARK    5  A    between atoms: C_10  and  C_17
REMARK                            x       y       z     vdW  Elec       q    Type
REMARK                         _______ _______ _______ _____ _____    ______ ____
ROOT
ATOM      1  C   UNL     1      32.776  23.737  10.144  0.00  0.00    +0.040 A 
ATOM      2  C   UNL     1      31.746  24.463  10.748  0.00  0.00    +0.013 A 
ATOM      3  C   UNL     1      31.545  24.356  12.127  0.00  0.00    +0.004 A 
ATOM      4  C   UNL     1      32.376  23.536  12.896  0.00  0.00    +0.046 A 
ATOM      5  C   UNL     1      33.412  22.815  12.296  0.00  0.00    +0.122 A 
ATOM      6  C   UNL     1      33.583  22.898  10.918  0.00  0.00    +0.058 A 
ENDROOT
BRANCH   1   8
ATOM      7  N   UNL     1      34.365  24.051   8.323  0.00  0.00    -0.325 N 
ATOM      8  C   UNL     1      33.073  23.807   8.691  0.00  0.00    +0.242 C 
ATOM      9  O   UNL     1      32.212  23.589   7.847  0.00  0.00    -0.270 OA
ATOM     10  H   UNL     1      34.566  23.948   7.336  0.00  0.00    +0.145 HD
ATOM     11  H   UNL     1      35.135  23.958   8.969  0.00  0.00    +0.145 HD
ENDBRANCH   1   8
BRANCH   5  12
ATOM     12  O   UNL     1      34.175  22.050  13.134  0.00  0.00    -0.484 OA
BRANCH  12  13
ATOM     13  C   UNL     1      33.511  21.391  14.228  0.00  0.00    +0.208 C 
BRANCH  13  14
ATOM     14  C   UNL     1      33.447  19.905  13.941  0.00  0.00    +0.011 A 
ATOM     15  C   UNL     1      32.284  19.181  14.235  0.00  0.00    +0.010 A 
ATOM     16  C   UNL     1      32.227  17.817  13.978  0.00  0.00    +0.020 A 
ATOM     17  C   UNL     1      33.342  17.212  13.427  0.00  0.00    +0.111 A 
ATOM     18  N   UNL     1      34.485  17.869  13.132  0.00  0.00    -0.263 NA
ATOM     19  C   UNL     1      34.513  19.197  13.397  0.00  0.00    +0.118 A 
ENDBRANCH  13  14
BRANCH  13  20
ATOM     20  C   UNL     1      34.271  21.646  15.511  0.00  0.00    +0.034 C 
ATOM     21  C   UNL     1      33.841  21.047  16.834  0.00  0.00    +0.008 C 
ATOM     22  C   UNL     1      33.680  22.518  16.602  0.00  0.00    +0.008 C 
ENDBRANCH  13  20
ENDBRANCH  12  13
ENDBRANCH   5  12
TORSDOF 5
ENDMDL
MODEL 4
REMARK VINA RESULT:      -5.9      2.434      4.138
REMARK  Name = ZINC001228612316
REMARK  5 active torsions:
REMARK  status: ('A' for Active; 'I' for Inactive)
REMARK    1  A    between atoms: C_2  and  C_4
REMARK    2  A    between atoms: C_8  and  O_9
REMARK    3  A    between atoms: O_9  and  C_10
REMARK    4  A    between atoms: C_10  and  C_11
REMARK    5  A    between atoms: C_10  and  C_17
REMARK                            x       y       z     vdW  Elec       q    Type
REMARK                         _______ _______ _______ _____ _____    ______ ____
ROOT
ATOM      1  C   UNL     1      34.781  21.623   8.163  0.00  0.00    +0.040 A 
ATOM      2  C   UNL     1      34.463  20.289   7.896  0.00  0.00    +0.013 A 
ATOM      3  C   UNL     1      33.998  19.472   8.930  0.00  0.00    +0.004 A 
ATOM      4  C   UNL     1      33.844  19.991  10.220  0.00  0.00    +0.046 A 
ATOM      5  C   UNL     1      34.153  21.326  10.488  0.00  0.00    +0.122 A 
ATOM      6  C   UNL     1      34.649  22.124   9.462  0.00  0.00    +0.058 A 
ENDROOT
BRANCH   1   8
ATOM      7  N   UNL     1      34.387  22.907   6.129  0.00  0.00    -0.325 N 
ATOM      8  C   UNL     1      35.261  22.567   7.122  0.00  0.00    +0.242 C 
ATOM      9  O   UNL     1      36.374  23.076   7.179  0.00  0.00    -0.270 OA
ATOM     10  H   UNL     1      34.688  23.659   5.521  0.00  0.00    +0.145 HD
ATOM     11  H   UNL     1      33.396  22.733   6.202  0.00  0.00    +0.145 HD
ENDBRANCH   1   8
BRANCH   5  12
ATOM     12  O   UNL     1      33.959  21.741  11.776  0.00  0.00    -0.484 OA
BRANCH  12  13
ATOM     13  C   UNL     1      32.652  22.228  12.132  0.00  0.00    +0.208 C 
BRANCH  13  14
ATOM     14  C   UNL     1      32.351  21.827  13.562  0.00  0.00    +0.011 A 
ATOM     15  C   UNL     1      31.287  20.959  13.840  0.00  0.00    +0.010 A 
ATOM     16  C   UNL     1      31.006  20.596  15.151  0.00  0.00    +0.020 A 
ATOM     17  C   UNL     1      31.804  21.115  16.154  0.00  0.00    +0.111 A 
ATOM     18  N   UNL     1      32.836  21.958  15.934  0.00  0.00    -0.263 NA
ATOM     19  C   UNL     1      33.084  22.297  14.645  0.00  0.00    +0.118 A 
ENDBRANCH  13  14
BRANCH  13  20
ATOM     20  C   UNL     1      32.615  23.733  11.989  0.00  0.00    +0.034 C 
ATOM     21  C   UNL     1      31.329  24.523  12.120  0.00  0.00    +0.008 C 
ATOM     22  C   UNL     1      31.975  24.381  10.776  0.00  0.00    +0.008 C 
ENDBRANCH  13  20
ENDBRANCH  12  13
ENDBRANCH   5  12
TORSDOF 5
ENDMDL
MODEL 5
REMARK VINA RESULT:      -5.8      4.182      5.949
REMARK  Name = ZINC001228612316
REMARK  5 active torsions:
REMARK  status: ('A' for Active; 'I' for Inactive)
REMARK    1  A    between atoms: C_2  and  C_4
REMARK    2  A    between atoms: C_8  and  O_9
REMARK    3  A    between atoms: O_9  and  C_10
REMARK    4  A    between atoms: C_10  and  C_11
REMARK    5  A    between atoms: C_10  and  C_17
REMARK                            x       y       z     vdW  Elec       q    Type
REMARK                         _______ _______ _______ _____ _____    ______ ____
ROOT
ATOM      1  C   UNL     1      32.349  20.582  15.959  0.00  0.00    +0.040 A 
ATOM      2  C   UNL     1      33.152  20.636  17.101  0.00  0.00    +0.013 A 
ATOM      3  C   UNL     1      34.289  19.828  17.182  0.00  0.00    +0.004 A 
ATOM      4  C   UNL     1      34.625  18.980  16.122  0.00  0.00    +0.046 A 
ATOM      5  C   UNL     1      33.829  18.931  14.975  0.00  0.00    +0.122 A 
ATOM      6  C   UNL     1      32.679  19.711  14.917  0.00  0.00    +0.058 A 
ENDROOT
BRANCH   1   8
ATOM      7  N   UNL     1      31.250  22.537  15.004  0.00  0.00    -0.325 N 
ATOM      8  C   UNL     1      31.136  21.419  15.780  0.00  0.00    +0.242 C 
ATOM      9  O   UNL     1      30.054  21.093  16.253  0.00  0.00    -0.270 OA
ATOM     10  H   UNL     1      30.381  23.005  14.780  0.00  0.00    +0.145 HD
ATOM     11  H   UNL     1      32.033  22.683  14.383  0.00  0.00    +0.145 HD
ENDBRANCH   1   8
BRANCH   5  12
ATOM     12  O   UNL     1      34.247  18.079  13.990  0.00  0.00    -0.484 OA
BRANCH  12  13
ATOM     13  C   UNL     1      34.026  16.670  14.187  0.00  0.00    +0.208 C 
BRANCH  13  14
ATOM     14  C   UNL     1      33.369  16.098  12.948  0.00  0.00    +0.011 A 
ATOM     15  C   UNL     1      33.909  16.358  11.681  0.00  0.00    +0.010 A 
ATOM     16  C   UNL     1      33.303  15.840  10.544  0.00  0.00    +0.020 A 
ATOM     17  C   UNL     1      32.166  15.070  10.707  0.00  0.00    +0.111 A 
ATOM     18  N   UNL     1      31.607  14.798  11.906  0.00  0.00    -0.263 NA
ATOM     19  C   UNL     1      32.218  15.320  12.998  0.00  0.00    +0.118 A 
ENDBRANCH  13  14
BRANCH  13  20
ATOM     20  C   UNL     1      35.348  15.980  14.447  0.00  0.00    +0.034 C 
ATOM     21  C   UNL     1      35.446  14.485  14.663  0.00  0.00    +0.008 C 
ATOM     22  C   UNL     1      35.670  15.414  15.815  0.00  0.00    +0.008 C 
ENDBRANCH  13  20
ENDBRANCH  12  13
ENDBRANCH   5  12
TORSDOF 5
ENDMDL
MODEL 6
REMARK VINA RESULT:      -5.8      2.524      3.425
REMARK  Name = ZINC001228612316
REMARK  5 active torsions:
REMARK  status: ('A' for Active; 'I' for Inactive)
REMARK    1  A    between atoms: C_2  and  C_4
REMARK    2  A    between atoms: C_8  and  O_9
REMARK    3  A    between atoms: O_9  and  C_10
REMARK    4  A    between atoms: C_10  and  C_11
REMARK    5  A    between atoms: C_10  and  C_17
REMARK                            x       y       z     vdW  Elec       q    Type
REMARK                         _______ _______ _______ _____ _____    ______ ____
ROOT
ATOM      1  C   UNL     1      33.716  23.108  10.741  0.00  0.00    +0.040 A 
ATOM      2  C   UNL     1      32.762  24.009  10.263  0.00  0.00    +0.013 A 
ATOM      3  C   UNL     1      31.757  24.467  11.119  0.00  0.00    +0.004 A 
ATOM      4  C   UNL     1      31.716  24.034  12.448  0.00  0.00    +0.046 A 
ATOM      5  C   UNL     1      32.675  23.140  12.932  0.00  0.00    +0.122 A 
ATOM      6  C   UNL     1      33.650  22.660  12.064  0.00  0.00    +0.058 A 
ENDROOT
BRANCH   1   8
ATOM      7  N   UNL     1      35.127  23.262   8.760  0.00  0.00    -0.325 N 
ATOM      8  C   UNL     1      34.829  22.586   9.907  0.00  0.00    +0.242 C 
ATOM      9  O   UNL     1      35.501  21.624  10.261  0.00  0.00    -0.270 OA
ATOM     10  H   UNL     1      35.977  22.974   8.290  0.00  0.00    +0.145 HD
ATOM     11  H   UNL     1      34.790  24.197   8.583  0.00  0.00    +0.145 HD
ENDBRANCH   1   8
BRANCH   5  12
ATOM     12  O   UNL     1      32.555  22.785  14.247  0.00  0.00    -0.484 OA
BRANCH  12  13
ATOM     13  C   UNL     1      33.023  21.479  14.633  0.00  0.00    +0.208 C 
BRANCH  13  14
ATOM     14  C   UNL     1      33.819  21.602  15.916  0.00  0.00    +0.011 A 
ATOM     15  C   UNL     1      33.942  20.501  16.775  0.00  0.00    +0.010 A 
ATOM     16  C   UNL     1      34.666  20.614  17.955  0.00  0.00    +0.020 A 
ATOM     17  C   UNL     1      35.251  21.834  18.244  0.00  0.00    +0.111 A 
ATOM     18  N   UNL     1      35.155  22.922  17.449  0.00  0.00    -0.263 NA
ATOM     19  C   UNL     1      34.439  22.783  16.307  0.00  0.00    +0.118 A 
ENDBRANCH  13  14
BRANCH  13  20
ATOM     20  C   UNL     1      31.842  20.556  14.832  0.00  0.00    +0.034 C 
ATOM     21  C   UNL     1      31.856  19.118  14.356  0.00  0.00    +0.008 C 
ATOM     22  C   UNL     1      30.992  20.120  13.654  0.00  0.00    +0.008 C 
ENDBRANCH  13  20
ENDBRANCH  12  13
ENDBRANCH   5  12
TORSDOF 5
ENDMDL
MODEL 7
REMARK VINA RESULT:      -5.7      4.429      6.730
REMARK  Name = ZINC001228612316
REMARK  5 active torsions:
REMARK  status: ('A' for Active; 'I' for Inactive)
REMARK    1  A    between atoms: C_2  and  C_4
REMARK    2  A    between atoms: C_8  and  O_9
REMARK    3  A    between atoms: O_9  and  C_10
REMARK    4  A    between atoms: C_10  and  C_11
REMARK    5  A    between atoms: C_10  and  C_17
REMARK                            x       y       z     vdW  Elec       q    Type
REMARK                         _______ _______ _______ _____ _____    ______ ____
ROOT
ATOM      1  C   UNL     1      32.490  15.330  11.608  0.00  0.00    +0.040 A 
ATOM      2  C   UNL     1      33.444  15.957  10.802  0.00  0.00    +0.013 A 
ATOM      3  C   UNL     1      34.149  17.057  11.297  0.00  0.00    +0.004 A 
ATOM      4  C   UNL     1      33.907  17.520  12.594  0.00  0.00    +0.046 A 
ATOM      5  C   UNL     1      32.960  16.890  13.406  0.00  0.00    +0.122 A 
ATOM      6  C   UNL     1      32.236  15.818  12.893  0.00  0.00    +0.058 A 
ENDROOT
BRANCH   1   8
ATOM      7  N   UNL     1      30.375  14.316  10.947  0.00  0.00    -0.325 N 
ATOM      8  C   UNL     1      31.711  14.145  11.170  0.00  0.00    +0.242 C 
ATOM      9  O   UNL     1      32.250  13.066  10.953  0.00  0.00    -0.270 OA
ATOM     10  H   UNL     1      29.901  13.534  10.512  0.00  0.00    +0.145 HD
ATOM     11  H   UNL     1      29.959  15.230  10.845  0.00  0.00    +0.145 HD
ENDBRANCH   1   8
BRANCH   5  12
ATOM     12  O   UNL     1      32.803  17.411  14.661  0.00  0.00    -0.484 OA
BRANCH  12  13
ATOM     13  C   UNL     1      33.708  18.453  15.070  0.00  0.00    +0.208 C 
BRANCH  13  14
ATOM     14  C   UNL     1      32.910  19.701  15.384  0.00  0.00    +0.011 A 
ATOM     15  C   UNL     1      31.569  19.796  14.988  0.00  0.00    +0.010 A 
ATOM     16  C   UNL     1      30.838  20.943  15.269  0.00  0.00    +0.020 A 
ATOM     17  C   UNL     1      31.473  21.970  15.945  0.00  0.00    +0.111 A 
ATOM     18  N   UNL     1      32.764  21.924  16.341  0.00  0.00    -0.263 NA
ATOM     19  C   UNL     1      33.453  20.794  16.049  0.00  0.00    +0.118 A 
ENDBRANCH  13  14
BRANCH  13  20
ATOM     20  C   UNL     1      34.482  18.002  16.290  0.00  0.00    +0.034 C 
ATOM     21  C   UNL     1      35.966  18.260  16.441  0.00  0.00    +0.008 C 
ATOM     22  C   UNL     1      35.480  16.865  16.198  0.00  0.00    +0.008 C 
ENDBRANCH  13  20
ENDBRANCH  12  13
ENDBRANCH   5  12
TORSDOF 5
ENDMDL
MODEL 8
REMARK VINA RESULT:      -5.7      4.053      5.899
REMARK  Name = ZINC001228612316
REMARK  5 active torsions:
REMARK  status: ('A' for Active; 'I' for Inactive)
REMARK    1  A    between atoms: C_2  and  C_4
REMARK    2  A    between atoms: C_8  and  O_9
REMARK    3  A    between atoms: O_9  and  C_10
REMARK    4  A    between atoms: C_10  and  C_11
REMARK    5  A    between atoms: C_10  and  C_17
REMARK                            x       y       z     vdW  Elec       q    Type
REMARK                         _______ _______ _______ _____ _____    ______ ____
ROOT
ATOM      1  C   UNL     1      32.027  20.347  15.735  0.00  0.00    +0.040 A 
ATOM      2  C   UNL     1      33.188  20.387  16.511  0.00  0.00    +0.013 A 
ATOM      3  C   UNL     1      34.131  19.362  16.393  0.00  0.00    +0.004 A 
ATOM      4  C   UNL     1      33.915  18.310  15.497  0.00  0.00    +0.046 A 
ATOM      5  C   UNL     1      32.759  18.271  14.714  0.00  0.00    +0.122 A 
ATOM      6  C   UNL     1      31.809  19.276  14.863  0.00  0.00    +0.058 A 
ENDROOT
BRANCH   1   8
ATOM      7  N   UNL     1      31.283  22.609  15.216  0.00  0.00    -0.325 N 
ATOM      8  C   UNL     1      30.984  21.402  15.781  0.00  0.00    +0.242 C 
ATOM      9  O   UNL     1      29.871  21.188  16.247  0.00  0.00    -0.270 OA
ATOM     10  H   UNL     1      30.509  23.256  15.131  0.00  0.00    +0.145 HD
ATOM     11  H   UNL     1      32.065  22.730  14.589  0.00  0.00    +0.145 HD
ENDBRANCH   1   8
BRANCH   5  12
ATOM     12  O   UNL     1      32.646  17.208  13.862  0.00  0.00    -0.484 OA
BRANCH  12  13
ATOM     13  C   UNL     1      33.722  16.977  12.934  0.00  0.00    +0.208 C 
BRANCH  13  14
ATOM     14  C   UNL     1      33.496  15.650  12.240  0.00  0.00    +0.011 A 
ATOM     15  C   UNL     1      34.580  14.802  11.974  0.00  0.00    +0.010 A 
ATOM     16  C   UNL     1      34.375  13.587  11.332  0.00  0.00    +0.020 A 
ATOM     17  C   UNL     1      33.081  13.253  10.973  0.00  0.00    +0.111 A 
ATOM     18  N   UNL     1      32.009  14.040  11.204  0.00  0.00    -0.263 NA
ATOM     19  C   UNL     1      32.240  15.220  11.828  0.00  0.00    +0.118 A 
ENDBRANCH  13  14
BRANCH  13  20
ATOM     20  C   UNL     1      33.767  18.100  11.921  0.00  0.00    +0.034 C 
ATOM     21  C   UNL     1      34.752  18.106  10.770  0.00  0.00    +0.008 C 
ATOM     22  C   UNL     1      34.928  19.076  11.897  0.00  0.00    +0.008 C 
ENDBRANCH  13  20
ENDBRANCH  12  13
ENDBRANCH   5  12
TORSDOF 5
ENDMDL
MODEL 9
REMARK VINA RESULT:      -5.7      4.062      5.267
REMARK  Name = ZINC001228612316
REMARK  5 active torsions:
REMARK  status: ('A' for Active; 'I' for Inactive)
REMARK    1  A    between atoms: C_2  and  C_4
REMARK    2  A    between atoms: C_8  and  O_9
REMARK    3  A    between atoms: O_9  and  C_10
REMARK    4  A    between atoms: C_10  and  C_11
REMARK    5  A    between atoms: C_10  and  C_17
REMARK                            x       y       z     vdW  Elec       q    Type
REMARK                         _______ _______ _______ _____ _____    ______ ____
ROOT
ATOM      1  C   UNL     1      33.099  21.428  16.148  0.00  0.00    +0.040 A 
ATOM      2  C   UNL     1      31.708  21.553  16.175  0.00  0.00    +0.013 A 
ATOM      3  C   UNL     1      30.925  20.715  15.377  0.00  0.00    +0.004 A 
ATOM      4  C   UNL     1      31.532  19.751  14.566  0.00  0.00    +0.046 A 
ATOM      5  C   UNL     1      32.923  19.618  14.543  0.00  0.00    +0.122 A 
ATOM      6  C   UNL     1      33.697  20.480  15.313  0.00  0.00    +0.058 A 
ENDROOT
BRANCH   1   8
ATOM      7  N   UNL     1      33.970  23.613  16.785  0.00  0.00    -0.325 N 
ATOM      8  C   UNL     1      34.005  22.262  16.978  0.00  0.00    +0.242 C 
ATOM      9  O   UNL     1      34.712  21.772  17.850  0.00  0.00    -0.270 OA
ATOM     10  H   UNL     1      34.486  24.165  17.460  0.00  0.00    +0.145 HD
ATOM     11  H   UNL     1      33.218  24.067  16.288  0.00  0.00    +0.145 HD
ENDBRANCH   1   8
BRANCH   5  12
ATOM     12  O   UNL     1      33.419  18.640  13.726  0.00  0.00    -0.484 OA
BRANCH  12  13
ATOM     13  C   UNL     1      33.126  17.272  14.066  0.00  0.00    +0.208 C 
BRANCH  13  14
ATOM     14  C   UNL     1      32.926  16.481  12.790  0.00  0.00    +0.011 A 
ATOM     15  C   UNL     1      31.881  15.551  12.696  0.00  0.00    +0.010 A 
ATOM     16  C   UNL     1      31.700  14.820  11.529  0.00  0.00    +0.020 A 
ATOM     17  C   UNL     1      32.574  15.043  10.480  0.00  0.00    +0.111 A 
ATOM     18  N   UNL     1      33.596  15.925  10.528  0.00  0.00    -0.263 NA
ATOM     19  C   UNL     1      33.751  16.620  11.681  0.00  0.00    +0.118 A 
ENDBRANCH  13  14
BRANCH  13  20
ATOM     20  C   UNL     1      34.270  16.693  14.870  0.00  0.00    +0.034 C 
ATOM     21  C   UNL     1      34.288  15.246  15.316  0.00  0.00    +0.008 C 
ATOM     22  C   UNL     1      34.085  16.330  16.330  0.00  0.00    +0.008 C 
ENDBRANCH  13  20
ENDBRANCH  12  13
ENDBRANCH   5  12
TORSDOF 5
ENDMDL
