MODEL 1
REMARK VINA RESULT:      -7.5      0.000      0.000
REMARK  Name = ZINC000543478179
REMARK  8 active torsions:
REMARK  status: ('A' for Active; 'I' for Inactive)
REMARK    1  A    between atoms: C_1  and  C_2
REMARK    2  A    between atoms: C_2  and  N_3
REMARK    3  A    between atoms: N_9  and  C_10
REMARK    4  A    between atoms: C_10  and  C_11
REMARK    5  A    between atoms: C_10  and  C_12
REMARK    6  A    between atoms: C_15  and  O_16
REMARK    7  A    between atoms: O_16  and  C_17
REMARK    8  A    between atoms: C_17  and  C_18
REMARK                            x       y       z     vdW  Elec       q    Type
REMARK                         _______ _______ _______ _____ _____    ______ ____
ROOT
ATOM      1  C   UNL     1      11.331   5.615   8.053  0.00  0.00    +0.102 C 
ATOM      2  C   UNL     1       9.912   6.031   7.657  0.00  0.00    +0.033 C 
ENDROOT
BRANCH   1   9
ATOM      3  N   UNL     1      15.652   2.543   6.837  0.00  0.00    -0.299 N 
ATOM      4  C   UNL     1      16.246   3.848   6.552  0.00  0.00    +0.127 C 
ATOM      5  C   UNL     1      15.276   4.762   5.799  0.00  0.00    +0.129 C 
ATOM      6  N   UNL     1      14.034   4.926   6.560  0.00  0.00    -0.275 N 
ATOM      7  C   UNL     1      13.498   6.175   6.701  0.00  0.00    +0.303 C 
ATOM      8  O   UNL     1      14.049   7.170   6.220  0.00  0.00    -0.253 OA
ATOM      9  N   UNL     1      12.355   6.410   7.380  0.00  0.00    -0.293 N 
ATOM     10  C   UNL     1      13.478   3.688   7.085  0.00  0.00    +0.205 C 
ATOM     11  C   UNL     1      14.288   2.395   6.993  0.00  0.00    +0.233 C 
ATOM     12  O   UNL     1      13.740   1.307   7.184  0.00  0.00    -0.274 OA
ATOM     13  H   UNL     1      12.174   7.407   7.366  0.00  0.00    +0.151 HD
BRANCH   3  15
ATOM     14  C   UNL     1      17.173   1.372   8.354  0.00  0.00    +0.024 C 
ATOM     15  C   UNL     1      16.508   1.381   6.990  0.00  0.00    +0.104 C 
ENDBRANCH   3  15
ENDBRANCH   1   9
BRANCH   1  16
ATOM     16  C   UNL     1      11.541   5.659   9.555  0.00  0.00    -0.024 A 
ATOM     17  C   UNL     1      10.550   6.133  10.422  0.00  0.00    +0.009 A 
ATOM     18  C   UNL     1      10.769   6.186  11.800  0.00  0.00    +0.049 A 
ATOM     19  C   UNL     1      12.005   5.802  12.338  0.00  0.00    +0.156 A 
ATOM     20  C   UNL     1      12.977   5.294  11.479  0.00  0.00    +0.165 A 
ATOM     21  F   UNL     1      14.159   4.878  11.960  0.00  0.00    -0.202 F 
ATOM     22  C   UNL     1      12.762   5.232  10.104  0.00  0.00    +0.047 A 
BRANCH  19  23
ATOM     23  O   UNL     1      12.333   5.897  13.661  0.00  0.00    -0.489 OA
BRANCH  23  24
ATOM     24  C   UNL     1      12.272   4.669  14.386  0.00  0.00    +0.232 C 
BRANCH  24  25
ATOM     25  C   UNL     1      13.595   4.408  15.034  0.00  0.00    +0.027 C 
ATOM     26  C   UNL     1      14.182   3.020  14.978  0.00  0.00    +0.007 C 
ATOM     27  C   UNL     1      13.678   3.570  16.285  0.00  0.00    +0.007 C 
ENDBRANCH  24  25
ENDBRANCH  23  24
ENDBRANCH  19  23
ENDBRANCH   1  16
TORSDOF 6
ENDMDL
MODEL 2
REMARK VINA RESULT:      -7.1     23.376     24.577
REMARK  Name = ZINC000543478179
REMARK  8 active torsions:
REMARK  status: ('A' for Active; 'I' for Inactive)
REMARK    1  A    between atoms: C_1  and  C_2
REMARK    2  A    between atoms: C_2  and  N_3
REMARK    3  A    between atoms: N_9  and  C_10
REMARK    4  A    between atoms: C_10  and  C_11
REMARK    5  A    between atoms: C_10  and  C_12
REMARK    6  A    between atoms: C_15  and  O_16
REMARK    7  A    between atoms: O_16  and  C_17
REMARK    8  A    between atoms: C_17  and  C_18
REMARK                            x       y       z     vdW  Elec       q    Type
REMARK                         _______ _______ _______ _____ _____    ______ ____
ROOT
ATOM      1  C   UNL     1      29.732  21.148  16.711  0.00  0.00    +0.102 C 
ATOM      2  C   UNL     1      28.613  21.410  17.722  0.00  0.00    +0.033 C 
ENDROOT
BRANCH   1   9
ATOM      3  N   UNL     1      32.604  23.661  12.836  0.00  0.00    -0.299 N 
ATOM      4  C   UNL     1      33.686  23.479  13.802  0.00  0.00    +0.127 C 
ATOM      5  C   UNL     1      33.229  23.783  15.231  0.00  0.00    +0.129 C 
ATOM      6  N   UNL     1      32.082  22.944  15.590  0.00  0.00    -0.275 N 
ATOM      7  C   UNL     1      32.066  22.322  16.806  0.00  0.00    +0.303 C 
ATOM      8  O   UNL     1      33.006  22.433  17.600  0.00  0.00    -0.253 OA
ATOM      9  N   UNL     1      31.045  21.538  17.216  0.00  0.00    -0.293 N 
ATOM     10  C   UNL     1      31.038  22.882  14.579  0.00  0.00    +0.205 C 
ATOM     11  C   UNL     1      31.283  23.491  13.199  0.00  0.00    +0.233 C 
ATOM     12  O   UNL     1      30.337  23.683  12.430  0.00  0.00    -0.274 OA
ATOM     13  H   UNL     1      31.271  21.173  18.133  0.00  0.00    +0.151 HD
BRANCH   3  15
ATOM     14  C   UNL     1      33.593  22.834  10.756  0.00  0.00    +0.024 C 
ATOM     15  C   UNL     1      32.919  23.997  11.460  0.00  0.00    +0.104 C 
ENDBRANCH   3  15
ENDBRANCH   1   9
BRANCH   1  16
ATOM     16  C   UNL     1      29.759  19.701  16.253  0.00  0.00    -0.024 A 
ATOM     17  C   UNL     1      30.431  19.312  15.088  0.00  0.00    +0.009 A 
ATOM     18  C   UNL     1      30.428  17.980  14.671  0.00  0.00    +0.049 A 
ATOM     19  C   UNL     1      29.717  17.011  15.392  0.00  0.00    +0.156 A 
ATOM     20  C   UNL     1      29.081  17.391  16.571  0.00  0.00    +0.165 A 
ATOM     21  F   UNL     1      28.423  16.485  17.312  0.00  0.00    -0.202 F 
ATOM     22  C   UNL     1      29.086  18.718  16.998  0.00  0.00    +0.047 A 
BRANCH  19  23
ATOM     23  O   UNL     1      29.594  15.703  15.014  0.00  0.00    -0.489 OA
BRANCH  23  24
ATOM     24  C   UNL     1      30.424  15.312  13.920  0.00  0.00    +0.232 C 
BRANCH  24  25
ATOM     25  C   UNL     1      29.619  15.321  12.659  0.00  0.00    +0.027 C 
ATOM     26  C   UNL     1      28.540  14.286  12.466  0.00  0.00    +0.007 C 
ATOM     27  C   UNL     1      29.794  14.226  11.637  0.00  0.00    +0.007 C 
ENDBRANCH  24  25
ENDBRANCH  23  24
ENDBRANCH  19  23
ENDBRANCH   1  16
TORSDOF 6
ENDMDL
MODEL 3
REMARK VINA RESULT:      -7.1     23.393     24.627
REMARK  Name = ZINC000543478179
REMARK  8 active torsions:
REMARK  status: ('A' for Active; 'I' for Inactive)
REMARK    1  A    between atoms: C_1  and  C_2
REMARK    2  A    between atoms: C_2  and  N_3
REMARK    3  A    between atoms: N_9  and  C_10
REMARK    4  A    between atoms: C_10  and  C_11
REMARK    5  A    between atoms: C_10  and  C_12
REMARK    6  A    between atoms: C_15  and  O_16
REMARK    7  A    between atoms: O_16  and  C_17
REMARK    8  A    between atoms: C_17  and  C_18
REMARK                            x       y       z     vdW  Elec       q    Type
REMARK                         _______ _______ _______ _____ _____    ______ ____
ROOT
ATOM      1  C   UNL     1      29.196  20.716  16.786  0.00  0.00    +0.102 C 
ATOM      2  C   UNL     1      27.835  20.864  17.470  0.00  0.00    +0.033 C 
ENDROOT
BRANCH   1   9
ATOM      3  N   UNL     1      32.980  23.341  13.891  0.00  0.00    -0.299 N 
ATOM      4  C   UNL     1      33.748  23.176  15.124  0.00  0.00    +0.127 C 
ATOM      5  C   UNL     1      32.897  23.455  16.366  0.00  0.00    +0.129 C 
ATOM      6  N   UNL     1      31.718  22.583  16.383  0.00  0.00    -0.275 N 
ATOM      7  C   UNL     1      31.375  21.948  17.542  0.00  0.00    +0.303 C 
ATOM      8  O   UNL     1      32.048  22.075  18.570  0.00  0.00    -0.253 OA
ATOM      9  N   UNL     1      30.301  21.134  17.644  0.00  0.00    -0.293 N 
ATOM     10  C   UNL     1      31.005  22.504  15.117  0.00  0.00    +0.205 C 
ATOM     11  C   UNL     1      31.615  23.133  13.864  0.00  0.00    +0.233 C 
ATOM     12  O   UNL     1      30.921  23.309  12.859  0.00  0.00    -0.274 OA
ATOM     13  H   UNL     1      30.268  20.766  18.587  0.00  0.00    +0.151 HD
BRANCH   3  15
ATOM     14  C   UNL     1      35.119  24.033  12.926  0.00  0.00    +0.024 C 
ATOM     15  C   UNL     1      33.662  23.699  12.662  0.00  0.00    +0.104 C 
ENDBRANCH   3  15
ENDBRANCH   1   9
BRANCH   1  16
ATOM     16  C   UNL     1      29.433  19.303  16.285  0.00  0.00    -0.024 A 
ATOM     17  C   UNL     1      28.836  18.196  16.899  0.00  0.00    +0.009 A 
ATOM     18  C   UNL     1      29.081  16.902  16.437  0.00  0.00    +0.049 A 
ATOM     19  C   UNL     1      29.965  16.684  15.371  0.00  0.00    +0.156 A 
ATOM     20  C   UNL     1      30.528  17.788  14.736  0.00  0.00    +0.165 A 
ATOM     21  F   UNL     1      31.347  17.623  13.685  0.00  0.00    -0.202 F 
ATOM     22  C   UNL     1      30.281  19.083  15.187  0.00  0.00    +0.047 A 
BRANCH  19  23
ATOM     23  O   UNL     1      30.325  15.449  14.907  0.00  0.00    -0.489 OA
BRANCH  23  24
ATOM     24  C   UNL     1      29.352  14.809  14.082  0.00  0.00    +0.232 C 
BRANCH  24  25
ATOM     25  C   UNL     1      29.590  15.182  12.653  0.00  0.00    +0.027 C 
ATOM     26  C   UNL     1      29.556  14.107  11.596  0.00  0.00    +0.007 C 
ATOM     27  C   UNL     1      30.861  14.760  11.959  0.00  0.00    +0.007 C 
ENDBRANCH  24  25
ENDBRANCH  23  24
ENDBRANCH  19  23
ENDBRANCH   1  16
TORSDOF 6
ENDMDL
MODEL 4
REMARK VINA RESULT:      -7.0     21.885     22.844
REMARK  Name = ZINC000543478179
REMARK  8 active torsions:
REMARK  status: ('A' for Active; 'I' for Inactive)
REMARK    1  A    between atoms: C_1  and  C_2
REMARK    2  A    between atoms: C_2  and  N_3
REMARK    3  A    between atoms: N_9  and  C_10
REMARK    4  A    between atoms: C_10  and  C_11
REMARK    5  A    between atoms: C_10  and  C_12
REMARK    6  A    between atoms: C_15  and  O_16
REMARK    7  A    between atoms: O_16  and  C_17
REMARK    8  A    between atoms: C_17  and  C_18
REMARK                            x       y       z     vdW  Elec       q    Type
REMARK                         _______ _______ _______ _____ _____    ______ ____
ROOT
ATOM      1  C   UNL     1      29.966  15.380  14.664  0.00  0.00    +0.102 C 
ATOM      2  C   UNL     1      28.744  14.522  15.002  0.00  0.00    +0.033 C 
ENDROOT
BRANCH   1   9
ATOM      3  N   UNL     1      35.310  15.658  13.689  0.00  0.00    -0.299 N 
ATOM      4  C   UNL     1      34.843  15.967  12.339  0.00  0.00    +0.127 C 
ATOM      5  C   UNL     1      33.675  15.069  11.921  0.00  0.00    +0.129 C 
ATOM      6  N   UNL     1      32.572  15.189  12.880  0.00  0.00    -0.275 N 
ATOM      7  C   UNL     1      31.296  15.333  12.413  0.00  0.00    +0.303 C 
ATOM      8  O   UNL     1      31.054  15.386  11.203  0.00  0.00    -0.253 OA
ATOM      9  N   UNL     1      30.224  15.443  13.228  0.00  0.00    -0.293 N 
ATOM     10  C   UNL     1      32.973  15.119  14.276  0.00  0.00    +0.205 C 
ATOM     11  C   UNL     1      34.457  15.134  14.639  0.00  0.00    +0.233 C 
ATOM     12  O   UNL     1      34.820  14.812  15.774  0.00  0.00    -0.274 OA
ATOM     13  H   UNL     1      29.398  15.562  12.654  0.00  0.00    +0.151 HD
BRANCH   3  15
ATOM     14  C   UNL     1      36.903  17.419  14.280  0.00  0.00    +0.024 C 
ATOM     15  C   UNL     1      36.687  15.934  14.053  0.00  0.00    +0.104 C 
ENDBRANCH   3  15
ENDBRANCH   1   9
BRANCH   1  16
ATOM     16  C   UNL     1      29.856  16.782  15.234  0.00  0.00    -0.024 A 
ATOM     17  C   UNL     1      29.173  17.038  16.430  0.00  0.00    +0.009 A 
ATOM     18  C   UNL     1      29.065  18.337  16.928  0.00  0.00    +0.049 A 
ATOM     19  C   UNL     1      29.603  19.418  16.217  0.00  0.00    +0.156 A 
ATOM     20  C   UNL     1      30.315  19.159  15.049  0.00  0.00    +0.165 A 
ATOM     21  F   UNL     1      30.881  20.163  14.361  0.00  0.00    -0.202 F 
ATOM     22  C   UNL     1      30.434  17.864  14.549  0.00  0.00    +0.047 A 
BRANCH  19  23
ATOM     23  O   UNL     1      29.474  20.727  16.589  0.00  0.00    -0.489 OA
BRANCH  23  24
ATOM     24  C   UNL     1      28.292  21.373  16.117  0.00  0.00    +0.232 C 
BRANCH  24  25
ATOM     25  C   UNL     1      27.274  21.406  17.212  0.00  0.00    +0.027 C 
ATOM     26  C   UNL     1      26.111  20.447  17.165  0.00  0.00    +0.007 C 
ATOM     27  C   UNL     1      25.881  21.916  16.940  0.00  0.00    +0.007 C 
ENDBRANCH  24  25
ENDBRANCH  23  24
ENDBRANCH  19  23
ENDBRANCH   1  16
TORSDOF 6
ENDMDL
MODEL 5
REMARK VINA RESULT:      -6.8      3.666      7.011
REMARK  Name = ZINC000543478179
REMARK  8 active torsions:
REMARK  status: ('A' for Active; 'I' for Inactive)
REMARK    1  A    between atoms: C_1  and  C_2
REMARK    2  A    between atoms: C_2  and  N_3
REMARK    3  A    between atoms: N_9  and  C_10
REMARK    4  A    between atoms: C_10  and  C_11
REMARK    5  A    between atoms: C_10  and  C_12
REMARK    6  A    between atoms: C_15  and  O_16
REMARK    7  A    between atoms: O_16  and  C_17
REMARK    8  A    between atoms: C_17  and  C_18
REMARK                            x       y       z     vdW  Elec       q    Type
REMARK                         _______ _______ _______ _____ _____    ______ ____
ROOT
ATOM      1  C   UNL     1      11.835   5.533   8.431  0.00  0.00    +0.102 C 
ATOM      2  C   UNL     1      11.130   5.227   9.754  0.00  0.00    +0.033 C 
ENDROOT
BRANCH   1   9
ATOM      3  N   UNL     1      17.046   4.003   8.730  0.00  0.00    -0.299 N 
ATOM      4  C   UNL     1      16.641   3.124   7.634  0.00  0.00    +0.127 C 
ATOM      5  C   UNL     1      15.272   2.489   7.890  0.00  0.00    +0.129 C 
ATOM      6  N   UNL     1      14.260   3.527   8.109  0.00  0.00    -0.275 N 
ATOM      7  C   UNL     1      13.053   3.425   7.477  0.00  0.00    +0.303 C 
ATOM      8  O   UNL     1      12.804   2.489   6.711  0.00  0.00    -0.253 OA
ATOM      9  N   UNL     1      12.066   4.334   7.630  0.00  0.00    -0.293 N 
ATOM     10  C   UNL     1      14.664   4.582   9.025  0.00  0.00    +0.205 C 
ATOM     11  C   UNL     1      16.111   4.650   9.512  0.00  0.00    +0.233 C 
ATOM     12  O   UNL     1      16.407   5.359  10.477  0.00  0.00    -0.274 OA
ATOM     13  H   UNL     1      11.284   4.056   7.049  0.00  0.00    +0.151 HD
BRANCH   3  15
ATOM     14  C   UNL     1      19.176   2.919   9.259  0.00  0.00    +0.024 C 
ATOM     15  C   UNL     1      18.457   4.228   8.986  0.00  0.00    +0.104 C 
ENDBRANCH   3  15
ENDBRANCH   1   9
BRANCH   1  16
ATOM     16  C   UNL     1      11.087   6.570   7.612  0.00  0.00    -0.024 A 
ATOM     17  C   UNL     1      11.750   7.641   7.000  0.00  0.00    +0.009 A 
ATOM     18  C   UNL     1      11.043   8.596   6.268  0.00  0.00    +0.049 A 
ATOM     19  C   UNL     1       9.647   8.522   6.165  0.00  0.00    +0.156 A 
ATOM     20  C   UNL     1       8.993   7.435   6.740  0.00  0.00    +0.165 A 
ATOM     21  F   UNL     1       7.661   7.306   6.629  0.00  0.00    -0.202 F 
ATOM     22  C   UNL     1       9.693   6.474   7.466  0.00  0.00    +0.047 A 
BRANCH  19  23
ATOM     23  O   UNL     1       8.869   9.454   5.538  0.00  0.00    -0.489 OA
BRANCH  23  24
ATOM     24  C   UNL     1       9.101   9.588   4.135  0.00  0.00    +0.232 C 
BRANCH  24  25
ATOM     25  C   UNL     1       7.819   9.365   3.397  0.00  0.00    +0.027 C 
ATOM     26  C   UNL     1       7.152   8.015   3.472  0.00  0.00    +0.007 C 
ATOM     27  C   UNL     1       7.785   8.468   2.185  0.00  0.00    +0.007 C 
ENDBRANCH  24  25
ENDBRANCH  23  24
ENDBRANCH  19  23
ENDBRANCH   1  16
TORSDOF 6
ENDMDL
MODEL 6
REMARK VINA RESULT:      -6.8     23.967     25.458
REMARK  Name = ZINC000543478179
REMARK  8 active torsions:
REMARK  status: ('A' for Active; 'I' for Inactive)
REMARK    1  A    between atoms: C_1  and  C_2
REMARK    2  A    between atoms: C_2  and  N_3
REMARK    3  A    between atoms: N_9  and  C_10
REMARK    4  A    between atoms: C_10  and  C_11
REMARK    5  A    between atoms: C_10  and  C_12
REMARK    6  A    between atoms: C_15  and  O_16
REMARK    7  A    between atoms: O_16  and  C_17
REMARK    8  A    between atoms: C_17  and  C_18
REMARK                            x       y       z     vdW  Elec       q    Type
REMARK                         _______ _______ _______ _____ _____    ______ ____
ROOT
ATOM      1  C   UNL     1      30.714  21.114  14.870  0.00  0.00    +0.102 C 
ATOM      2  C   UNL     1      30.190  21.786  13.599  0.00  0.00    +0.033 C 
ENDROOT
BRANCH   1   9
ATOM      3  N   UNL     1      33.473  23.105  19.115  0.00  0.00    -0.299 N 
ATOM      4  C   UNL     1      32.232  22.777  19.817  0.00  0.00    +0.127 C 
ATOM      5  C   UNL     1      30.997  23.170  19.002  0.00  0.00    +0.129 C 
ATOM      6  N   UNL     1      31.024  22.519  17.688  0.00  0.00    -0.275 N 
ATOM      7  C   UNL     1      29.889  21.925  17.215  0.00  0.00    +0.303 C 
ATOM      8  O   UNL     1      28.846  21.907  17.878  0.00  0.00    -0.253 OA
ATOM      9  N   UNL     1      29.827  21.311  16.014  0.00  0.00    -0.293 N 
ATOM     10  C   UNL     1      32.303  22.597  17.000  0.00  0.00    +0.205 C 
ATOM     11  C   UNL     1      33.528  23.141  17.736  0.00  0.00    +0.233 C 
ATOM     12  O   UNL     1      34.538  23.460  17.105  0.00  0.00    -0.274 OA
ATOM     13  H   UNL     1      28.896  20.931  15.897  0.00  0.00    +0.151 HD
BRANCH   3  15
ATOM     14  C   UNL     1      34.646  24.756  20.488  0.00  0.00    +0.024 C 
ATOM     15  C   UNL     1      34.680  23.367  19.876  0.00  0.00    +0.104 C 
ENDBRANCH   3  15
ENDBRANCH   1   9
BRANCH   1  16
ATOM     16  C   UNL     1      30.979  19.634  14.666  0.00  0.00    -0.024 A 
ATOM     17  C   UNL     1      32.076  19.179  13.924  0.00  0.00    +0.009 A 
ATOM     18  C   UNL     1      32.292  17.814  13.730  0.00  0.00    +0.049 A 
ATOM     19  C   UNL     1      31.390  16.872  14.241  0.00  0.00    +0.156 A 
ATOM     20  C   UNL     1      30.321  17.323  15.011  0.00  0.00    +0.165 A 
ATOM     21  F   UNL     1      29.457  16.449  15.553  0.00  0.00    -0.202 F 
ATOM     22  C   UNL     1      30.103  18.684  15.216  0.00  0.00    +0.047 A 
BRANCH  19  23
ATOM     23  O   UNL     1      31.479  15.524  14.031  0.00  0.00    -0.489 OA
BRANCH  23  24
ATOM     24  C   UNL     1      31.654  15.137  12.668  0.00  0.00    +0.232 C 
BRANCH  24  25
ATOM     25  C   UNL     1      30.342  15.221  11.956  0.00  0.00    +0.027 C 
ATOM     26  C   UNL     1      29.108  14.660  12.617  0.00  0.00    +0.007 C 
ATOM     27  C   UNL     1      29.690  13.974  11.412  0.00  0.00    +0.007 C 
ENDBRANCH  24  25
ENDBRANCH  23  24
ENDBRANCH  19  23
ENDBRANCH   1  16
TORSDOF 6
ENDMDL
MODEL 7
REMARK VINA RESULT:      -6.5     26.262     27.909
REMARK  Name = ZINC000543478179
REMARK  8 active torsions:
REMARK  status: ('A' for Active; 'I' for Inactive)
REMARK    1  A    between atoms: C_1  and  C_2
REMARK    2  A    between atoms: C_2  and  N_3
REMARK    3  A    between atoms: N_9  and  C_10
REMARK    4  A    between atoms: C_10  and  C_11
REMARK    5  A    between atoms: C_10  and  C_12
REMARK    6  A    between atoms: C_15  and  O_16
REMARK    7  A    between atoms: O_16  and  C_17
REMARK    8  A    between atoms: C_17  and  C_18
REMARK                            x       y       z     vdW  Elec       q    Type
REMARK                         _______ _______ _______ _____ _____    ______ ____
ROOT
ATOM      1  C   UNL     1      31.217  24.573  12.449  0.00  0.00    +0.102 C 
ATOM      2  C   UNL     1      30.269  25.711  12.062  0.00  0.00    +0.033 C 
ENDROOT
BRANCH   1   9
ATOM      3  N   UNL     1      33.104  21.904  16.797  0.00  0.00    -0.299 N 
ATOM      4  C   UNL     1      32.322  20.815  16.216  0.00  0.00    +0.127 C 
ATOM      5  C   UNL     1      30.963  21.300  15.704  0.00  0.00    +0.129 C 
ATOM      6  N   UNL     1      31.141  22.376  14.724  0.00  0.00    -0.275 N 
ATOM      7  C   UNL     1      30.423  22.344  13.562  0.00  0.00    +0.303 C 
ATOM      8  O   UNL     1      29.643  21.420  13.311  0.00  0.00    -0.253 OA
ATOM      9  N   UNL     1      30.523  23.299  12.611  0.00  0.00    -0.293 N 
ATOM     10  C   UNL     1      32.087  23.407  15.122  0.00  0.00    +0.205 C 
ATOM     11  C   UNL     1      32.942  23.208  16.373  0.00  0.00    +0.233 C 
ATOM     12  O   UNL     1      33.545  24.163  16.869  0.00  0.00    -0.274 OA
ATOM     13  H   UNL     1      29.916  23.047  11.841  0.00  0.00    +0.151 HD
BRANCH   3  15
ATOM     14  C   UNL     1      33.439  21.047  19.065  0.00  0.00    +0.024 C 
ATOM     15  C   UNL     1      34.094  21.613  17.818  0.00  0.00    +0.104 C 
ENDBRANCH   3  15
ENDBRANCH   1   9
BRANCH   1  16
ATOM     16  C   UNL     1      32.360  24.422  11.463  0.00  0.00    -0.024 A 
ATOM     17  C   UNL     1      32.563  25.341  10.426  0.00  0.00    +0.009 A 
ATOM     18  C   UNL     1      33.608  25.173   9.516  0.00  0.00    +0.049 A 
ATOM     19  C   UNL     1      34.451  24.057   9.599  0.00  0.00    +0.156 A 
ATOM     20  C   UNL     1      34.273  23.164  10.653  0.00  0.00    +0.165 A 
ATOM     21  F   UNL     1      35.085  22.104  10.791  0.00  0.00    -0.202 F 
ATOM     22  C   UNL     1      33.237  23.329  11.570  0.00  0.00    +0.047 A 
BRANCH  19  23
ATOM     23  O   UNL     1      35.445  23.772   8.705  0.00  0.00    -0.489 OA
BRANCH  23  24
ATOM     24  C   UNL     1      35.024  23.682   7.344  0.00  0.00    +0.232 C 
BRANCH  24  25
ATOM     25  C   UNL     1      34.333  22.373   7.124  0.00  0.00    +0.027 C 
ATOM     26  C   UNL     1      35.033  21.096   7.516  0.00  0.00    +0.007 C 
ATOM     27  C   UNL     1      34.826  21.422   6.062  0.00  0.00    +0.007 C 
ENDBRANCH  24  25
ENDBRANCH  23  24
ENDBRANCH  19  23
ENDBRANCH   1  16
TORSDOF 6
ENDMDL
MODEL 8
REMARK VINA RESULT:      -6.4      3.549      8.445
REMARK  Name = ZINC000543478179
REMARK  8 active torsions:
REMARK  status: ('A' for Active; 'I' for Inactive)
REMARK    1  A    between atoms: C_1  and  C_2
REMARK    2  A    between atoms: C_2  and  N_3
REMARK    3  A    between atoms: N_9  and  C_10
REMARK    4  A    between atoms: C_10  and  C_11
REMARK    5  A    between atoms: C_10  and  C_12
REMARK    6  A    between atoms: C_15  and  O_16
REMARK    7  A    between atoms: O_16  and  C_17
REMARK    8  A    between atoms: C_17  and  C_18
REMARK                            x       y       z     vdW  Elec       q    Type
REMARK                         _______ _______ _______ _____ _____    ______ ____
ROOT
ATOM      1  C   UNL     1      14.715   2.903   5.830  0.00  0.00    +0.102 C 
ATOM      2  C   UNL     1      14.871   1.574   5.087  0.00  0.00    +0.033 C 
ENDROOT
BRANCH   1   9
ATOM      3  N   UNL     1      12.380   5.326  10.104  0.00  0.00    -0.299 N 
ATOM      4  C   UNL     1      13.765   5.400  10.563  0.00  0.00    +0.127 C 
ATOM      5  C   UNL     1      14.524   4.098  10.292  0.00  0.00    +0.129 C 
ATOM      6  N   UNL     1      14.480   3.769   8.864  0.00  0.00    -0.275 N 
ATOM      7  C   UNL     1      15.627   3.374   8.235  0.00  0.00    +0.303 C 
ATOM      8  O   UNL     1      16.703   3.307   8.838  0.00  0.00    -0.253 OA
ATOM      9  N   UNL     1      15.670   3.047   6.925  0.00  0.00    -0.293 N 
ATOM     10  C   UNL     1      13.164   3.887   8.256  0.00  0.00    +0.205 C 
ATOM     11  C   UNL     1      12.017   4.512   9.050  0.00  0.00    +0.233 C 
ATOM     12  O   UNL     1      10.853   4.382   8.662  0.00  0.00    -0.274 OA
ATOM     13  H   UNL     1      16.626   2.811   6.687  0.00  0.00    +0.151 HD
BRANCH   3  15
ATOM     14  C   UNL     1      11.117   5.689  12.168  0.00  0.00    +0.024 C 
ATOM     15  C   UNL     1      11.367   6.145  10.743  0.00  0.00    +0.104 C 
ENDBRANCH   3  15
ENDBRANCH   1   9
BRANCH   1  16
ATOM     16  C   UNL     1      14.812   4.095   4.896  0.00  0.00    -0.024 A 
ATOM     17  C   UNL     1      15.671   4.094   3.790  0.00  0.00    +0.009 A 
ATOM     18  C   UNL     1      15.762   5.207   2.953  0.00  0.00    +0.049 A 
ATOM     19  C   UNL     1      15.023   6.365   3.229  0.00  0.00    +0.156 A 
ATOM     20  C   UNL     1      14.140   6.352   4.306  0.00  0.00    +0.165 A 
ATOM     21  F   UNL     1      13.384   7.428   4.579  0.00  0.00    -0.202 F 
ATOM     22  C   UNL     1      14.038   5.242   5.141  0.00  0.00    +0.047 A 
BRANCH  19  23
ATOM     23  O   UNL     1      15.111   7.526   2.512  0.00  0.00    -0.489 OA
BRANCH  23  24
ATOM     24  C   UNL     1      14.194   7.632   1.423  0.00  0.00    +0.232 C 
BRANCH  24  25
ATOM     25  C   UNL     1      13.789   9.062   1.254  0.00  0.00    +0.027 C 
ATOM     26  C   UNL     1      12.728   9.640   2.157  0.00  0.00    +0.007 C 
ATOM     27  C   UNL     1      12.429   9.408   0.701  0.00  0.00    +0.007 C 
ENDBRANCH  24  25
ENDBRANCH  23  24
ENDBRANCH  19  23
ENDBRANCH   1  16
TORSDOF 6
ENDMDL
MODEL 9
REMARK VINA RESULT:      -6.4      6.111      8.932
REMARK  Name = ZINC000543478179
REMARK  8 active torsions:
REMARK  status: ('A' for Active; 'I' for Inactive)
REMARK    1  A    between atoms: C_1  and  C_2
REMARK    2  A    between atoms: C_2  and  N_3
REMARK    3  A    between atoms: N_9  and  C_10
REMARK    4  A    between atoms: C_10  and  C_11
REMARK    5  A    between atoms: C_10  and  C_12
REMARK    6  A    between atoms: C_15  and  O_16
REMARK    7  A    between atoms: O_16  and  C_17
REMARK    8  A    between atoms: C_17  and  C_18
REMARK                            x       y       z     vdW  Elec       q    Type
REMARK                         _______ _______ _______ _____ _____    ______ ____
ROOT
ATOM      1  C   UNL     1       9.565   9.758   5.552  0.00  0.00    +0.102 C 
ATOM      2  C   UNL     1       8.835   9.402   4.254  0.00  0.00    +0.033 C 
ENDROOT
BRANCH   1   9
ATOM      3  N   UNL     1      10.987  15.004   5.331  0.00  0.00    -0.299 N 
ATOM      4  C   UNL     1      10.123  15.079   6.509  0.00  0.00    +0.127 C 
ATOM      5  C   UNL     1       8.843  14.258   6.329  0.00  0.00    +0.129 C 
ATOM      6  N   UNL     1       9.171  12.861   6.028  0.00  0.00    -0.275 N 
ATOM      7  C   UNL     1       8.503  11.864   6.681  0.00  0.00    +0.303 C 
ATOM      8  O   UNL     1       7.645  12.114   7.533  0.00  0.00    -0.253 OA
ATOM      9  N   UNL     1       8.740  10.553   6.457  0.00  0.00    -0.293 N 
ATOM     10  C   UNL     1      10.198  12.685   5.013  0.00  0.00    +0.205 C 
ATOM     11  C   UNL     1      10.975  13.899   4.504  0.00  0.00    +0.233 C 
ATOM     12  O   UNL     1      11.650  13.815   3.474  0.00  0.00    -0.274 OA
ATOM     13  H   UNL     1       8.143  10.012   7.071  0.00  0.00    +0.151 HD
BRANCH   3  15
ATOM     14  C   UNL     1      11.165  17.256   4.390  0.00  0.00    +0.024 C 
ATOM     15  C   UNL     1      11.897  16.095   5.038  0.00  0.00    +0.104 C 
ENDBRANCH   3  15
ENDBRANCH   1   9
BRANCH   1  16
ATOM     16  C   UNL     1      10.087   8.528   6.270  0.00  0.00    -0.024 A 
ATOM     17  C   UNL     1      11.455   8.233   6.323  0.00  0.00    +0.009 A 
ATOM     18  C   UNL     1      11.915   7.085   6.971  0.00  0.00    +0.049 A 
ATOM     19  C   UNL     1      11.010   6.183   7.546  0.00  0.00    +0.156 A 
ATOM     20  C   UNL     1       9.653   6.496   7.527  0.00  0.00    +0.165 A 
ATOM     21  F   UNL     1       8.758   5.678   8.103  0.00  0.00    -0.202 F 
ATOM     22  C   UNL     1       9.187   7.644   6.889  0.00  0.00    +0.047 A 
BRANCH  19  23
ATOM     23  O   UNL     1      11.366   4.998   8.128  0.00  0.00    -0.489 OA
BRANCH  23  24
ATOM     24  C   UNL     1      12.276   5.114   9.221  0.00  0.00    +0.232 C 
BRANCH  24  25
ATOM     25  C   UNL     1      11.508   5.336  10.485  0.00  0.00    +0.027 C 
ATOM     26  C   UNL     1      11.569   6.685  11.156  0.00  0.00    +0.007 C 
ATOM     27  C   UNL     1      12.232   5.498  11.798  0.00  0.00    +0.007 C 
ENDBRANCH  24  25
ENDBRANCH  23  24
ENDBRANCH  19  23
ENDBRANCH   1  16
TORSDOF 6
ENDMDL
