MODEL 1
REMARK VINA RESULT:      -6.4      0.000      0.000
REMARK  Name = ZINC000583127796
REMARK  2 active torsions:
REMARK  status: ('A' for Active; 'I' for Inactive)
REMARK    1  A    between atoms: C_2  and  C_4
REMARK    2  A    between atoms: C_7  and  C_8
REMARK                            x       y       z     vdW  Elec       q    Type
REMARK                         _______ _______ _______ _____ _____    ______ ____
ROOT
ATOM      1  C   UNL     1      34.765  21.986  12.140  0.00  0.00    +0.247 C 
ATOM      2  O   UNL     1      35.706  21.195  12.054  0.00  0.00    -0.270 OA
ATOM      3  N   UNL     1      34.512  22.976  11.178  0.00  0.00    -0.297 N 
ATOM      4  C   UNL     1      33.426  23.958  11.197  0.00  0.00    +0.108 C 
ATOM      5  C   UNL     1      32.597  23.936   9.927  0.00  0.00    +0.020 C 
ATOM      6  C   UNL     1      33.468  24.005   8.686  0.00  0.00    +0.011 C 
ATOM      7  C   UNL     1      34.599  22.948   8.679  0.00  0.00    -0.004 C 
ATOM      8  C   UNL     1      35.471  23.235   7.438  0.00  0.00    +0.020 C 
ATOM      9  C   UNL     1      36.194  21.977   7.011  0.00  0.00    +0.070 C 
ATOM     10  S   UNL     1      34.971  20.674   7.224  0.00  0.00    -0.160 S 
ATOM     11  C   UNL     1      34.034  21.517   8.529  0.00  0.00    +0.077 C 
ATOM     12  C   UNL     1      35.400  23.065  10.003  0.00  0.00    +0.115 C 
ENDROOT
BRANCH   1  16
ATOM     13  C   UNL     1      31.810  21.677  15.222  0.00  0.00    +0.037 A 
ATOM     14  C   UNL     1      32.924  22.497  15.425  0.00  0.00    +0.014 A 
ATOM     15  C   UNL     1      33.952  22.515  14.481  0.00  0.00    +0.014 A 
ATOM     16  C   UNL     1      33.820  21.807  13.285  0.00  0.00    +0.037 A 
ATOM     17  C   UNL     1      32.752  20.913  13.129  0.00  0.00    +0.014 A 
ATOM     18  C   UNL     1      31.753  20.840  14.105  0.00  0.00    +0.014 A 
BRANCH  13  20
ATOM     19  N   UNL     1      30.260  22.896  16.645  0.00  0.00    -0.325 N 
ATOM     20  C   UNL     1      30.671  21.677  16.181  0.00  0.00    +0.242 C 
ATOM     21  O   UNL     1      30.099  20.648  16.496  0.00  0.00    -0.270 OA
ATOM     22  H   UNL     1      29.410  22.895  17.197  0.00  0.00    +0.145 HD
ATOM     23  H   UNL     1      30.517  23.762  16.193  0.00  0.00    +0.145 HD
ENDBRANCH  13  20
ENDBRANCH   1  16
TORSDOF 2
ENDMDL
MODEL 2
REMARK VINA RESULT:      -6.2      2.305      3.689
REMARK  Name = ZINC000583127796
REMARK  2 active torsions:
REMARK  status: ('A' for Active; 'I' for Inactive)
REMARK    1  A    between atoms: C_2  and  C_4
REMARK    2  A    between atoms: C_7  and  C_8
REMARK                            x       y       z     vdW  Elec       q    Type
REMARK                         _______ _______ _______ _____ _____    ______ ____
ROOT
ATOM      1  C   UNL     1      34.518  23.894   8.811  0.00  0.00    +0.247 C 
ATOM      2  O   UNL     1      35.295  24.843   8.691  0.00  0.00    -0.270 OA
ATOM      3  N   UNL     1      34.380  22.893   7.837  0.00  0.00    -0.297 N 
ATOM      4  C   UNL     1      33.485  21.736   7.891  0.00  0.00    +0.108 C 
ATOM      5  C   UNL     1      34.217  20.422   7.690  0.00  0.00    +0.020 C 
ATOM      6  C   UNL     1      35.106  20.456   6.461  0.00  0.00    +0.011 C 
ATOM      7  C   UNL     1      36.056  21.679   6.433  0.00  0.00    -0.004 C 
ATOM      8  C   UNL     1      36.783  21.647   5.071  0.00  0.00    +0.020 C 
ATOM      9  C   UNL     1      38.099  22.387   5.172  0.00  0.00    +0.070 C 
ATOM     10  S   UNL     1      38.748  21.914   6.782  0.00  0.00    -0.160 S 
ATOM     11  C   UNL     1      37.131  21.584   7.538  0.00  0.00    +0.077 C 
ATOM     12  C   UNL     1      35.214  22.969   6.621  0.00  0.00    +0.115 C 
ENDROOT
BRANCH   1  16
ATOM     13  C   UNL     1      32.325  23.212  12.424  0.00  0.00    +0.037 A 
ATOM     14  C   UNL     1      31.699  23.866  11.360  0.00  0.00    +0.014 A 
ATOM     15  C   UNL     1      32.436  24.201  10.222  0.00  0.00    +0.014 A 
ATOM     16  C   UNL     1      33.763  23.785  10.097  0.00  0.00    +0.037 A 
ATOM     17  C   UNL     1      34.413  23.218  11.202  0.00  0.00    +0.014 A 
ATOM     18  C   UNL     1      33.696  22.943  12.370  0.00  0.00    +0.014 A 
BRANCH  13  20
ATOM     19  N   UNL     1      31.396  23.726  14.612  0.00  0.00    -0.325 N 
ATOM     20  C   UNL     1      31.556  22.791  13.627  0.00  0.00    +0.242 C 
ATOM     21  O   UNL     1      31.048  21.685  13.708  0.00  0.00    -0.270 OA
ATOM     22  H   UNL     1      30.770  23.471  15.366  0.00  0.00    +0.145 HD
ATOM     23  H   UNL     1      31.552  24.712  14.453  0.00  0.00    +0.145 HD
ENDBRANCH  13  20
ENDBRANCH   1  16
TORSDOF 2
ENDMDL
MODEL 3
REMARK VINA RESULT:      -6.2      2.816      4.099
REMARK  Name = ZINC000583127796
REMARK  2 active torsions:
REMARK  status: ('A' for Active; 'I' for Inactive)
REMARK    1  A    between atoms: C_2  and  C_4
REMARK    2  A    between atoms: C_7  and  C_8
REMARK                            x       y       z     vdW  Elec       q    Type
REMARK                         _______ _______ _______ _____ _____    ______ ____
ROOT
ATOM      1  C   UNL     1      34.844  23.801   8.496  0.00  0.00    +0.247 C 
ATOM      2  O   UNL     1      35.595  24.773   8.401  0.00  0.00    -0.270 OA
ATOM      3  N   UNL     1      34.793  22.779   7.535  0.00  0.00    -0.297 N 
ATOM      4  C   UNL     1      33.934  21.594   7.563  0.00  0.00    +0.108 C 
ATOM      5  C   UNL     1      34.718  20.302   7.428  0.00  0.00    +0.020 C 
ATOM      6  C   UNL     1      35.673  20.344   6.249  0.00  0.00    +0.011 C 
ATOM      7  C   UNL     1      36.582  21.597   6.249  0.00  0.00    -0.004 C 
ATOM      8  C   UNL     1      37.385  21.566   4.930  0.00  0.00    +0.020 C 
ATOM      9  C   UNL     1      38.668  22.351   5.088  0.00  0.00    +0.070 C 
ATOM     10  S   UNL     1      39.242  21.929   6.741  0.00  0.00    -0.160 S 
ATOM     11  C   UNL     1      37.598  21.558   7.413  0.00  0.00    +0.077 C 
ATOM     12  C   UNL     1      35.690  22.862   6.366  0.00  0.00    +0.115 C 
ENDROOT
BRANCH   1  16
ATOM     13  C   UNL     1      32.485  23.861  12.069  0.00  0.00    +0.037 A 
ATOM     14  C   UNL     1      33.830  23.488  12.145  0.00  0.00    +0.014 A 
ATOM     15  C   UNL     1      34.579  23.348  10.975  0.00  0.00    +0.014 A 
ATOM     16  C   UNL     1      34.023  23.690   9.741  0.00  0.00    +0.037 A 
ATOM     17  C   UNL     1      32.651  23.969   9.657  0.00  0.00    +0.014 A 
ATOM     18  C   UNL     1      31.881  24.042  10.822  0.00  0.00    +0.014 A 
BRANCH  13  20
ATOM     19  N   UNL     1      30.462  24.682  13.138  0.00  0.00    -0.325 N 
ATOM     20  C   UNL     1      31.675  24.074  13.299  0.00  0.00    +0.242 C 
ATOM     21  O   UNL     1      32.051  23.678  14.390  0.00  0.00    -0.270 OA
ATOM     22  H   UNL     1      29.868  24.710  13.958  0.00  0.00    +0.145 HD
ATOM     23  H   UNL     1      30.009  24.758  12.237  0.00  0.00    +0.145 HD
ENDBRANCH  13  20
ENDBRANCH   1  16
TORSDOF 2
ENDMDL
MODEL 4
REMARK VINA RESULT:      -6.1     26.515     29.322
REMARK  Name = ZINC000583127796
REMARK  2 active torsions:
REMARK  status: ('A' for Active; 'I' for Inactive)
REMARK    1  A    between atoms: C_2  and  C_4
REMARK    2  A    between atoms: C_7  and  C_8
REMARK                            x       y       z     vdW  Elec       q    Type
REMARK                         _______ _______ _______ _____ _____    ______ ____
ROOT
ATOM      1  C   UNL     1      18.720   5.512  29.897  0.00  0.00    +0.247 C 
ATOM      2  O   UNL     1      19.472   5.830  30.820  0.00  0.00    -0.270 OA
ATOM      3  N   UNL     1      19.160   5.365  28.572  0.00  0.00    -0.297 N 
ATOM      4  C   UNL     1      18.342   4.996  27.415  0.00  0.00    +0.108 C 
ATOM      5  C   UNL     1      18.896   3.798  26.667  0.00  0.00    +0.020 C 
ATOM      6  C   UNL     1      20.371   3.966  26.351  0.00  0.00    +0.011 C 
ATOM      7  C   UNL     1      21.219   4.339  27.592  0.00  0.00    -0.004 C 
ATOM      8  C   UNL     1      22.652   4.610  27.088  0.00  0.00    +0.020 C 
ATOM      9  C   UNL     1      23.644   4.393  28.210  0.00  0.00    +0.070 C 
ATOM     10  S   UNL     1      23.031   2.932  29.062  0.00  0.00    -0.160 S 
ATOM     11  C   UNL     1      21.292   3.170  28.599  0.00  0.00    +0.077 C 
ATOM     12  C   UNL     1      20.588   5.584  28.271  0.00  0.00    +0.115 C 
ENDROOT
BRANCH   1  16
ATOM     13  C   UNL     1      14.702   4.824  31.205  0.00  0.00    +0.037 A 
ATOM     14  C   UNL     1      15.642   3.797  31.320  0.00  0.00    +0.014 A 
ATOM     15  C   UNL     1      16.923   3.965  30.789  0.00  0.00    +0.014 A 
ATOM     16  C   UNL     1      17.302   5.195  30.247  0.00  0.00    +0.037 A 
ATOM     17  C   UNL     1      16.332   6.187  30.045  0.00  0.00    +0.014 A 
ATOM     18  C   UNL     1      15.028   5.995  30.514  0.00  0.00    +0.014 A 
BRANCH  13  20
ATOM     19  N   UNL     1      12.568   5.821  31.809  0.00  0.00    -0.325 N 
ATOM     20  C   UNL     1      13.348   4.698  31.809  0.00  0.00    +0.242 C 
ATOM     21  O   UNL     1      12.933   3.633  32.235  0.00  0.00    -0.270 OA
ATOM     22  H   UNL     1      11.609   5.695  32.109  0.00  0.00    +0.145 HD
ATOM     23  H   UNL     1      12.768   6.619  31.221  0.00  0.00    +0.145 HD
ENDBRANCH  13  20
ENDBRANCH   1  16
TORSDOF 2
ENDMDL
MODEL 5
REMARK VINA RESULT:      -5.8      4.796      6.037
REMARK  Name = ZINC000583127796
REMARK  2 active torsions:
REMARK  status: ('A' for Active; 'I' for Inactive)
REMARK    1  A    between atoms: C_2  and  C_4
REMARK    2  A    between atoms: C_7  and  C_8
REMARK                            x       y       z     vdW  Elec       q    Type
REMARK                         _______ _______ _______ _____ _____    ______ ____
ROOT
ATOM      1  C   UNL     1      34.674  20.827  16.089  0.00  0.00    +0.247 C 
ATOM      2  O   UNL     1      35.426  21.802  16.109  0.00  0.00    -0.270 OA
ATOM      3  N   UNL     1      33.424  20.841  15.449  0.00  0.00    -0.297 N 
ATOM      4  C   UNL     1      32.466  19.737  15.376  0.00  0.00    +0.108 C 
ATOM      5  C   UNL     1      32.062  19.407  13.951  0.00  0.00    +0.020 C 
ATOM      6  C   UNL     1      31.634  20.646  13.188  0.00  0.00    +0.011 C 
ATOM      7  C   UNL     1      32.670  21.795  13.265  0.00  0.00    -0.004 C 
ATOM      8  C   UNL     1      32.033  23.017  12.568  0.00  0.00    +0.020 C 
ATOM      9  C   UNL     1      33.116  23.947  12.067  0.00  0.00    +0.070 C 
ATOM     10  S   UNL     1      34.382  22.844  11.422  0.00  0.00    -0.160 S 
ATOM     11  C   UNL     1      33.963  21.442  12.497  0.00  0.00    +0.077 C 
ATOM     12  C   UNL     1      32.998  22.072  14.756  0.00  0.00    +0.115 C 
ENDROOT
BRANCH   1  16
ATOM     13  C   UNL     1      35.867  17.019  17.639  0.00  0.00    +0.037 A 
ATOM     14  C   UNL     1      35.098  17.870  18.438  0.00  0.00    +0.014 A 
ATOM     15  C   UNL     1      34.803  19.160  17.993  0.00  0.00    +0.014 A 
ATOM     16  C   UNL     1      35.175  19.562  16.708  0.00  0.00    +0.037 A 
ATOM     17  C   UNL     1      36.026  18.745  15.951  0.00  0.00    +0.014 A 
ATOM     18  C   UNL     1      36.381  17.477  16.423  0.00  0.00    +0.014 A 
BRANCH  13  20
ATOM     19  N   UNL     1      37.186  15.439  18.934  0.00  0.00    -0.325 N 
ATOM     20  C   UNL     1      36.151  15.619  18.059  0.00  0.00    +0.242 C 
ATOM     21  O   UNL     1      35.463  14.685  17.684  0.00  0.00    -0.270 OA
ATOM     22  H   UNL     1      37.292  14.504  19.308  0.00  0.00    +0.145 HD
ATOM     23  H   UNL     1      37.578  16.200  19.473  0.00  0.00    +0.145 HD
ENDBRANCH  13  20
ENDBRANCH   1  16
TORSDOF 2
ENDMDL
MODEL 6
REMARK VINA RESULT:      -5.7      1.862      2.542
REMARK  Name = ZINC000583127796
REMARK  2 active torsions:
REMARK  status: ('A' for Active; 'I' for Inactive)
REMARK    1  A    between atoms: C_2  and  C_4
REMARK    2  A    between atoms: C_7  and  C_8
REMARK                            x       y       z     vdW  Elec       q    Type
REMARK                         _______ _______ _______ _____ _____    ______ ____
ROOT
ATOM      1  C   UNL     1      34.422  23.997  10.657  0.00  0.00    +0.247 C 
ATOM      2  O   UNL     1      35.319  24.743  11.056  0.00  0.00    -0.270 OA
ATOM      3  N   UNL     1      34.246  23.672   9.304  0.00  0.00    -0.297 N 
ATOM      4  C   UNL     1      33.213  22.801   8.740  0.00  0.00    +0.108 C 
ATOM      5  C   UNL     1      33.789  21.683   7.892  0.00  0.00    +0.020 C 
ATOM      6  C   UNL     1      34.779  22.208   6.868  0.00  0.00    +0.011 C 
ATOM      7  C   UNL     1      35.872  23.112   7.488  0.00  0.00    -0.004 C 
ATOM      8  C   UNL     1      36.705  23.673   6.316  0.00  0.00    +0.020 C 
ATOM      9  C   UNL     1      38.089  24.048   6.798  0.00  0.00    +0.070 C 
ATOM     10  S   UNL     1      38.533  22.724   7.934  0.00  0.00    -0.160 S 
ATOM     11  C   UNL     1      36.828  22.302   8.393  0.00  0.00    +0.077 C 
ATOM     12  C   UNL     1      35.185  24.233   8.313  0.00  0.00    +0.115 C 
ENDROOT
BRANCH   1  16
ATOM     13  C   UNL     1      32.054  22.436  13.864  0.00  0.00    +0.037 A 
ATOM     14  C   UNL     1      33.176  21.722  13.434  0.00  0.00    +0.014 A 
ATOM     15  C   UNL     1      33.887  22.156  12.314  0.00  0.00    +0.014 A 
ATOM     16  C   UNL     1      33.551  23.360  11.693  0.00  0.00    +0.037 A 
ATOM     17  C   UNL     1      32.372  24.021  12.063  0.00  0.00    +0.014 A 
ATOM     18  C   UNL     1      31.617  23.550  13.143  0.00  0.00    +0.014 A 
BRANCH  13  20
ATOM     19  N   UNL     1      30.977  23.028  15.962  0.00  0.00    -0.325 N 
ATOM     20  C   UNL     1      31.308  22.031  15.087  0.00  0.00    +0.242 C 
ATOM     21  O   UNL     1      30.963  20.877  15.274  0.00  0.00    -0.270 OA
ATOM     22  H   UNL     1      30.366  22.763  16.725  0.00  0.00    +0.145 HD
ATOM     23  H   UNL     1      30.995  24.005  15.702  0.00  0.00    +0.145 HD
ENDBRANCH  13  20
ENDBRANCH   1  16
TORSDOF 2
ENDMDL
MODEL 7
REMARK VINA RESULT:      -5.7      3.927      7.085
REMARK  Name = ZINC000583127796
REMARK  2 active torsions:
REMARK  status: ('A' for Active; 'I' for Inactive)
REMARK    1  A    between atoms: C_2  and  C_4
REMARK    2  A    between atoms: C_7  and  C_8
REMARK                            x       y       z     vdW  Elec       q    Type
REMARK                         _______ _______ _______ _____ _____    ______ ____
ROOT
ATOM      1  C   UNL     1      35.196  23.259  12.036  0.00  0.00    +0.247 C 
ATOM      2  O   UNL     1      35.883  22.510  12.734  0.00  0.00    -0.270 OA
ATOM      3  N   UNL     1      33.821  23.065  11.834  0.00  0.00    -0.297 N 
ATOM      4  C   UNL     1      32.930  23.897  11.024  0.00  0.00    +0.108 C 
ATOM      5  C   UNL     1      31.720  24.385  11.800  0.00  0.00    +0.020 C 
ATOM      6  C   UNL     1      31.018  23.248  12.519  0.00  0.00    +0.011 C 
ATOM      7  C   UNL     1      31.977  22.392  13.383  0.00  0.00    -0.004 C 
ATOM      8  C   UNL     1      31.149  21.209  13.929  0.00  0.00    +0.020 C 
ATOM      9  C   UNL     1      31.777  20.683  15.201  0.00  0.00    +0.070 C 
ATOM     10  S   UNL     1      32.300  22.163  16.079  0.00  0.00    -0.160 S 
ATOM     11  C   UNL     1      32.507  23.188  14.596  0.00  0.00    +0.077 C 
ATOM     12  C   UNL     1      33.162  21.923  12.498  0.00  0.00    +0.115 C 
ENDROOT
BRANCH   1  16
ATOM     13  C   UNL     1      36.844  26.921  10.551  0.00  0.00    +0.037 A 
ATOM     14  C   UNL     1      36.207  26.050   9.663  0.00  0.00    +0.014 A 
ATOM     15  C   UNL     1      35.772  24.800  10.109  0.00  0.00    +0.014 A 
ATOM     16  C   UNL     1      35.867  24.465  11.461  0.00  0.00    +0.037 A 
ATOM     17  C   UNL     1      36.591  25.297  12.327  0.00  0.00    +0.014 A 
ATOM     18  C   UNL     1      37.090  26.520  11.867  0.00  0.00    +0.014 A 
BRANCH  13  20
ATOM     19  N   UNL     1      38.507  28.695  10.530  0.00  0.00    -0.325 N 
ATOM     20  C   UNL     1      37.269  28.280  10.122  0.00  0.00    +0.242 C 
ATOM     21  O   UNL     1      36.572  28.971   9.397  0.00  0.00    -0.270 OA
ATOM     22  H   UNL     1      38.836  29.566  10.132  0.00  0.00    +0.145 HD
ATOM     23  H   UNL     1      39.206  28.052  10.877  0.00  0.00    +0.145 HD
ENDBRANCH  13  20
ENDBRANCH   1  16
TORSDOF 2
ENDMDL
MODEL 8
REMARK VINA RESULT:      -5.6     21.433     22.814
REMARK  Name = ZINC000583127796
REMARK  2 active torsions:
REMARK  status: ('A' for Active; 'I' for Inactive)
REMARK    1  A    between atoms: C_2  and  C_4
REMARK    2  A    between atoms: C_7  and  C_8
REMARK                            x       y       z     vdW  Elec       q    Type
REMARK                         _______ _______ _______ _____ _____    ______ ____
ROOT
ATOM      1  C   UNL     1      20.531   5.965   1.443  0.00  0.00    +0.247 C 
ATOM      2  O   UNL     1      19.617   5.659   0.675  0.00  0.00    -0.270 OA
ATOM      3  N   UNL     1      21.553   5.075   1.806  0.00  0.00    -0.297 N 
ATOM      4  C   UNL     1      22.672   5.348   2.709  0.00  0.00    +0.108 C 
ATOM      5  C   UNL     1      24.019   5.052   2.077  0.00  0.00    +0.020 C 
ATOM      6  C   UNL     1      24.055   3.670   1.452  0.00  0.00    +0.011 C 
ATOM      7  C   UNL     1      22.872   3.408   0.488  0.00  0.00    -0.004 C 
ATOM      8  C   UNL     1      22.971   1.931   0.050  0.00  0.00    +0.020 C 
ATOM      9  C   UNL     1      22.281   1.740  -1.283  0.00  0.00    +0.070 C 
ATOM     10  S   UNL     1      22.732   3.204  -2.226  0.00  0.00    -0.160 S 
ATOM     11  C   UNL     1      22.977   4.279  -0.784  0.00  0.00    +0.077 C 
ATOM     12  C   UNL     1      21.545   3.715   1.232  0.00  0.00    +0.115 C 
ENDROOT
BRANCH   1  16
ATOM     13  C   UNL     1      20.363  10.085   2.596  0.00  0.00    +0.037 A 
ATOM     14  C   UNL     1      21.423   9.642   1.799  0.00  0.00    +0.014 A 
ATOM     15  C   UNL     1      21.556   8.282   1.516  0.00  0.00    +0.014 A 
ATOM     16  C   UNL     1      20.573   7.379   1.928  0.00  0.00    +0.037 A 
ATOM     17  C   UNL     1      19.568   7.809   2.805  0.00  0.00    +0.014 A 
ATOM     18  C   UNL     1      19.472   9.162   3.148  0.00  0.00    +0.014 A 
BRANCH  13  20
ATOM     19  N   UNL     1      20.193  11.921   4.181  0.00  0.00    -0.325 N 
ATOM     20  C   UNL     1      20.161  11.534   2.870  0.00  0.00    +0.242 C 
ATOM     21  O   UNL     1      20.027  12.344   1.968  0.00  0.00    -0.270 OA
ATOM     22  H   UNL     1      20.178  12.920   4.348  0.00  0.00    +0.145 HD
ATOM     23  H   UNL     1      20.580  11.336   4.909  0.00  0.00    +0.145 HD
ENDBRANCH  13  20
ENDBRANCH   1  16
TORSDOF 2
ENDMDL
MODEL 9
REMARK VINA RESULT:      -5.6     14.227     15.407
REMARK  Name = ZINC000583127796
REMARK  2 active torsions:
REMARK  status: ('A' for Active; 'I' for Inactive)
REMARK    1  A    between atoms: C_2  and  C_4
REMARK    2  A    between atoms: C_7  and  C_8
REMARK                            x       y       z     vdW  Elec       q    Type
REMARK                         _______ _______ _______ _____ _____    ______ ____
ROOT
ATOM      1  C   UNL     1      24.046  32.112  15.686  0.00  0.00    +0.247 C 
ATOM      2  O   UNL     1      24.003  32.870  14.715  0.00  0.00    -0.270 OA
ATOM      3  N   UNL     1      25.154  32.035  16.544  0.00  0.00    -0.297 N 
ATOM      4  C   UNL     1      25.295  31.167  17.715  0.00  0.00    +0.108 C 
ATOM      5  C   UNL     1      25.646  31.937  18.974  0.00  0.00    +0.020 C 
ATOM      6  C   UNL     1      26.822  32.871  18.752  0.00  0.00    +0.011 C 
ATOM      7  C   UNL     1      26.644  33.790  17.520  0.00  0.00    -0.004 C 
ATOM      8  C   UNL     1      27.966  34.568  17.348  0.00  0.00    +0.020 C 
ATOM      9  C   UNL     1      27.712  35.861  16.605  0.00  0.00    +0.070 C 
ATOM     10  S   UNL     1      26.158  36.462  17.284  0.00  0.00    -0.160 S 
ATOM     11  C   UNL     1      25.521  34.827  17.746  0.00  0.00    +0.077 C 
ATOM     12  C   UNL     1      26.313  32.911  16.285  0.00  0.00    +0.115 C 
ENDROOT
BRANCH   1  16
ATOM     13  C   UNL     1      20.424  29.886  16.188  0.00  0.00    +0.037 A 
ATOM     14  C   UNL     1      20.541  31.142  16.789  0.00  0.00    +0.014 A 
ATOM     15  C   UNL     1      21.757  31.826  16.735  0.00  0.00    +0.014 A 
ATOM     16  C   UNL     1      22.818  31.313  15.986  0.00  0.00    +0.037 A 
ATOM     17  C   UNL     1      22.731  30.013  15.469  0.00  0.00    +0.014 A 
ATOM     18  C   UNL     1      21.536  29.295  15.581  0.00  0.00    +0.014 A 
BRANCH  13  20
ATOM     19  N   UNL     1      19.016  28.110  15.306  0.00  0.00    -0.325 N 
ATOM     20  C   UNL     1      19.127  29.156  16.180  0.00  0.00    +0.242 C 
ATOM     21  O   UNL     1      18.226  29.441  16.951  0.00  0.00    -0.270 OA
ATOM     22  H   UNL     1      18.180  27.546  15.394  0.00  0.00    +0.145 HD
ATOM     23  H   UNL     1      19.821  27.679  14.873  0.00  0.00    +0.145 HD
ENDBRANCH  13  20
ENDBRANCH   1  16
TORSDOF 2
ENDMDL
