MODEL 1
REMARK VINA RESULT:      -6.2      0.000      0.000
REMARK  Name = ZINC000826139982
REMARK  4 active torsions:
REMARK  status: ('A' for Active; 'I' for Inactive)
REMARK    1  A    between atoms: C_2  and  C_4
REMARK    2  A    between atoms: C_8  and  C_10
REMARK    3  A    between atoms: C_14  and  S_15
REMARK    4  A    between atoms: S_15  and  C_16
REMARK                            x       y       z     vdW  Elec       q    Type
REMARK                         _______ _______ _______ _____ _____    ______ ____
ROOT
ATOM      1  C   UNL     1      31.683  23.322  18.123  0.00  0.00    +0.093 C 
ATOM      2  C   UNL     1      32.881  24.011  17.470  0.00  0.00    +0.033 C 
ATOM      3  C   UNL     1      32.232  24.739  16.302  0.00  0.00    +0.109 C 
ATOM      4  N   UNL     1      31.303  23.738  15.795  0.00  0.00    -0.297 N 
ATOM      5  C   UNL     1      30.784  23.529  14.523  0.00  0.00    +0.247 C 
ATOM      6  O   UNL     1      29.898  22.692  14.333  0.00  0.00    -0.270 OA
ATOM      7  C   UNL     1      30.799  22.953  16.924  0.00  0.00    +0.120 C 
ENDROOT
BRANCH   5   8
ATOM      8  C   UNL     1      31.250  24.316  13.340  0.00  0.00    +0.038 A 
ATOM      9  C   UNL     1      30.737  25.567  12.995  0.00  0.00    +0.013 A 
ATOM     10  C   UNL     1      31.148  26.212  11.826  0.00  0.00    +0.002 A 
ATOM     11  C   UNL     1      32.181  25.678  11.064  0.00  0.00    +0.015 A 
ATOM     12  C   UNL     1      32.834  24.517  11.488  0.00  0.00    +0.017 A 
ATOM     13  C   UNL     1      32.339  23.818  12.599  0.00  0.00    +0.028 A 
BRANCH  12  14
ATOM     14  S   UNL     1      34.270  23.911  10.626  0.00  0.00    -0.016 S 
BRANCH  14  15
ATOM     15  C   UNL     1      33.529  23.288   9.102  0.00  0.00    +0.448 C 
ATOM     16  F   UNL     1      33.031  24.256   8.295  0.00  0.00    -0.160 F 
ATOM     17  F   UNL     1      34.433  22.592   8.373  0.00  0.00    -0.160 F 
ATOM     18  F   UNL     1      32.505  22.443   9.379  0.00  0.00    -0.160 F 
ENDBRANCH  14  15
ENDBRANCH  12  14
ENDBRANCH   5   8
BRANCH   1  20
ATOM     19  N   UNL     1      29.680  24.492  18.906  0.00  0.00    -0.329 N 
ATOM     20  C   UNL     1      31.005  24.261  19.110  0.00  0.00    +0.215 C 
ATOM     21  O   UNL     1      31.570  24.767  20.074  0.00  0.00    -0.276 OA
ATOM     22  H   UNL     1      29.206  25.042  19.611  0.00  0.00    +0.145 HD
ATOM     23  H   UNL     1      29.123  23.985  18.233  0.00  0.00    +0.145 HD
ENDBRANCH   1  20
TORSDOF 4
ENDMDL
MODEL 2
REMARK VINA RESULT:      -5.9      4.160      6.265
REMARK  Name = ZINC000826139982
REMARK  4 active torsions:
REMARK  status: ('A' for Active; 'I' for Inactive)
REMARK    1  A    between atoms: C_2  and  C_4
REMARK    2  A    between atoms: C_8  and  C_10
REMARK    3  A    between atoms: C_14  and  S_15
REMARK    4  A    between atoms: S_15  and  C_16
REMARK                            x       y       z     vdW  Elec       q    Type
REMARK                         _______ _______ _______ _____ _____    ______ ____
ROOT
ATOM      1  C   UNL     1      32.875  27.248  12.216  0.00  0.00    +0.093 C 
ATOM      2  C   UNL     1      33.688  27.012  13.489  0.00  0.00    +0.033 C 
ATOM      3  C   UNL     1      33.612  25.500  13.639  0.00  0.00    +0.109 C 
ATOM      4  N   UNL     1      32.215  25.230  13.326  0.00  0.00    -0.297 N 
ATOM      5  C   UNL     1      31.365  24.209  13.731  0.00  0.00    +0.247 C 
ATOM      6  O   UNL     1      30.239  24.093  13.238  0.00  0.00    -0.270 OA
ATOM      7  C   UNL     1      31.771  26.185  12.307  0.00  0.00    +0.120 C 
ENDROOT
BRANCH   5   8
ATOM      8  C   UNL     1      31.774  23.198  14.753  0.00  0.00    +0.038 A 
ATOM      9  C   UNL     1      31.496  23.320  16.114  0.00  0.00    +0.013 A 
ATOM     10  C   UNL     1      31.984  22.387  17.032  0.00  0.00    +0.002 A 
ATOM     11  C   UNL     1      32.636  21.244  16.581  0.00  0.00    +0.015 A 
ATOM     12  C   UNL     1      32.768  21.011  15.210  0.00  0.00    +0.017 A 
ATOM     13  C   UNL     1      32.376  22.007  14.303  0.00  0.00    +0.028 A 
BRANCH  12  14
ATOM     14  S   UNL     1      33.442  19.477  14.606  0.00  0.00    -0.016 S 
BRANCH  14  15
ATOM     15  C   UNL     1      31.938  18.514  14.333  0.00  0.00    +0.448 C 
ATOM     16  F   UNL     1      30.991  19.163  13.613  0.00  0.00    -0.160 F 
ATOM     17  F   UNL     1      32.213  17.362  13.678  0.00  0.00    -0.160 F 
ATOM     18  F   UNL     1      31.367  18.175  15.516  0.00  0.00    -0.160 F 
ENDBRANCH  14  15
ENDBRANCH  12  14
ENDBRANCH   5   8
BRANCH   1  20
ATOM     19  N   UNL     1      33.441  26.089  10.135  0.00  0.00    -0.329 N 
ATOM     20  C   UNL     1      33.760  27.101  10.988  0.00  0.00    +0.215 C 
ATOM     21  O   UNL     1      34.690  27.854  10.718  0.00  0.00    -0.276 OA
ATOM     22  H   UNL     1      33.969  26.044   9.273  0.00  0.00    +0.145 HD
ATOM     23  H   UNL     1      32.598  25.538  10.214  0.00  0.00    +0.145 HD
ENDBRANCH   1  20
TORSDOF 4
ENDMDL
MODEL 3
REMARK VINA RESULT:      -5.9      2.396      3.295
REMARK  Name = ZINC000826139982
REMARK  4 active torsions:
REMARK  status: ('A' for Active; 'I' for Inactive)
REMARK    1  A    between atoms: C_2  and  C_4
REMARK    2  A    between atoms: C_8  and  C_10
REMARK    3  A    between atoms: C_14  and  S_15
REMARK    4  A    between atoms: S_15  and  C_16
REMARK                            x       y       z     vdW  Elec       q    Type
REMARK                         _______ _______ _______ _____ _____    ______ ____
ROOT
ATOM      1  C   UNL     1      31.699  20.564  16.892  0.00  0.00    +0.093 C 
ATOM      2  C   UNL     1      30.620  20.739  15.823  0.00  0.00    +0.033 C 
ATOM      3  C   UNL     1      31.363  21.515  14.746  0.00  0.00    +0.109 C 
ATOM      4  N   UNL     1      32.109  22.491  15.528  0.00  0.00    -0.297 N 
ATOM      5  C   UNL     1      32.569  23.763  15.211  0.00  0.00    +0.247 C 
ATOM      6  O   UNL     1      33.304  24.379  15.987  0.00  0.00    -0.270 OA
ATOM      7  C   UNL     1      32.495  21.874  16.800  0.00  0.00    +0.120 C 
ENDROOT
BRANCH   5   8
ATOM      8  C   UNL     1      32.221  24.430  13.919  0.00  0.00    +0.038 A 
ATOM      9  C   UNL     1      31.083  25.215  13.738  0.00  0.00    +0.013 A 
ATOM     10  C   UNL     1      30.764  25.737  12.483  0.00  0.00    +0.002 A 
ATOM     11  C   UNL     1      31.657  25.598  11.425  0.00  0.00    +0.015 A 
ATOM     12  C   UNL     1      32.889  24.970  11.630  0.00  0.00    +0.017 A 
ATOM     13  C   UNL     1      33.148  24.352  12.862  0.00  0.00    +0.028 A 
BRANCH  12  14
ATOM     14  S   UNL     1      34.119  24.933  10.342  0.00  0.00    -0.016 S 
BRANCH  14  15
ATOM     15  C   UNL     1      33.317  23.874   9.119  0.00  0.00    +0.448 C 
ATOM     16  F   UNL     1      32.527  22.912   9.655  0.00  0.00    -0.160 F 
ATOM     17  F   UNL     1      32.541  24.602   8.282  0.00  0.00    -0.160 F 
ATOM     18  F   UNL     1      34.242  23.241   8.355  0.00  0.00    -0.160 F 
ENDBRANCH  14  15
ENDBRANCH  12  14
ENDBRANCH   5   8
BRANCH   1  20
ATOM     19  N   UNL     1      33.869  19.528  16.430  0.00  0.00    -0.329 N 
ATOM     20  C   UNL     1      32.535  19.326  16.603  0.00  0.00    +0.215 C 
ATOM     21  O   UNL     1      32.082  18.186  16.565  0.00  0.00    -0.276 OA
ATOM     22  H   UNL     1      34.440  18.699  16.328  0.00  0.00    +0.145 HD
ATOM     23  H   UNL     1      34.327  20.411  16.606  0.00  0.00    +0.145 HD
ENDBRANCH   1  20
TORSDOF 4
ENDMDL
MODEL 4
REMARK VINA RESULT:      -5.8      1.253      1.366
REMARK  Name = ZINC000826139982
REMARK  4 active torsions:
REMARK  status: ('A' for Active; 'I' for Inactive)
REMARK    1  A    between atoms: C_2  and  C_4
REMARK    2  A    between atoms: C_8  and  C_10
REMARK    3  A    between atoms: C_14  and  S_15
REMARK    4  A    between atoms: S_15  and  C_16
REMARK                            x       y       z     vdW  Elec       q    Type
REMARK                         _______ _______ _______ _____ _____    ______ ____
ROOT
ATOM      1  C   UNL     1      31.651  23.172  17.177  0.00  0.00    +0.093 C 
ATOM      2  C   UNL     1      33.065  23.623  16.810  0.00  0.00    +0.033 C 
ATOM      3  C   UNL     1      32.793  24.779  15.859  0.00  0.00    +0.109 C 
ATOM      4  N   UNL     1      31.709  24.255  15.040  0.00  0.00    -0.297 N 
ATOM      5  C   UNL     1      31.327  24.535  13.734  0.00  0.00    +0.247 C 
ATOM      6  O   UNL     1      30.283  24.069  13.269  0.00  0.00    -0.270 OA
ATOM      7  C   UNL     1      30.868  23.393  15.875  0.00  0.00    +0.120 C 
ENDROOT
BRANCH   5   8
ATOM      8  C   UNL     1      32.137  25.424  12.847  0.00  0.00    +0.038 A 
ATOM      9  C   UNL     1      32.165  26.813  12.963  0.00  0.00    +0.013 A 
ATOM     10  C   UNL     1      32.870  27.596  12.047  0.00  0.00    +0.002 A 
ATOM     11  C   UNL     1      33.672  26.988  11.086  0.00  0.00    +0.015 A 
ATOM     12  C   UNL     1      33.803  25.597  11.065  0.00  0.00    +0.017 A 
ATOM     13  C   UNL     1      33.003  24.819  11.915  0.00  0.00    +0.028 A 
BRANCH  12  14
ATOM     14  S   UNL     1      34.955  24.805   9.962  0.00  0.00    -0.016 S 
BRANCH  14  15
ATOM     15  C   UNL     1      33.843  24.156   8.696  0.00  0.00    +0.448 C 
ATOM     16  F   UNL     1      32.639  24.776   8.649  0.00  0.00    -0.160 F 
ATOM     17  F   UNL     1      34.394  24.268   7.464  0.00  0.00    -0.160 F 
ATOM     18  F   UNL     1      33.598  22.839   8.905  0.00  0.00    -0.160 F 
ENDBRANCH  14  15
ENDBRANCH  12  14
ENDBRANCH   5   8
BRANCH   1  20
ATOM     19  N   UNL     1      29.960  24.662  18.135  0.00  0.00    -0.329 N 
ATOM     20  C   UNL     1      31.123  23.987  18.348  0.00  0.00    +0.215 C 
ATOM     21  O   UNL     1      31.656  24.027  19.452  0.00  0.00    -0.276 OA
ATOM     22  H   UNL     1      29.558  25.130  18.936  0.00  0.00    +0.145 HD
ATOM     23  H   UNL     1      29.391  24.544  17.309  0.00  0.00    +0.145 HD
ENDBRANCH   1  20
TORSDOF 4
ENDMDL
MODEL 5
REMARK VINA RESULT:      -5.8     10.442     11.775
REMARK  Name = ZINC000826139982
REMARK  4 active torsions:
REMARK  status: ('A' for Active; 'I' for Inactive)
REMARK    1  A    between atoms: C_2  and  C_4
REMARK    2  A    between atoms: C_8  and  C_10
REMARK    3  A    between atoms: C_14  and  S_15
REMARK    4  A    between atoms: S_15  and  C_16
REMARK                            x       y       z     vdW  Elec       q    Type
REMARK                         _______ _______ _______ _____ _____    ______ ____
ROOT
ATOM      1  C   UNL     1      23.796  23.812  19.580  0.00  0.00    +0.093 C 
ATOM      2  C   UNL     1      23.189  24.113  18.210  0.00  0.00    +0.033 C 
ATOM      3  C   UNL     1      23.476  25.598  18.054  0.00  0.00    +0.109 C 
ATOM      4  N   UNL     1      23.160  26.113  19.379  0.00  0.00    -0.297 N 
ATOM      5  C   UNL     1      22.726  27.364  19.799  0.00  0.00    +0.247 C 
ATOM      6  O   UNL     1      22.641  27.633  21.000  0.00  0.00    -0.270 OA
ATOM      7  C   UNL     1      23.517  25.097  20.373  0.00  0.00    +0.120 C 
ENDROOT
BRANCH   5   8
ATOM      8  C   UNL     1      22.368  28.443  18.828  0.00  0.00    +0.038 A 
ATOM      9  C   UNL     1      23.260  29.429  18.406  0.00  0.00    +0.013 A 
ATOM     10  C   UNL     1      22.840  30.464  17.567  0.00  0.00    +0.002 A 
ATOM     11  C   UNL     1      21.558  30.444  17.027  0.00  0.00    +0.015 A 
ATOM     12  C   UNL     1      20.706  29.370  17.292  0.00  0.00    +0.017 A 
ATOM     13  C   UNL     1      21.097  28.397  18.224  0.00  0.00    +0.028 A 
BRANCH  12  14
ATOM     14  S   UNL     1      19.128  29.233  16.476  0.00  0.00    -0.016 S 
BRANCH  14  15
ATOM     15  C   UNL     1      19.570  28.271  15.013  0.00  0.00    +0.448 C 
ATOM     16  F   UNL     1      20.121  27.065  15.291  0.00  0.00    -0.160 F 
ATOM     17  F   UNL     1      18.483  28.041  14.239  0.00  0.00    -0.160 F 
ATOM     18  F   UNL     1      20.467  28.946  14.251  0.00  0.00    -0.160 F 
ENDBRANCH  14  15
ENDBRANCH  12  14
ENDBRANCH   5   8
BRANCH   1  20
ATOM     19  N   UNL     1      26.127  24.257  20.184  0.00  0.00    -0.329 N 
ATOM     20  C   UNL     1      25.277  23.492  19.445  0.00  0.00    +0.215 C 
ATOM     21  O   UNL     1      25.722  22.579  18.758  0.00  0.00    -0.276 OA
ATOM     22  H   UNL     1      27.102  23.990  20.167  0.00  0.00    +0.145 HD
ATOM     23  H   UNL     1      25.818  24.914  20.886  0.00  0.00    +0.145 HD
ENDBRANCH   1  20
TORSDOF 4
ENDMDL
MODEL 6
REMARK VINA RESULT:      -5.8      3.367      4.387
REMARK  Name = ZINC000826139982
REMARK  4 active torsions:
REMARK  status: ('A' for Active; 'I' for Inactive)
REMARK    1  A    between atoms: C_2  and  C_4
REMARK    2  A    between atoms: C_8  and  C_10
REMARK    3  A    between atoms: C_14  and  S_15
REMARK    4  A    between atoms: S_15  and  C_16
REMARK                            x       y       z     vdW  Elec       q    Type
REMARK                         _______ _______ _______ _____ _____    ______ ____
ROOT
ATOM      1  C   UNL     1      31.635  18.942  15.517  0.00  0.00    +0.093 C 
ATOM      2  C   UNL     1      32.111  19.565  14.205  0.00  0.00    +0.033 C 
ATOM      3  C   UNL     1      32.724  20.874  14.679  0.00  0.00    +0.109 C 
ATOM      4  N   UNL     1      31.752  21.331  15.662  0.00  0.00    -0.297 N 
ATOM      5  C   UNL     1      31.415  22.607  16.096  0.00  0.00    +0.247 C 
ATOM      6  O   UNL     1      30.644  22.767  17.046  0.00  0.00    -0.270 OA
ATOM      7  C   UNL     1      31.183  20.160  16.336  0.00  0.00    +0.120 C 
ENDROOT
BRANCH   5   8
ATOM      8  C   UNL     1      31.980  23.834  15.457  0.00  0.00    +0.038 A 
ATOM      9  C   UNL     1      33.175  24.432  15.856  0.00  0.00    +0.013 A 
ATOM     10  C   UNL     1      33.606  25.629  15.281  0.00  0.00    +0.002 A 
ATOM     11  C   UNL     1      32.916  26.168  14.199  0.00  0.00    +0.015 A 
ATOM     12  C   UNL     1      31.818  25.490  13.664  0.00  0.00    +0.017 A 
ATOM     13  C   UNL     1      31.328  24.351  14.321  0.00  0.00    +0.028 A 
BRANCH  12  14
ATOM     14  S   UNL     1      31.026  26.066  12.177  0.00  0.00    -0.016 S 
BRANCH  14  15
ATOM     15  C   UNL     1      32.234  25.582  10.925  0.00  0.00    +0.448 C 
ATOM     16  F   UNL     1      33.299  26.414  10.834  0.00  0.00    -0.160 F 
ATOM     17  F   UNL     1      32.721  24.343  11.174  0.00  0.00    -0.160 F 
ATOM     18  F   UNL     1      31.660  25.545   9.696  0.00  0.00    -0.160 F 
ENDBRANCH  14  15
ENDBRANCH  12  14
ENDBRANCH   5   8
BRANCH   1  20
ATOM     19  N   UNL     1      33.708  17.652  15.333  0.00  0.00    -0.329 N 
ATOM     20  C   UNL     1      32.762  18.157  16.171  0.00  0.00    +0.215 C 
ATOM     21  O   UNL     1      32.877  18.000  17.383  0.00  0.00    -0.276 OA
ATOM     22  H   UNL     1      34.505  17.208  15.769  0.00  0.00    +0.145 HD
ATOM     23  H   UNL     1      33.760  17.879  14.350  0.00  0.00    +0.145 HD
ENDBRANCH   1  20
TORSDOF 4
ENDMDL
MODEL 7
REMARK VINA RESULT:      -5.7      3.920      6.100
REMARK  Name = ZINC000826139982
REMARK  4 active torsions:
REMARK  status: ('A' for Active; 'I' for Inactive)
REMARK    1  A    between atoms: C_2  and  C_4
REMARK    2  A    between atoms: C_8  and  C_10
REMARK    3  A    between atoms: C_14  and  S_15
REMARK    4  A    between atoms: S_15  and  C_16
REMARK                            x       y       z     vdW  Elec       q    Type
REMARK                         _______ _______ _______ _____ _____    ______ ____
ROOT
ATOM      1  C   UNL     1      31.700  26.334  13.018  0.00  0.00    +0.093 C 
ATOM      2  C   UNL     1      32.821  26.173  14.044  0.00  0.00    +0.033 C 
ATOM      3  C   UNL     1      32.986  24.662  14.100  0.00  0.00    +0.109 C 
ATOM      4  N   UNL     1      31.605  24.201  14.105  0.00  0.00    -0.297 N 
ATOM      5  C   UNL     1      31.023  23.052  14.625  0.00  0.00    +0.247 C 
ATOM      6  O   UNL     1      29.838  22.789  14.403  0.00  0.00    -0.270 OA
ATOM      7  C   UNL     1      30.803  25.117  13.289  0.00  0.00    +0.120 C 
ENDROOT
BRANCH   5   8
ATOM      8  C   UNL     1      31.800  22.075  15.447  0.00  0.00    +0.038 A 
ATOM      9  C   UNL     1      31.762  22.037  16.841  0.00  0.00    +0.013 A 
ATOM     10  C   UNL     1      32.581  21.161  17.557  0.00  0.00    +0.002 A 
ATOM     11  C   UNL     1      33.342  20.213  16.881  0.00  0.00    +0.015 A 
ATOM     12  C   UNL     1      33.258  20.112  15.490  0.00  0.00    +0.017 A 
ATOM     13  C   UNL     1      32.522  21.069  14.776  0.00  0.00    +0.028 A 
BRANCH  12  14
ATOM     14  S   UNL     1      34.086  18.798  14.619  0.00  0.00    -0.016 S 
BRANCH  14  15
ATOM     15  C   UNL     1      32.708  18.043  13.728  0.00  0.00    +0.448 C 
ATOM     16  F   UNL     1      32.938  16.767  13.334  0.00  0.00    -0.160 F 
ATOM     17  F   UNL     1      31.589  18.025  14.491  0.00  0.00    -0.160 F 
ATOM     18  F   UNL     1      32.416  18.752  12.610  0.00  0.00    -0.160 F 
ENDBRANCH  14  15
ENDBRANCH  12  14
ENDBRANCH   5   8
BRANCH   1  20
ATOM     19  N   UNL     1      33.269  27.261  11.383  0.00  0.00    -0.329 N 
ATOM     20  C   UNL     1      32.271  26.364  11.608  0.00  0.00    +0.215 C 
ATOM     21  O   UNL     1      31.916  25.610  10.708  0.00  0.00    -0.276 OA
ATOM     22  H   UNL     1      33.713  27.222  10.474  0.00  0.00    +0.145 HD
ATOM     23  H   UNL     1      33.715  27.794  12.115  0.00  0.00    +0.145 HD
ENDBRANCH   1  20
TORSDOF 4
ENDMDL
MODEL 8
REMARK VINA RESULT:      -5.7      5.460      8.186
REMARK  Name = ZINC000826139982
REMARK  4 active torsions:
REMARK  status: ('A' for Active; 'I' for Inactive)
REMARK    1  A    between atoms: C_2  and  C_4
REMARK    2  A    between atoms: C_8  and  C_10
REMARK    3  A    between atoms: C_14  and  S_15
REMARK    4  A    between atoms: S_15  and  C_16
REMARK                            x       y       z     vdW  Elec       q    Type
REMARK                         _______ _______ _______ _____ _____    ______ ____
ROOT
ATOM      1  C   UNL     1      36.002  22.212   8.096  0.00  0.00    +0.093 C 
ATOM      2  C   UNL     1      34.566  22.478   8.547  0.00  0.00    +0.033 C 
ATOM      3  C   UNL     1      34.610  23.960   8.891  0.00  0.00    +0.109 C 
ATOM      4  N   UNL     1      35.877  24.074   9.599  0.00  0.00    -0.297 N 
ATOM      5  C   UNL     1      36.304  24.961  10.579  0.00  0.00    +0.247 C 
ATOM      6  O   UNL     1      37.479  24.965  10.958  0.00  0.00    -0.270 OA
ATOM      7  C   UNL     1      36.829  23.127   9.011  0.00  0.00    +0.120 C 
ENDROOT
BRANCH   5   8
ATOM      8  C   UNL     1      35.380  25.959  11.198  0.00  0.00    +0.038 A 
ATOM      9  C   UNL     1      35.322  27.299  10.815  0.00  0.00    +0.013 A 
ATOM     10  C   UNL     1      34.503  28.204  11.493  0.00  0.00    +0.002 A 
ATOM     11  C   UNL     1      33.625  27.749  12.472  0.00  0.00    +0.015 A 
ATOM     12  C   UNL     1      33.536  26.382  12.748  0.00  0.00    +0.017 A 
ATOM     13  C   UNL     1      34.442  25.499  12.142  0.00  0.00    +0.028 A 
BRANCH  12  14
ATOM     14  S   UNL     1      32.301  25.756  13.868  0.00  0.00    -0.016 S 
BRANCH  14  15
ATOM     15  C   UNL     1      30.882  25.578  12.765  0.00  0.00    +0.448 C 
ATOM     16  F   UNL     1      30.246  24.387  12.871  0.00  0.00    -0.160 F 
ATOM     17  F   UNL     1      29.960  26.541  13.004  0.00  0.00    -0.160 F 
ATOM     18  F   UNL     1      31.265  25.705  11.470  0.00  0.00    -0.160 F 
ENDBRANCH  14  15
ENDBRANCH  12  14
ENDBRANCH   5   8
BRANCH   1  20
ATOM     19  N   UNL     1      35.921  21.507   5.752  0.00  0.00    -0.329 N 
ATOM     20  C   UNL     1      36.160  22.531   6.617  0.00  0.00    +0.215 C 
ATOM     21  O   UNL     1      36.441  23.643   6.181  0.00  0.00    -0.276 OA
ATOM     22  H   UNL     1      35.937  21.738   4.767  0.00  0.00    +0.145 HD
ATOM     23  H   UNL     1      35.534  20.619   6.034  0.00  0.00    +0.145 HD
ENDBRANCH   1  20
TORSDOF 4
ENDMDL
MODEL 9
REMARK VINA RESULT:      -5.6      5.045      8.042
REMARK  Name = ZINC000826139982
REMARK  4 active torsions:
REMARK  status: ('A' for Active; 'I' for Inactive)
REMARK    1  A    between atoms: C_2  and  C_4
REMARK    2  A    between atoms: C_8  and  C_10
REMARK    3  A    between atoms: C_14  and  S_15
REMARK    4  A    between atoms: S_15  and  C_16
REMARK                            x       y       z     vdW  Elec       q    Type
REMARK                         _______ _______ _______ _____ _____    ______ ____
ROOT
ATOM      1  C   UNL     1      36.759  24.461   8.220  0.00  0.00    +0.093 C 
ATOM      2  C   UNL     1      36.020  23.397   9.030  0.00  0.00    +0.033 C 
ATOM      3  C   UNL     1      34.720  24.107   9.376  0.00  0.00    +0.109 C 
ATOM      4  N   UNL     1      35.184  25.440   9.737  0.00  0.00    -0.297 N 
ATOM      5  C   UNL     1      34.651  26.398  10.589  0.00  0.00    +0.247 C 
ATOM      6  O   UNL     1      35.141  27.529  10.653  0.00  0.00    -0.270 OA
ATOM      7  C   UNL     1      36.346  25.771   8.907  0.00  0.00    +0.120 C 
ENDROOT
BRANCH   5   8
ATOM      8  C   UNL     1      33.456  26.119  11.443  0.00  0.00    +0.038 A 
ATOM      9  C   UNL     1      32.141  26.223  10.988  0.00  0.00    +0.013 A 
ATOM     10  C   UNL     1      31.065  26.039  11.858  0.00  0.00    +0.002 A 
ATOM     11  C   UNL     1      31.291  25.608  13.162  0.00  0.00    +0.015 A 
ATOM     12  C   UNL     1      32.591  25.323  13.587  0.00  0.00    +0.017 A 
ATOM     13  C   UNL     1      33.670  25.620  12.742  0.00  0.00    +0.028 A 
BRANCH  12  14
ATOM     14  S   UNL     1      32.890  24.606  15.190  0.00  0.00    -0.016 S 
BRANCH  14  15
ATOM     15  C   UNL     1      32.284  22.923  14.942  0.00  0.00    +0.448 C 
ATOM     16  F   UNL     1      32.794  22.019  15.812  0.00  0.00    -0.160 F 
ATOM     17  F   UNL     1      30.936  22.871  15.064  0.00  0.00    -0.160 F 
ATOM     18  F   UNL     1      32.589  22.484  13.696  0.00  0.00    -0.160 F 
ENDBRANCH  14  15
ENDBRANCH  12  14
ENDBRANCH   5   8
BRANCH   1  20
ATOM     19  N   UNL     1      36.203  25.582   6.115  0.00  0.00    -0.329 N 
ATOM     20  C   UNL     1      36.353  24.390   6.756  0.00  0.00    +0.215 C 
ATOM     21  O   UNL     1      36.202  23.342   6.135  0.00  0.00    -0.276 OA
ATOM     22  H   UNL     1      36.022  25.538   5.120  0.00  0.00    +0.145 HD
ATOM     23  H   UNL     1      36.467  26.469   6.519  0.00  0.00    +0.145 HD
ENDBRANCH   1  20
TORSDOF 4
ENDMDL
