MODEL 1
REMARK VINA RESULT:      -6.6      0.000      0.000
REMARK  Name = ZINC000560333501
REMARK  5 active torsions:
REMARK  status: ('A' for Active; 'I' for Inactive)
REMARK    1  A    between atoms: C_2  and  C_3
REMARK    2  A    between atoms: C_7  and  C_8
REMARK    3  A    between atoms: C_8  and  C_9
REMARK    4  A    between atoms: N_11  and  C_12
REMARK    5  A    between atoms: C_12  and  C_13
REMARK                            x       y       z     vdW  Elec       q    Type
REMARK                         _______ _______ _______ _____ _____    ______ ____
ROOT
ATOM      1  C   UNL     1      30.775  22.726  13.599  0.00  0.00    +0.217 C 
ATOM      2  O   UNL     1      30.405  23.828  14.012  0.00  0.00    -0.275 OA
ATOM      3  N   UNL     1      31.489  22.559  12.425  0.00  0.00    -0.315 N 
ATOM      4  H   UNL     1      31.992  21.684  12.334  0.00  0.00    +0.149 HD
ENDROOT
BRANCH   1   5
ATOM      5  C   UNL     1      30.458  21.464  14.366  0.00  0.00    +0.131 C 
BRANCH   5  10
ATOM      6  C   UNL     1      33.593  19.532  15.436  0.00  0.00    +0.052 A 
ATOM      7  C   UNL     1      33.794  20.043  16.724  0.00  0.00    +0.019 A 
ATOM      8  C   UNL     1      32.908  20.985  17.244  0.00  0.00    +0.002 A 
ATOM      9  C   UNL     1      31.818  21.416  16.487  0.00  0.00    +0.004 A 
ATOM     10  C   UNL     1      31.595  20.910  15.198  0.00  0.00    -0.037 A 
ATOM     11  C   UNL     1      32.499  19.969  14.676  0.00  0.00    +0.023 A 
BRANCH   6  13
ATOM     12  N   UNL     1      35.259  17.800  14.459  0.00  0.00    -0.191 NA
ATOM     13  C   UNL     1      34.516  18.579  14.894  0.00  0.00    +0.099 C 
ENDBRANCH   6  13
ENDBRANCH   5  10
ENDBRANCH   1   5
BRANCH   3  14
ATOM     14  C   UNL     1      32.103  23.729  11.824  0.00  0.00    +0.108 C 
BRANCH  14  15
ATOM     15  C   UNL     1      32.480  23.618  10.334  0.00  0.00    +0.011 C 
ATOM     16  C   UNL     1      33.250  22.346   9.993  0.00  0.00    +0.033 C 
ATOM     17  C   UNL     1      34.559  22.286  10.766  0.00  0.00    +0.161 C 
ATOM     18  O   UNL     1      35.320  23.489  10.697  0.00  0.00    -0.373 OA
ATOM     19  C   UNL     1      34.682  24.800  10.713  0.00  0.00    +0.070 C 
ATOM     20  C   UNL     1      34.574  25.557  12.082  0.00  0.00    +0.035 C 
ATOM     21  C   UNL     1      35.954  26.158  11.815  0.00  0.00    +0.006 C 
ATOM     22  C   UNL     1      35.695  25.926  10.314  0.00  0.00    +0.035 C 
ATOM     23  C   UNL     1      33.378  24.798   9.906  0.00  0.00    +0.040 C 
ENDBRANCH  14  15
ENDBRANCH   3  14
TORSDOF 5
ENDMDL
MODEL 2
REMARK VINA RESULT:      -6.5      1.345      1.886
REMARK  Name = ZINC000560333501
REMARK  5 active torsions:
REMARK  status: ('A' for Active; 'I' for Inactive)
REMARK    1  A    between atoms: C_2  and  C_3
REMARK    2  A    between atoms: C_7  and  C_8
REMARK    3  A    between atoms: C_8  and  C_9
REMARK    4  A    between atoms: N_11  and  C_12
REMARK    5  A    between atoms: C_12  and  C_13
REMARK                            x       y       z     vdW  Elec       q    Type
REMARK                         _______ _______ _______ _____ _____    ______ ____
ROOT
ATOM      1  C   UNL     1      30.810  22.765  13.606  0.00  0.00    +0.217 C 
ATOM      2  O   UNL     1      30.415  23.861  14.012  0.00  0.00    -0.275 OA
ATOM      3  N   UNL     1      31.496  22.601  12.415  0.00  0.00    -0.315 N 
ATOM      4  H   UNL     1      32.025  21.742  12.324  0.00  0.00    +0.149 HD
ENDROOT
BRANCH   1   5
ATOM      5  C   UNL     1      30.558  21.507  14.403  0.00  0.00    +0.131 C 
BRANCH   5  10
ATOM      6  C   UNL     1      33.265  20.509  16.928  0.00  0.00    +0.052 A 
ATOM      7  C   UNL     1      33.972  19.548  16.196  0.00  0.00    +0.019 A 
ATOM      8  C   UNL     1      33.587  19.248  14.890  0.00  0.00    +0.002 A 
ATOM      9  C   UNL     1      32.501  19.907  14.310  0.00  0.00    +0.004 A 
ATOM     10  C   UNL     1      31.786  20.877  15.025  0.00  0.00    -0.037 A 
ATOM     11  C   UNL     1      32.173  21.166  16.344  0.00  0.00    +0.023 A 
BRANCH   6  13
ATOM     12  N   UNL     1      33.963  21.047  19.368  0.00  0.00    -0.191 NA
ATOM     13  C   UNL     1      33.649  20.802  18.278  0.00  0.00    +0.099 C 
ENDBRANCH   6  13
ENDBRANCH   5  10
ENDBRANCH   1   5
BRANCH   3  14
ATOM     14  C   UNL     1      32.054  23.780  11.777  0.00  0.00    +0.108 C 
BRANCH  14  15
ATOM     15  C   UNL     1      32.463  23.633  10.299  0.00  0.00    +0.011 C 
ATOM     16  C   UNL     1      33.230  22.348  10.003  0.00  0.00    +0.033 C 
ATOM     17  C   UNL     1      34.521  22.296  10.806  0.00  0.00    +0.161 C 
ATOM     18  O   UNL     1      35.293  23.492  10.728  0.00  0.00    -0.373 OA
ATOM     19  C   UNL     1      34.665  24.807  10.701  0.00  0.00    +0.070 C 
ATOM     20  C   UNL     1      34.532  25.595  12.051  0.00  0.00    +0.035 C 
ATOM     21  C   UNL     1      35.922  26.180  11.801  0.00  0.00    +0.006 C 
ATOM     22  C   UNL     1      35.695  25.917  10.300  0.00  0.00    +0.035 C 
ATOM     23  C   UNL     1      33.379  24.797   9.865  0.00  0.00    +0.040 C 
ENDBRANCH  14  15
ENDBRANCH   3  14
TORSDOF 5
ENDMDL
MODEL 3
REMARK VINA RESULT:      -6.2      2.145      6.105
REMARK  Name = ZINC000560333501
REMARK  5 active torsions:
REMARK  status: ('A' for Active; 'I' for Inactive)
REMARK    1  A    between atoms: C_2  and  C_3
REMARK    2  A    between atoms: C_7  and  C_8
REMARK    3  A    between atoms: C_8  and  C_9
REMARK    4  A    between atoms: N_11  and  C_12
REMARK    5  A    between atoms: C_12  and  C_13
REMARK                            x       y       z     vdW  Elec       q    Type
REMARK                         _______ _______ _______ _____ _____    ______ ____
ROOT
ATOM      1  C   UNL     1      32.518  23.452  11.663  0.00  0.00    +0.217 C 
ATOM      2  O   UNL     1      33.241  24.137  12.392  0.00  0.00    -0.275 OA
ATOM      3  N   UNL     1      31.550  22.591  12.151  0.00  0.00    -0.315 N 
ATOM      4  H   UNL     1      30.831  22.316  11.494  0.00  0.00    +0.149 HD
ENDROOT
BRANCH   1   5
ATOM      5  C   UNL     1      32.654  23.511  10.160  0.00  0.00    +0.131 C 
BRANCH   5  10
ATOM      6  C   UNL     1      33.973  19.970   9.512  0.00  0.00    +0.052 A 
ATOM      7  C   UNL     1      34.511  20.116   8.229  0.00  0.00    +0.019 A 
ATOM      8  C   UNL     1      34.466  21.356   7.594  0.00  0.00    +0.002 A 
ATOM      9  C   UNL     1      33.891  22.454   8.237  0.00  0.00    +0.004 A 
ATOM     10  C   UNL     1      33.353  22.328   9.526  0.00  0.00    -0.037 A 
ATOM     11  C   UNL     1      33.393  21.072  10.155  0.00  0.00    +0.023 A 
BRANCH   6  13
ATOM     12  N   UNL     1      34.029  17.656  10.685  0.00  0.00    -0.191 NA
ATOM     13  C   UNL     1      34.002  18.689  10.156  0.00  0.00    +0.099 C 
ENDBRANCH   6  13
ENDBRANCH   5  10
ENDBRANCH   1   5
BRANCH   3  14
ATOM     14  C   UNL     1      31.146  22.730  13.539  0.00  0.00    +0.108 C 
BRANCH  14  15
ATOM     15  C   UNL     1      30.431  21.521  14.171  0.00  0.00    +0.011 C 
ATOM     16  C   UNL     1      29.737  21.843  15.491  0.00  0.00    +0.033 C 
ATOM     17  C   UNL     1      30.745  22.326  16.523  0.00  0.00    +0.161 C 
ATOM     18  O   UNL     1      31.896  21.493  16.633  0.00  0.00    -0.373 OA
ATOM     19  C   UNL     1      32.501  20.864  15.466  0.00  0.00    +0.070 C 
ATOM     20  C   UNL     1      33.720  21.578  14.786  0.00  0.00    +0.035 C 
ATOM     21  C   UNL     1      34.644  20.831  15.748  0.00  0.00    +0.006 C 
ATOM     22  C   UNL     1      33.538  19.768  15.887  0.00  0.00    +0.035 C 
ATOM     23  C   UNL     1      31.434  20.387  14.472  0.00  0.00    +0.040 C 
ENDBRANCH  14  15
ENDBRANCH   3  14
TORSDOF 5
ENDMDL
MODEL 4
REMARK VINA RESULT:      -6.2      1.652      2.884
REMARK  Name = ZINC000560333501
REMARK  5 active torsions:
REMARK  status: ('A' for Active; 'I' for Inactive)
REMARK    1  A    between atoms: C_2  and  C_3
REMARK    2  A    between atoms: C_7  and  C_8
REMARK    3  A    between atoms: C_8  and  C_9
REMARK    4  A    between atoms: N_11  and  C_12
REMARK    5  A    between atoms: C_12  and  C_13
REMARK                            x       y       z     vdW  Elec       q    Type
REMARK                         _______ _______ _______ _____ _____    ______ ____
ROOT
ATOM      1  C   UNL     1      30.859  21.975  13.868  0.00  0.00    +0.217 C 
ATOM      2  O   UNL     1      30.009  22.853  13.697  0.00  0.00    -0.275 OA
ATOM      3  N   UNL     1      31.876  21.719  12.964  0.00  0.00    -0.315 N 
ATOM      4  H   UNL     1      32.671  21.207  13.326  0.00  0.00    +0.149 HD
ENDROOT
BRANCH   1   5
ATOM      5  C   UNL     1      30.837  21.105  15.103  0.00  0.00    +0.131 C 
BRANCH   5  10
ATOM      6  C   UNL     1      33.921  20.475  17.292  0.00  0.00    +0.052 A 
ATOM      7  C   UNL     1      34.224  21.776  17.707  0.00  0.00    +0.019 A 
ATOM      8  C   UNL     1      33.421  22.841  17.299  0.00  0.00    +0.002 A 
ATOM      9  C   UNL     1      32.313  22.610  16.482  0.00  0.00    +0.004 A 
ATOM     10  C   UNL     1      31.989  21.312  16.062  0.00  0.00    -0.037 A 
ATOM     11  C   UNL     1      32.809  20.247  16.469  0.00  0.00    +0.023 A 
BRANCH   6  13
ATOM     12  N   UNL     1      35.442  18.506  18.027  0.00  0.00    -0.191 NA
ATOM     13  C   UNL     1      34.758  19.384  17.696  0.00  0.00    +0.099 C 
ENDBRANCH   6  13
ENDBRANCH   5  10
ENDBRANCH   1   5
BRANCH   3  14
ATOM     14  C   UNL     1      32.151  22.714  11.943  0.00  0.00    +0.108 C 
BRANCH  14  15
ATOM     15  C   UNL     1      33.555  23.346  11.961  0.00  0.00    +0.011 C 
ATOM     16  C   UNL     1      33.622  24.704  11.267  0.00  0.00    +0.033 C 
ATOM     17  C   UNL     1      33.233  24.579   9.802  0.00  0.00    +0.161 C 
ATOM     18  O   UNL     1      33.900  23.519   9.121  0.00  0.00    -0.373 OA
ATOM     19  C   UNL     1      34.174  22.245   9.771  0.00  0.00    +0.070 C 
ATOM     20  C   UNL     1      33.168  21.063   9.545  0.00  0.00    +0.035 C 
ATOM     21  C   UNL     1      33.965  20.674   8.300  0.00  0.00    +0.006 C 
ATOM     22  C   UNL     1      35.178  21.385   8.930  0.00  0.00    +0.035 C 
ATOM     23  C   UNL     1      34.574  22.439  11.240  0.00  0.00    +0.040 C 
ENDBRANCH  14  15
ENDBRANCH   3  14
TORSDOF 5
ENDMDL
MODEL 5
REMARK VINA RESULT:      -6.2      2.267      3.454
REMARK  Name = ZINC000560333501
REMARK  5 active torsions:
REMARK  status: ('A' for Active; 'I' for Inactive)
REMARK    1  A    between atoms: C_2  and  C_3
REMARK    2  A    between atoms: C_7  and  C_8
REMARK    3  A    between atoms: C_8  and  C_9
REMARK    4  A    between atoms: N_11  and  C_12
REMARK    5  A    between atoms: C_12  and  C_13
REMARK                            x       y       z     vdW  Elec       q    Type
REMARK                         _______ _______ _______ _____ _____    ______ ____
ROOT
ATOM      1  C   UNL     1      33.747  19.435  12.154  0.00  0.00    +0.217 C 
ATOM      2  O   UNL     1      34.860  18.919  12.023  0.00  0.00    -0.275 OA
ATOM      3  N   UNL     1      33.310  20.499  11.384  0.00  0.00    -0.315 N 
ATOM      4  H   UNL     1      32.308  20.646  11.360  0.00  0.00    +0.149 HD
ENDROOT
BRANCH   1   5
ATOM      5  C   UNL     1      32.774  18.925  13.191  0.00  0.00    +0.131 C 
BRANCH   5  10
ATOM      6  C   UNL     1      31.132  21.058  15.922  0.00  0.00    +0.052 A 
ATOM      7  C   UNL     1      32.235  21.348  16.733  0.00  0.00    +0.019 A 
ATOM      8  C   UNL     1      33.500  20.877  16.381  0.00  0.00    +0.002 A 
ATOM      9  C   UNL     1      33.668  20.120  15.220  0.00  0.00    +0.004 A 
ATOM     10  C   UNL     1      32.576  19.825  14.392  0.00  0.00    -0.037 A 
ATOM     11  C   UNL     1      31.304  20.294  14.759  0.00  0.00    +0.023 A 
BRANCH   6  13
ATOM     12  N   UNL     1      28.778  21.907  16.605  0.00  0.00    -0.191 NA
ATOM     13  C   UNL     1      29.830  21.526  16.295  0.00  0.00    +0.099 C 
ENDBRANCH   6  13
ENDBRANCH   5  10
ENDBRANCH   1   5
BRANCH   3  14
ATOM     14  C   UNL     1      34.045  20.816  10.173  0.00  0.00    +0.108 C 
BRANCH  14  15
ATOM     15  C   UNL     1      33.344  21.751   9.169  0.00  0.00    +0.011 C 
ATOM     16  C   UNL     1      34.152  21.997   7.898  0.00  0.00    +0.033 C 
ATOM     17  C   UNL     1      35.485  22.652   8.227  0.00  0.00    +0.161 C 
ATOM     18  O   UNL     1      35.372  23.775   9.099  0.00  0.00    -0.373 OA
ATOM     19  C   UNL     1      34.415  23.798  10.197  0.00  0.00    +0.070 C 
ATOM     20  C   UNL     1      34.914  23.392  11.627  0.00  0.00    +0.035 C 
ATOM     21  C   UNL     1      35.315  24.850  11.858  0.00  0.00    +0.006 C 
ATOM     22  C   UNL     1      34.272  25.240  10.793  0.00  0.00    +0.035 C 
ATOM     23  C   UNL     1      33.089  23.137   9.798  0.00  0.00    +0.040 C 
ENDBRANCH  14  15
ENDBRANCH   3  14
TORSDOF 5
ENDMDL
MODEL 6
REMARK VINA RESULT:      -6.1      2.191      3.104
REMARK  Name = ZINC000560333501
REMARK  5 active torsions:
REMARK  status: ('A' for Active; 'I' for Inactive)
REMARK    1  A    between atoms: C_2  and  C_3
REMARK    2  A    between atoms: C_7  and  C_8
REMARK    3  A    between atoms: C_8  and  C_9
REMARK    4  A    between atoms: N_11  and  C_12
REMARK    5  A    between atoms: C_12  and  C_13
REMARK                            x       y       z     vdW  Elec       q    Type
REMARK                         _______ _______ _______ _____ _____    ______ ____
ROOT
ATOM      1  C   UNL     1      33.791  19.800  12.277  0.00  0.00    +0.217 C 
ATOM      2  O   UNL     1      34.984  19.956  12.549  0.00  0.00    -0.275 OA
ATOM      3  N   UNL     1      33.203  20.308  11.131  0.00  0.00    -0.315 N 
ATOM      4  H   UNL     1      32.327  19.881  10.857  0.00  0.00    +0.149 HD
ENDROOT
BRANCH   1   5
ATOM      5  C   UNL     1      32.879  19.030  13.202  0.00  0.00    +0.131 C 
BRANCH   5  10
ATOM      6  C   UNL     1      32.635  20.834  16.577  0.00  0.00    +0.052 A 
ATOM      7  C   UNL     1      31.368  21.422  16.474  0.00  0.00    +0.019 A 
ATOM      8  C   UNL     1      30.596  21.212  15.333  0.00  0.00    +0.002 A 
ATOM      9  C   UNL     1      31.080  20.415  14.294  0.00  0.00    +0.004 A 
ATOM     10  C   UNL     1      32.343  19.812  14.382  0.00  0.00    -0.037 A 
ATOM     11  C   UNL     1      33.120  20.037  15.531  0.00  0.00    +0.023 A 
BRANCH   6  13
ATOM     12  N   UNL     1      34.078  21.256  18.690  0.00  0.00    -0.191 NA
ATOM     13  C   UNL     1      33.436  21.066  17.742  0.00  0.00    +0.099 C 
ENDBRANCH   6  13
ENDBRANCH   5  10
ENDBRANCH   1   5
BRANCH   3  14
ATOM     14  C   UNL     1      34.072  20.760  10.058  0.00  0.00    +0.108 C 
BRANCH  14  15
ATOM     15  C   UNL     1      33.433  21.677   8.998  0.00  0.00    +0.011 C 
ATOM     16  C   UNL     1      34.324  21.917   7.783  0.00  0.00    +0.033 C 
ATOM     17  C   UNL     1      35.626  22.589   8.195  0.00  0.00    +0.161 C 
ATOM     18  O   UNL     1      35.443  23.720   9.043  0.00  0.00    -0.373 OA
ATOM     19  C   UNL     1      34.412  23.745  10.073  0.00  0.00    +0.070 C 
ATOM     20  C   UNL     1      34.815  23.361  11.539  0.00  0.00    +0.035 C 
ATOM     21  C   UNL     1      35.186  24.824  11.779  0.00  0.00    +0.006 C 
ATOM     22  C   UNL     1      34.216  25.192  10.640  0.00  0.00    +0.035 C 
ATOM     23  C   UNL     1      33.123  23.067   9.592  0.00  0.00    +0.040 C 
ENDBRANCH  14  15
ENDBRANCH   3  14
TORSDOF 5
ENDMDL
MODEL 7
REMARK VINA RESULT:      -6.1      2.648      6.877
REMARK  Name = ZINC000560333501
REMARK  5 active torsions:
REMARK  status: ('A' for Active; 'I' for Inactive)
REMARK    1  A    between atoms: C_2  and  C_3
REMARK    2  A    between atoms: C_7  and  C_8
REMARK    3  A    between atoms: C_8  and  C_9
REMARK    4  A    between atoms: N_11  and  C_12
REMARK    5  A    between atoms: C_12  and  C_13
REMARK                            x       y       z     vdW  Elec       q    Type
REMARK                         _______ _______ _______ _____ _____    ______ ____
ROOT
ATOM      1  C   UNL     1      33.993  19.040  11.812  0.00  0.00    +0.217 C 
ATOM      2  O   UNL     1      35.158  18.977  12.214  0.00  0.00    -0.275 OA
ATOM      3  N   UNL     1      32.924  19.347  12.635  0.00  0.00    -0.315 N 
ATOM      4  H   UNL     1      32.083  19.664  12.169  0.00  0.00    +0.149 HD
ENDROOT
BRANCH   1   5
ATOM      5  C   UNL     1      33.658  18.777  10.363  0.00  0.00    +0.131 C 
BRANCH   5  10
ATOM      6  C   UNL     1      33.468  22.321   8.912  0.00  0.00    +0.052 A 
ATOM      7  C   UNL     1      34.269  22.186   7.772  0.00  0.00    +0.019 A 
ATOM      8  C   UNL     1      34.842  20.952   7.468  0.00  0.00    +0.002 A 
ATOM      9  C   UNL     1      34.615  19.850   8.294  0.00  0.00    +0.004 A 
ATOM     10  C   UNL     1      33.810  19.964   9.436  0.00  0.00    -0.037 A 
ATOM     11  C   UNL     1      33.245  21.214   9.742  0.00  0.00    +0.023 A 
BRANCH   6  13
ATOM     12  N   UNL     1      32.436  24.627   9.503  0.00  0.00    -0.191 NA
ATOM     13  C   UNL     1      32.895  23.595   9.235  0.00  0.00    +0.099 C 
ENDBRANCH   6  13
ENDBRANCH   5  10
ENDBRANCH   1   5
BRANCH   3  14
ATOM     14  C   UNL     1      33.205  19.926  13.937  0.00  0.00    +0.108 C 
BRANCH  14  15
ATOM     15  C   UNL     1      33.615  21.411  13.953  0.00  0.00    +0.011 C 
ATOM     16  C   UNL     1      34.561  21.770  15.095  0.00  0.00    +0.033 C 
ATOM     17  C   UNL     1      33.907  21.497  16.441  0.00  0.00    +0.161 C 
ATOM     18  O   UNL     1      32.590  22.031  16.556  0.00  0.00    -0.373 OA
ATOM     19  C   UNL     1      31.661  22.024  15.434  0.00  0.00    +0.070 C 
ATOM     20  C   UNL     1      30.620  20.855  15.338  0.00  0.00    +0.035 C 
ATOM     21  C   UNL     1      29.670  21.681  16.206  0.00  0.00    +0.006 C 
ATOM     22  C   UNL     1      30.420  22.937  15.722  0.00  0.00    +0.035 C 
ATOM     23  C   UNL     1      32.378  22.320  14.111  0.00  0.00    +0.040 C 
ENDBRANCH  14  15
ENDBRANCH   3  14
TORSDOF 5
ENDMDL
MODEL 8
REMARK VINA RESULT:      -6.1      2.774      6.820
REMARK  Name = ZINC000560333501
REMARK  5 active torsions:
REMARK  status: ('A' for Active; 'I' for Inactive)
REMARK    1  A    between atoms: C_2  and  C_3
REMARK    2  A    between atoms: C_7  and  C_8
REMARK    3  A    between atoms: C_8  and  C_9
REMARK    4  A    between atoms: N_11  and  C_12
REMARK    5  A    between atoms: C_12  and  C_13
REMARK                            x       y       z     vdW  Elec       q    Type
REMARK                         _______ _______ _______ _____ _____    ______ ____
ROOT
ATOM      1  C   UNL     1      32.884  23.097  11.352  0.00  0.00    +0.217 C 
ATOM      2  O   UNL     1      33.911  23.302  12.005  0.00  0.00    -0.275 OA
ATOM      3  N   UNL     1      31.714  22.615  11.913  0.00  0.00    -0.315 N 
ATOM      4  H   UNL     1      30.870  22.766  11.374  0.00  0.00    +0.149 HD
ENDROOT
BRANCH   1   5
ATOM      5  C   UNL     1      32.845  23.362   9.866  0.00  0.00    +0.131 C 
BRANCH   5  10
ATOM      6  C   UNL     1      35.272  21.622   7.461  0.00  0.00    +0.052 A 
ATOM      7  C   UNL     1      34.834  20.296   7.553  0.00  0.00    +0.019 A 
ATOM      8  C   UNL     1      33.749  19.977   8.369  0.00  0.00    +0.002 A 
ATOM      9  C   UNL     1      33.095  20.979   9.089  0.00  0.00    +0.004 A 
ATOM     10  C   UNL     1      33.514  22.314   9.003  0.00  0.00    -0.037 A 
ATOM     11  C   UNL     1      34.616  22.625   8.188  0.00  0.00    +0.023 A 
BRANCH   6  13
ATOM     12  N   UNL     1      37.318  22.199   5.973  0.00  0.00    -0.191 NA
ATOM     13  C   UNL     1      36.400  21.945   6.638  0.00  0.00    +0.099 C 
ENDBRANCH   6  13
ENDBRANCH   5  10
ENDBRANCH   1   5
BRANCH   3  14
ATOM     14  C   UNL     1      31.580  22.655  13.358  0.00  0.00    +0.108 C 
BRANCH  14  15
ATOM     15  C   UNL     1      30.731  21.541  14.000  0.00  0.00    +0.011 C 
ATOM     16  C   UNL     1      29.864  22.026  15.159  0.00  0.00    +0.033 C 
ATOM     17  C   UNL     1      30.728  22.595  16.274  0.00  0.00    +0.161 C 
ATOM     18  O   UNL     1      31.815  21.750  16.644  0.00  0.00    -0.373 OA
ATOM     19  C   UNL     1      32.558  20.981  15.654  0.00  0.00    +0.070 C 
ATOM     20  C   UNL     1      33.893  21.583  15.093  0.00  0.00    +0.035 C 
ATOM     21  C   UNL     1      34.634  20.925  16.257  0.00  0.00    +0.006 C 
ATOM     22  C   UNL     1      33.475  19.912  16.340  0.00  0.00    +0.035 C 
ATOM     23  C   UNL     1      31.630  20.423  14.567  0.00  0.00    +0.040 C 
ENDBRANCH  14  15
ENDBRANCH   3  14
TORSDOF 5
ENDMDL
MODEL 9
REMARK VINA RESULT:      -6.1      2.101      6.136
REMARK  Name = ZINC000560333501
REMARK  5 active torsions:
REMARK  status: ('A' for Active; 'I' for Inactive)
REMARK    1  A    between atoms: C_2  and  C_3
REMARK    2  A    between atoms: C_7  and  C_8
REMARK    3  A    between atoms: C_8  and  C_9
REMARK    4  A    between atoms: N_11  and  C_12
REMARK    5  A    between atoms: C_12  and  C_13
REMARK                            x       y       z     vdW  Elec       q    Type
REMARK                         _______ _______ _______ _____ _____    ______ ____
ROOT
ATOM      1  C   UNL     1      30.765  22.916  14.250  0.00  0.00    +0.217 C 
ATOM      2  O   UNL     1      29.888  22.078  14.027  0.00  0.00    -0.275 OA
ATOM      3  N   UNL     1      31.541  22.914  15.396  0.00  0.00    -0.315 N 
ATOM      4  H   UNL     1      32.406  23.439  15.346  0.00  0.00    +0.149 HD
ENDROOT
BRANCH   1   5
ATOM      5  C   UNL     1      31.048  24.023  13.261  0.00  0.00    +0.131 C 
BRANCH   5  10
ATOM      6  C   UNL     1      34.023  24.395  10.871  0.00  0.00    +0.052 A 
ATOM      7  C   UNL     1      34.207  23.068  10.466  0.00  0.00    +0.019 A 
ATOM      8  C   UNL     1      33.359  22.071  10.946  0.00  0.00    +0.002 A 
ATOM      9  C   UNL     1      32.324  22.393  11.825  0.00  0.00    +0.004 A 
ATOM     10  C   UNL     1      32.119  23.718  12.236  0.00  0.00    -0.037 A 
ATOM     11  C   UNL     1      32.985  24.715  11.757  0.00  0.00    +0.023 A 
BRANCH   6  13
ATOM     12  N   UNL     1      35.618  26.245   9.998  0.00  0.00    -0.191 NA
ATOM     13  C   UNL     1      34.907  25.416  10.392  0.00  0.00    +0.099 C 
ENDBRANCH   6  13
ENDBRANCH   5  10
ENDBRANCH   1   5
BRANCH   3  14
ATOM     14  C   UNL     1      31.553  21.714  16.213  0.00  0.00    +0.108 C 
BRANCH  14  15
ATOM     15  C   UNL     1      32.886  21.365  16.901  0.00  0.00    +0.011 C 
ATOM     16  C   UNL     1      34.006  22.358  16.602  0.00  0.00    +0.033 C 
ATOM     17  C   UNL     1      34.299  22.403  15.110  0.00  0.00    +0.161 C 
ATOM     18  O   UNL     1      34.458  21.116  14.518  0.00  0.00    -0.373 OA
ATOM     19  C   UNL     1      33.642  19.980  14.927  0.00  0.00    +0.070 C 
ATOM     20  C   UNL     1      32.366  19.639  14.082  0.00  0.00    +0.035 C 
ATOM     21  C   UNL     1      33.242  18.770  13.180  0.00  0.00    +0.006 C 
ATOM     22  C   UNL     1      34.220  18.637  14.362  0.00  0.00    +0.035 C 
ATOM     23  C   UNL     1      33.395  19.983  16.441  0.00  0.00    +0.040 C 
ENDBRANCH  14  15
ENDBRANCH   3  14
TORSDOF 5
ENDMDL
