MODEL 1
REMARK VINA RESULT:      -6.8      0.000      0.000
REMARK  Name = ZINC000583127796
REMARK  2 active torsions:
REMARK  status: ('A' for Active; 'I' for Inactive)
REMARK    1  A    between atoms: C_2  and  C_4
REMARK    2  A    between atoms: C_7  and  C_8
REMARK                            x       y       z     vdW  Elec       q    Type
REMARK                         _______ _______ _______ _____ _____    ______ ____
ROOT
ATOM      1  C   UNL     1      30.393  16.037  13.711  0.00  0.00    +0.247 C 
ATOM      2  O   UNL     1      29.978  15.226  12.880  0.00  0.00    -0.270 OA
ATOM      3  N   UNL     1      31.747  16.141  14.064  0.00  0.00    -0.297 N 
ATOM      4  C   UNL     1      32.329  17.067  15.037  0.00  0.00    +0.108 C 
ATOM      5  C   UNL     1      33.459  17.894  14.454  0.00  0.00    +0.020 C 
ATOM      6  C   UNL     1      34.480  17.027  13.741  0.00  0.00    +0.011 C 
ATOM      7  C   UNL     1      33.845  16.067  12.705  0.00  0.00    -0.004 C 
ATOM      8  C   UNL     1      34.981  15.166  12.176  0.00  0.00    +0.020 C 
ATOM      9  C   UNL     1      34.628  14.643  10.801  0.00  0.00    +0.070 C 
ATOM     10  S   UNL     1      33.859  16.047   9.980  0.00  0.00    -0.160 S 
ATOM     11  C   UNL     1      33.266  16.842  11.500  0.00  0.00    +0.077 C 
ATOM     12  C   UNL     1      32.722  15.253  13.401  0.00  0.00    +0.115 C 
ENDROOT
BRANCH   1  16
ATOM     13  C   UNL     1      27.825  18.896  15.598  0.00  0.00    +0.037 A 
ATOM     14  C   UNL     1      27.643  17.536  15.863  0.00  0.00    +0.014 A 
ATOM     15  C   UNL     1      28.392  16.587  15.165  0.00  0.00    +0.014 A 
ATOM     16  C   UNL     1      29.400  16.994  14.289  0.00  0.00    +0.037 A 
ATOM     17  C   UNL     1      29.514  18.350  13.953  0.00  0.00    +0.014 A 
ATOM     18  C   UNL     1      28.717  19.300  14.601  0.00  0.00    +0.014 A 
BRANCH  13  20
ATOM     19  N   UNL     1      26.143  19.488  17.251  0.00  0.00    -0.325 N 
ATOM     20  C   UNL     1      27.083  19.934  16.364  0.00  0.00    +0.242 C 
ATOM     21  O   UNL     1      27.338  21.121  16.247  0.00  0.00    -0.270 OA
ATOM     22  H   UNL     1      25.733  20.192  17.853  0.00  0.00    +0.145 HD
ATOM     23  H   UNL     1      26.113  18.530  17.573  0.00  0.00    +0.145 HD
ENDBRANCH  13  20
ENDBRANCH   1  16
TORSDOF 2
ENDMDL
MODEL 2
REMARK VINA RESULT:      -6.3      5.944     10.911
REMARK  Name = ZINC000583127796
REMARK  2 active torsions:
REMARK  status: ('A' for Active; 'I' for Inactive)
REMARK    1  A    between atoms: C_2  and  C_4
REMARK    2  A    between atoms: C_7  and  C_8
REMARK                            x       y       z     vdW  Elec       q    Type
REMARK                         _______ _______ _______ _____ _____    ______ ____
ROOT
ATOM      1  C   UNL     1      25.992  22.004  18.692  0.00  0.00    +0.247 C 
ATOM      2  O   UNL     1      26.496  21.902  19.812  0.00  0.00    -0.270 OA
ATOM      3  N   UNL     1      24.773  22.659  18.461  0.00  0.00    -0.297 N 
ATOM      4  C   UNL     1      24.099  22.825  17.172  0.00  0.00    +0.108 C 
ATOM      5  C   UNL     1      23.780  24.275  16.862  0.00  0.00    +0.020 C 
ATOM      6  C   UNL     1      23.072  24.955  18.020  0.00  0.00    +0.011 C 
ATOM      7  C   UNL     1      23.811  24.780  19.369  0.00  0.00    -0.004 C 
ATOM      8  C   UNL     1      22.905  25.397  20.457  0.00  0.00    +0.020 C 
ATOM      9  C   UNL     1      23.739  25.815  21.648  0.00  0.00    +0.070 C 
ATOM     10  S   UNL     1      25.226  26.518  20.920  0.00  0.00    -0.160 S 
ATOM     11  C   UNL     1      25.149  25.553  19.385  0.00  0.00    +0.077 C 
ATOM     12  C   UNL     1      24.069  23.268  19.606  0.00  0.00    +0.115 C 
ENDROOT
BRANCH   1  16
ATOM     13  C   UNL     1      28.385  20.217  15.624  0.00  0.00    +0.037 A 
ATOM     14  C   UNL     1      28.741  21.473  16.122  0.00  0.00    +0.014 A 
ATOM     15  C   UNL     1      27.905  22.120  17.034  0.00  0.00    +0.014 A 
ATOM     16  C   UNL     1      26.777  21.469  17.537  0.00  0.00    +0.037 A 
ATOM     17  C   UNL     1      26.371  20.255  16.965  0.00  0.00    +0.014 A 
ATOM     18  C   UNL     1      27.170  19.636  15.999  0.00  0.00    +0.014 A 
BRANCH  13  20
ATOM     19  N   UNL     1      28.776  19.188  13.455  0.00  0.00    -0.325 N 
ATOM     20  C   UNL     1      29.280  19.477  14.693  0.00  0.00    +0.242 C 
ATOM     21  O   UNL     1      30.425  19.188  14.999  0.00  0.00    -0.270 OA
ATOM     22  H   UNL     1      29.432  18.796  12.791  0.00  0.00    +0.145 HD
ATOM     23  H   UNL     1      27.961  19.654  13.081  0.00  0.00    +0.145 HD
ENDBRANCH  13  20
ENDBRANCH   1  16
TORSDOF 2
ENDMDL
MODEL 3
REMARK VINA RESULT:      -6.3      3.541      4.677
REMARK  Name = ZINC000583127796
REMARK  2 active torsions:
REMARK  status: ('A' for Active; 'I' for Inactive)
REMARK    1  A    between atoms: C_2  and  C_4
REMARK    2  A    between atoms: C_7  and  C_8
REMARK                            x       y       z     vdW  Elec       q    Type
REMARK                         _______ _______ _______ _____ _____    ______ ____
ROOT
ATOM      1  C   UNL     1      31.489  19.972  15.003  0.00  0.00    +0.247 C 
ATOM      2  O   UNL     1      32.666  19.980  14.638  0.00  0.00    -0.270 OA
ATOM      3  N   UNL     1      30.535  19.086  14.479  0.00  0.00    -0.297 N 
ATOM      4  C   UNL     1      29.120  19.006  14.848  0.00  0.00    +0.108 C 
ATOM      5  C   UNL     1      28.706  17.609  15.271  0.00  0.00    +0.020 C 
ATOM      6  C   UNL     1      29.140  16.564  14.260  0.00  0.00    +0.011 C 
ATOM      7  C   UNL     1      30.642  16.657  13.898  0.00  0.00    -0.004 C 
ATOM      8  C   UNL     1      30.893  15.634  12.769  0.00  0.00    +0.020 C 
ATOM      9  C   UNL     1      32.349  15.221  12.761  0.00  0.00    +0.070 C 
ATOM     10  S   UNL     1      32.774  15.069  14.503  0.00  0.00    -0.160 S 
ATOM     11  C   UNL     1      31.537  16.260  15.093  0.00  0.00    +0.077 C 
ATOM     12  C   UNL     1      30.960  18.110  13.457  0.00  0.00    +0.115 C 
ENDROOT
BRANCH   1  16
ATOM     13  C   UNL     1      30.208  22.339  18.333  0.00  0.00    +0.037 A 
ATOM     14  C   UNL     1      29.651  22.575  17.073  0.00  0.00    +0.014 A 
ATOM     15  C   UNL     1      30.144  21.895  15.958  0.00  0.00    +0.014 A 
ATOM     16  C   UNL     1      31.110  20.899  16.113  0.00  0.00    +0.037 A 
ATOM     17  C   UNL     1      31.734  20.734  17.358  0.00  0.00    +0.014 A 
ATOM     18  C   UNL     1      31.290  21.464  18.465  0.00  0.00    +0.014 A 
BRANCH  13  20
ATOM     19  N   UNL     1      28.496  23.694  19.403  0.00  0.00    -0.325 N 
ATOM     20  C   UNL     1      29.669  23.006  19.549  0.00  0.00    +0.242 C 
ATOM     21  O   UNL     1      30.216  22.900  20.634  0.00  0.00    -0.270 OA
ATOM     22  H   UNL     1      28.076  24.038  20.258  0.00  0.00    +0.145 HD
ATOM     23  H   UNL     1      27.886  23.562  18.608  0.00  0.00    +0.145 HD
ENDBRANCH  13  20
ENDBRANCH   1  16
TORSDOF 2
ENDMDL
MODEL 4
REMARK VINA RESULT:      -6.2     20.152     22.332
REMARK  Name = ZINC000583127796
REMARK  2 active torsions:
REMARK  status: ('A' for Active; 'I' for Inactive)
REMARK    1  A    between atoms: C_2  and  C_4
REMARK    2  A    between atoms: C_7  and  C_8
REMARK                            x       y       z     vdW  Elec       q    Type
REMARK                         _______ _______ _______ _____ _____    ______ ____
ROOT
ATOM      1  C   UNL     1      11.406  18.788   5.341  0.00  0.00    +0.247 C 
ATOM      2  O   UNL     1      12.400  19.517   5.344  0.00  0.00    -0.270 OA
ATOM      3  N   UNL     1      10.362  18.927   4.413  0.00  0.00    -0.297 N 
ATOM      4  C   UNL     1       9.147  18.114   4.335  0.00  0.00    +0.108 C 
ATOM      5  C   UNL     1       8.937  17.508   2.959  0.00  0.00    +0.020 C 
ATOM      6  C   UNL     1       9.053  18.551   1.863  0.00  0.00    +0.011 C 
ATOM      7  C   UNL     1      10.352  19.388   1.955  0.00  0.00    -0.004 C 
ATOM      8  C   UNL     1      10.256  20.484   0.872  0.00  0.00    +0.020 C 
ATOM      9  C   UNL     1      11.642  20.945   0.479  0.00  0.00    +0.070 C 
ATOM     10  S   UNL     1      12.614  19.432   0.436  0.00  0.00    -0.160 S 
ATOM     11  C   UNL     1      11.599  18.532   1.641  0.00  0.00    +0.077 C 
ATOM     12  C   UNL     1      10.463  19.981   3.385  0.00  0.00    +0.115 C 
ENDROOT
BRANCH   1  16
ATOM     13  C   UNL     1      11.603  15.747   8.348  0.00  0.00    +0.037 A 
ATOM     14  C   UNL     1      12.097  15.476   7.069  0.00  0.00    +0.014 A 
ATOM     15  C   UNL     1      11.932  16.413   6.048  0.00  0.00    +0.014 A 
ATOM     16  C   UNL     1      11.378  17.664   6.326  0.00  0.00    +0.037 A 
ATOM     17  C   UNL     1      10.796  17.896   7.580  0.00  0.00    +0.014 A 
ATOM     18  C   UNL     1      10.899  16.931   8.587  0.00  0.00    +0.014 A 
BRANCH  13  20
ATOM     19  N   UNL     1      13.089  14.675   9.945  0.00  0.00    -0.325 N 
ATOM     20  C   UNL     1      11.812  14.794   9.471  0.00  0.00    +0.242 C 
ATOM     21  O   UNL     1      10.883  14.189   9.980  0.00  0.00    -0.270 OA
ATOM     22  H   UNL     1      13.199  14.120  10.786  0.00  0.00    +0.145 HD
ATOM     23  H   UNL     1      13.807  15.357   9.744  0.00  0.00    +0.145 HD
ENDBRANCH  13  20
ENDBRANCH   1  16
TORSDOF 2
ENDMDL
MODEL 5
REMARK VINA RESULT:      -6.2      2.398      3.840
REMARK  Name = ZINC000583127796
REMARK  2 active torsions:
REMARK  status: ('A' for Active; 'I' for Inactive)
REMARK    1  A    between atoms: C_2  and  C_4
REMARK    2  A    between atoms: C_7  and  C_8
REMARK                            x       y       z     vdW  Elec       q    Type
REMARK                         _______ _______ _______ _____ _____    ______ ____
ROOT
ATOM      1  C   UNL     1      30.341  19.900  15.063  0.00  0.00    +0.247 C 
ATOM      2  O   UNL     1      31.417  20.502  15.066  0.00  0.00    -0.270 OA
ATOM      3  N   UNL     1      30.089  18.795  14.235  0.00  0.00    -0.297 N 
ATOM      4  C   UNL     1      28.847  18.023  14.161  0.00  0.00    +0.108 C 
ATOM      5  C   UNL     1      29.069  16.537  14.373  0.00  0.00    +0.020 C 
ATOM      6  C   UNL     1      30.181  16.003  13.489  0.00  0.00    +0.011 C 
ATOM      7  C   UNL     1      31.489  16.824  13.596  0.00  0.00    -0.004 C 
ATOM      8  C   UNL     1      32.464  16.250  12.546  0.00  0.00    +0.020 C 
ATOM      9  C   UNL     1      33.892  16.541  12.952  0.00  0.00    +0.070 C 
ATOM     10  S   UNL     1      33.905  16.278  14.732  0.00  0.00    -0.160 S 
ATOM     11  C   UNL     1      32.148  16.657  14.983  0.00  0.00    +0.077 C 
ATOM     12  C   UNL     1      31.163  18.320  13.341  0.00  0.00    +0.115 C 
ENDROOT
BRANCH   1  16
ATOM     13  C   UNL     1      27.242  21.372  17.623  0.00  0.00    +0.037 A 
ATOM     14  C   UNL     1      28.557  21.795  17.832  0.00  0.00    +0.014 A 
ATOM     15  C   UNL     1      29.594  21.234  17.083  0.00  0.00    +0.014 A 
ATOM     16  C   UNL     1      29.309  20.337  16.052  0.00  0.00    +0.037 A 
ATOM     17  C   UNL     1      28.004  19.842  15.911  0.00  0.00    +0.014 A 
ATOM     18  C   UNL     1      26.974  20.352  16.706  0.00  0.00    +0.014 A 
BRANCH  13  20
ATOM     19  N   UNL     1      26.279  22.167  19.710  0.00  0.00    -0.325 N 
ATOM     20  C   UNL     1      26.109  21.991  18.364  0.00  0.00    +0.242 C 
ATOM     21  O   UNL     1      25.101  22.371  17.793  0.00  0.00    -0.270 OA
ATOM     22  H   UNL     1      25.556  22.698  20.181  0.00  0.00    +0.145 HD
ATOM     23  H   UNL     1      27.188  22.129  20.150  0.00  0.00    +0.145 HD
ENDBRANCH  13  20
ENDBRANCH   1  16
TORSDOF 2
ENDMDL
MODEL 6
REMARK VINA RESULT:      -6.0      4.432      5.364
REMARK  Name = ZINC000583127796
REMARK  2 active torsions:
REMARK  status: ('A' for Active; 'I' for Inactive)
REMARK    1  A    between atoms: C_2  and  C_4
REMARK    2  A    between atoms: C_7  and  C_8
REMARK                            x       y       z     vdW  Elec       q    Type
REMARK                         _______ _______ _______ _____ _____    ______ ____
ROOT
ATOM      1  C   UNL     1      31.817  20.928  13.768  0.00  0.00    +0.247 C 
ATOM      2  O   UNL     1      32.696  20.064  13.756  0.00  0.00    -0.270 OA
ATOM      3  N   UNL     1      31.990  22.199  13.200  0.00  0.00    -0.297 N 
ATOM      4  C   UNL     1      31.008  23.285  13.169  0.00  0.00    +0.108 C 
ATOM      5  C   UNL     1      30.753  23.802  11.766  0.00  0.00    +0.020 C 
ATOM      6  C   UNL     1      32.048  24.121  11.041  0.00  0.00    +0.011 C 
ATOM      7  C   UNL     1      33.065  22.953  11.072  0.00  0.00    -0.004 C 
ATOM      8  C   UNL     1      34.365  23.477  10.425  0.00  0.00    +0.020 C 
ATOM      9  C   UNL     1      35.170  22.320   9.874  0.00  0.00    +0.070 C 
ATOM     10  S   UNL     1      33.935  21.232   9.147  0.00  0.00    -0.160 S 
ATOM     11  C   UNL     1      32.575  21.755  10.228  0.00  0.00    +0.077 C 
ATOM     12  C   UNL     1      33.275  22.513  12.545  0.00  0.00    +0.115 C 
ENDROOT
BRANCH   1  16
ATOM     13  C   UNL     1      28.200  19.569  15.613  0.00  0.00    +0.037 A 
ATOM     14  C   UNL     1      28.419  19.298  14.260  0.00  0.00    +0.014 A 
ATOM     15  C   UNL     1      29.535  19.837  13.616  0.00  0.00    +0.014 A 
ATOM     16  C   UNL     1      30.490  20.548  14.344  0.00  0.00    +0.037 A 
ATOM     17  C   UNL     1      30.221  20.899  15.675  0.00  0.00    +0.014 A 
ATOM     18  C   UNL     1      29.068  20.419  16.304  0.00  0.00    +0.014 A 
BRANCH  13  20
ATOM     19  N   UNL     1      26.409  19.764  17.246  0.00  0.00    -0.325 N 
ATOM     20  C   UNL     1      27.052  18.965  16.342  0.00  0.00    +0.242 C 
ATOM     21  O   UNL     1      26.669  17.831  16.107  0.00  0.00    -0.270 OA
ATOM     22  H   UNL     1      25.558  19.387  17.644  0.00  0.00    +0.145 HD
ATOM     23  H   UNL     1      26.517  20.769  17.252  0.00  0.00    +0.145 HD
ENDBRANCH  13  20
ENDBRANCH   1  16
TORSDOF 2
ENDMDL
MODEL 7
REMARK VINA RESULT:      -6.0      7.305      8.472
REMARK  Name = ZINC000583127796
REMARK  2 active torsions:
REMARK  status: ('A' for Active; 'I' for Inactive)
REMARK    1  A    between atoms: C_2  and  C_4
REMARK    2  A    between atoms: C_7  and  C_8
REMARK                            x       y       z     vdW  Elec       q    Type
REMARK                         _______ _______ _______ _____ _____    ______ ____
ROOT
ATOM      1  C   UNL     1      33.454  24.187   8.975  0.00  0.00    +0.247 C 
ATOM      2  O   UNL     1      33.951  25.308   8.849  0.00  0.00    -0.270 OA
ATOM      3  N   UNL     1      33.549  23.196   7.986  0.00  0.00    -0.297 N 
ATOM      4  C   UNL     1      32.991  21.844   8.045  0.00  0.00    +0.108 C 
ATOM      5  C   UNL     1      34.033  20.770   7.795  0.00  0.00    +0.020 C 
ATOM      6  C   UNL     1      34.838  21.050   6.539  0.00  0.00    +0.011 C 
ATOM      7  C   UNL     1      35.432  22.479   6.505  0.00  0.00    -0.004 C 
ATOM      8  C   UNL     1      36.094  22.655   5.121  0.00  0.00    +0.020 C 
ATOM      9  C   UNL     1      37.173  23.712   5.195  0.00  0.00    +0.070 C 
ATOM     10  S   UNL     1      37.980  23.409   6.774  0.00  0.00    -0.160 S 
ATOM     11  C   UNL     1      36.534  22.658   7.573  0.00  0.00    +0.077 C 
ATOM     12  C   UNL     1      34.290  23.501   6.746  0.00  0.00    +0.115 C 
ENDROOT
BRANCH   1  16
ATOM     13  C   UNL     1      31.499  22.939  12.573  0.00  0.00    +0.037 A 
ATOM     14  C   UNL     1      30.877  23.882  11.750  0.00  0.00    +0.014 A 
ATOM     15  C   UNL     1      31.554  24.386  10.638  0.00  0.00    +0.014 A 
ATOM     16  C   UNL     1      32.801  23.870  10.282  0.00  0.00    +0.037 A 
ATOM     17  C   UNL     1      33.462  22.999  11.159  0.00  0.00    +0.014 A 
ATOM     18  C   UNL     1      32.813  22.543  12.312  0.00  0.00    +0.014 A 
BRANCH  13  20
ATOM     19  N   UNL     1      29.642  21.640  13.456  0.00  0.00    -0.325 N 
ATOM     20  C   UNL     1      30.783  22.340  13.733  0.00  0.00    +0.242 C 
ATOM     21  O   UNL     1      31.221  22.423  14.868  0.00  0.00    -0.270 OA
ATOM     22  H   UNL     1      29.232  21.135  14.232  0.00  0.00    +0.145 HD
ATOM     23  H   UNL     1      29.418  21.317  12.524  0.00  0.00    +0.145 HD
ENDBRANCH  13  20
ENDBRANCH   1  16
TORSDOF 2
ENDMDL
MODEL 8
REMARK VINA RESULT:      -6.0      5.203      6.220
REMARK  Name = ZINC000583127796
REMARK  2 active torsions:
REMARK  status: ('A' for Active; 'I' for Inactive)
REMARK    1  A    between atoms: C_2  and  C_4
REMARK    2  A    between atoms: C_7  and  C_8
REMARK                            x       y       z     vdW  Elec       q    Type
REMARK                         _______ _______ _______ _____ _____    ______ ____
ROOT
ATOM      1  C   UNL     1      32.391  21.978  13.437  0.00  0.00    +0.247 C 
ATOM      2  O   UNL     1      33.349  21.204  13.382  0.00  0.00    -0.270 OA
ATOM      3  N   UNL     1      32.328  23.167  12.693  0.00  0.00    -0.297 N 
ATOM      4  C   UNL     1      31.238  24.144  12.697  0.00  0.00    +0.108 C 
ATOM      5  C   UNL     1      30.706  24.431  11.305  0.00  0.00    +0.020 C 
ATOM      6  C   UNL     1      31.825  24.758  10.333  0.00  0.00    +0.011 C 
ATOM      7  C   UNL     1      32.958  23.704  10.334  0.00  0.00    -0.004 C 
ATOM      8  C   UNL     1      34.072  24.244   9.411  0.00  0.00    +0.020 C 
ATOM      9  C   UNL     1      34.903  23.098   8.879  0.00  0.00    +0.070 C 
ATOM     10  S   UNL     1      33.699  21.811   8.518  0.00  0.00    -0.160 S 
ATOM     11  C   UNL     1      32.478  22.358   9.744  0.00  0.00    +0.077 C 
ATOM     12  C   UNL     1      33.448  23.498  11.792  0.00  0.00    +0.115 C 
ENDROOT
BRANCH   1  16
ATOM     13  C   UNL     1      28.844  21.046  15.645  0.00  0.00    +0.037 A 
ATOM     14  C   UNL     1      29.857  21.784  16.262  0.00  0.00    +0.014 A 
ATOM     15  C   UNL     1      31.067  21.993  15.597  0.00  0.00    +0.014 A 
ATOM     16  C   UNL     1      31.225  21.566  14.277  0.00  0.00    +0.037 A 
ATOM     17  C   UNL     1      30.248  20.744  13.698  0.00  0.00    +0.014 A 
ATOM     18  C   UNL     1      29.063  20.474  14.389  0.00  0.00    +0.014 A 
BRANCH  13  20
ATOM     19  N   UNL     1      26.966  21.952  16.896  0.00  0.00    -0.325 N 
ATOM     20  C   UNL     1      27.524  20.853  16.304  0.00  0.00    +0.242 C 
ATOM     21  O   UNL     1      26.942  19.781  16.272  0.00  0.00    -0.270 OA
ATOM     22  H   UNL     1      26.017  21.841  17.232  0.00  0.00    +0.145 HD
ATOM     23  H   UNL     1      27.278  22.892  16.694  0.00  0.00    +0.145 HD
ENDBRANCH  13  20
ENDBRANCH   1  16
TORSDOF 2
ENDMDL
MODEL 9
REMARK VINA RESULT:      -5.9      6.193      8.447
REMARK  Name = ZINC000583127796
REMARK  2 active torsions:
REMARK  status: ('A' for Active; 'I' for Inactive)
REMARK    1  A    between atoms: C_2  and  C_4
REMARK    2  A    between atoms: C_7  and  C_8
REMARK                            x       y       z     vdW  Elec       q    Type
REMARK                         _______ _______ _______ _____ _____    ______ ____
ROOT
ATOM      1  C   UNL     1      31.058  22.981  12.286  0.00  0.00    +0.247 C 
ATOM      2  O   UNL     1      29.864  23.214  12.087  0.00  0.00    -0.270 OA
ATOM      3  N   UNL     1      31.547  22.503  13.512  0.00  0.00    -0.297 N 
ATOM      4  C   UNL     1      32.942  22.203  13.839  0.00  0.00    +0.108 C 
ATOM      5  C   UNL     1      33.127  20.792  14.368  0.00  0.00    +0.020 C 
ATOM      6  C   UNL     1      32.149  20.478  15.485  0.00  0.00    +0.011 C 
ATOM      7  C   UNL     1      30.679  20.788  15.111  0.00  0.00    -0.004 C 
ATOM      8  C   UNL     1      29.836  20.553  16.382  0.00  0.00    +0.020 C 
ATOM      9  C   UNL     1      28.404  20.245  16.003  0.00  0.00    +0.070 C 
ATOM     10  S   UNL     1      28.551  19.177  14.562  0.00  0.00    -0.160 S 
ATOM     11  C   UNL     1      30.158  19.824  14.022  0.00  0.00    +0.077 C 
ATOM     12  C   UNL     1      30.591  22.254  14.607  0.00  0.00    +0.115 C 
ENDROOT
BRANCH   1  16
ATOM     13  C   UNL     1      33.426  23.554   8.766  0.00  0.00    +0.037 A 
ATOM     14  C   UNL     1      33.157  22.254   9.203  0.00  0.00    +0.014 A 
ATOM     15  C   UNL     1      32.489  22.053  10.413  0.00  0.00    +0.014 A 
ATOM     16  C   UNL     1      31.990  23.143  11.128  0.00  0.00    +0.037 A 
ATOM     17  C   UNL     1      32.344  24.442  10.740  0.00  0.00    +0.014 A 
ATOM     18  C   UNL     1      33.074  24.646   9.564  0.00  0.00    +0.014 A 
BRANCH  13  20
ATOM     19  N   UNL     1      34.869  24.920   7.365  0.00  0.00    -0.325 N 
ATOM     20  C   UNL     1      34.086  23.803   7.456  0.00  0.00    +0.242 C 
ATOM     21  O   UNL     1      33.977  23.023   6.525  0.00  0.00    -0.270 OA
ATOM     22  H   UNL     1      35.409  25.014   6.513  0.00  0.00    +0.145 HD
ATOM     23  H   UNL     1      35.202  25.415   8.181  0.00  0.00    +0.145 HD
ENDBRANCH  13  20
ENDBRANCH   1  16
TORSDOF 2
ENDMDL
