MODEL 1
REMARK VINA RESULT:      -6.3      0.000      0.000
REMARK  Name = ZINC000870248439
REMARK  2 active torsions:
REMARK  status: ('A' for Active; 'I' for Inactive)
REMARK    1  A    between atoms: C_2  and  C_4
REMARK    2  A    between atoms: C_7  and  C_8
REMARK                            x       y       z     vdW  Elec       q    Type
REMARK                         _______ _______ _______ _____ _____    ______ ____
ROOT
ATOM      1  C   UNL     1      18.971   5.123  28.128  0.00  0.00    +0.247 C 
ATOM      2  O   UNL     1      18.954   5.667  27.024  0.00  0.00    -0.270 OA
ATOM      3  N   UNL     1      20.139   4.620  28.718  0.00  0.00    -0.297 N 
ATOM      4  C   UNL     1      20.212   3.934  30.010  0.00  0.00    +0.108 C 
ATOM      5  C   UNL     1      21.465   4.280  30.805  0.00  0.00    +0.026 C 
ATOM      6  C   UNL     1      22.771   4.146  29.993  0.00  0.00    -0.025 C 
ATOM      7  C   UNL     1      23.916   4.735  30.855  0.00  0.00    +0.017 C 
ATOM      8  C   UNL     1      25.301   4.658  30.227  0.00  0.00    +0.069 C 
ATOM      9  S   UNL     1      25.809   2.950  29.887  0.00  0.00    -0.161 S 
ATOM     10  C   UNL     1      24.360   2.387  28.954  0.00  0.00    +0.069 C 
ATOM     11  C   UNL     1      23.061   2.650  29.707  0.00  0.00    +0.017 C 
ATOM     12  C   UNL     1      22.586   4.975  28.694  0.00  0.00    +0.026 C 
ATOM     13  C   UNL     1      21.346   4.569  27.898  0.00  0.00    +0.108 C 
ENDROOT
BRANCH   1  17
ATOM     14  C   UNL     1      15.146   5.036  30.023  0.00  0.00    +0.037 A 
ATOM     15  C   UNL     1      16.028   6.083  30.310  0.00  0.00    +0.014 A 
ATOM     16  C   UNL     1      17.316   6.070  29.772  0.00  0.00    +0.014 A 
ATOM     17  C   UNL     1      17.689   5.065  28.873  0.00  0.00    +0.037 A 
ATOM     18  C   UNL     1      16.839   3.973  28.658  0.00  0.00    +0.014 A 
ATOM     19  C   UNL     1      15.570   3.953  29.243  0.00  0.00    +0.014 A 
BRANCH  14  21
ATOM     20  N   UNL     1      12.965   6.100  30.161  0.00  0.00    -0.325 N 
ATOM     21  C   UNL     1      13.754   5.048  30.536  0.00  0.00    +0.242 C 
ATOM     22  O   UNL     1      13.313   4.135  31.218  0.00  0.00    -0.270 OA
ATOM     23  H   UNL     1      11.987   6.035  30.414  0.00  0.00    +0.145 HD
ATOM     24  H   UNL     1      13.211   6.716  29.399  0.00  0.00    +0.145 HD
ENDBRANCH  14  21
ENDBRANCH   1  17
TORSDOF 2
ENDMDL
MODEL 2
REMARK VINA RESULT:      -6.3      1.800      2.535
REMARK  Name = ZINC000870248439
REMARK  2 active torsions:
REMARK  status: ('A' for Active; 'I' for Inactive)
REMARK    1  A    between atoms: C_2  and  C_4
REMARK    2  A    between atoms: C_7  and  C_8
REMARK                            x       y       z     vdW  Elec       q    Type
REMARK                         _______ _______ _______ _____ _____    ______ ____
ROOT
ATOM      1  C   UNL     1      21.554   5.992  28.827  0.00  0.00    +0.247 C 
ATOM      2  O   UNL     1      21.772   6.975  28.120  0.00  0.00    -0.270 OA
ATOM      3  N   UNL     1      22.571   5.199  29.375  0.00  0.00    -0.297 N 
ATOM      4  C   UNL     1      22.370   4.000  30.192  0.00  0.00    +0.108 C 
ATOM      5  C   UNL     1      23.383   3.865  31.322  0.00  0.00    +0.026 C 
ATOM      6  C   UNL     1      24.848   4.025  30.863  0.00  0.00    -0.025 C 
ATOM      7  C   UNL     1      25.730   4.083  32.137  0.00  0.00    +0.017 C 
ATOM      8  C   UNL     1      27.226   4.205  31.880  0.00  0.00    +0.069 C 
ATOM      9  S   UNL     1      27.879   2.805  30.929  0.00  0.00    -0.161 S 
ATOM     10  C   UNL     1      26.717   2.822  29.537  0.00  0.00    +0.069 C 
ATOM     11  C   UNL     1      25.266   2.803  30.005  0.00  0.00    +0.017 C 
ATOM     12  C   UNL     1      24.937   5.361  30.080  0.00  0.00    +0.026 C 
ATOM     13  C   UNL     1      23.939   5.443  28.924  0.00  0.00    +0.108 C 
ENDROOT
BRANCH   1  17
ATOM     14  C   UNL     1      17.409   5.396  29.663  0.00  0.00    +0.037 A 
ATOM     15  C   UNL     1      18.307   5.546  30.725  0.00  0.00    +0.014 A 
ATOM     16  C   UNL     1      19.674   5.643  30.466  0.00  0.00    +0.014 A 
ATOM     17  C   UNL     1      20.136   5.689  29.147  0.00  0.00    +0.037 A 
ATOM     18  C   UNL     1      19.249   5.450  28.090  0.00  0.00    +0.014 A 
ATOM     19  C   UNL     1      17.884   5.292  28.349  0.00  0.00    +0.014 A 
BRANCH  14  21
ATOM     20  N   UNL     1      15.345   6.497  30.322  0.00  0.00    -0.325 N 
ATOM     21  C   UNL     1      15.945   5.343  29.902  0.00  0.00    +0.242 C 
ATOM     22  O   UNL     1      15.296   4.332  29.682  0.00  0.00    -0.270 OA
ATOM     23  H   UNL     1      14.334   6.483  30.363  0.00  0.00    +0.145 HD
ATOM     24  H   UNL     1      15.798   7.398  30.257  0.00  0.00    +0.145 HD
ENDBRANCH  14  21
ENDBRANCH   1  17
TORSDOF 2
ENDMDL
MODEL 3
REMARK VINA RESULT:      -6.3     28.345     30.831
REMARK  Name = ZINC000870248439
REMARK  2 active torsions:
REMARK  status: ('A' for Active; 'I' for Inactive)
REMARK    1  A    between atoms: C_2  and  C_4
REMARK    2  A    between atoms: C_7  and  C_8
REMARK                            x       y       z     vdW  Elec       q    Type
REMARK                         _______ _______ _______ _____ _____    ______ ____
ROOT
ATOM      1  C   UNL     1      33.367  23.378   9.134  0.00  0.00    +0.247 C 
ATOM      2  O   UNL     1      32.633  24.268   8.707  0.00  0.00    -0.270 OA
ATOM      3  N   UNL     1      33.397  22.987  10.480  0.00  0.00    -0.297 N 
ATOM      4  C   UNL     1      34.274  21.960  11.048  0.00  0.00    +0.108 C 
ATOM      5  C   UNL     1      33.599  21.122  12.127  0.00  0.00    +0.026 C 
ATOM      6  C   UNL     1      32.894  21.963  13.214  0.00  0.00    -0.025 C 
ATOM      7  C   UNL     1      32.080  20.986  14.100  0.00  0.00    +0.017 C 
ATOM      8  C   UNL     1      31.338  21.634  15.260  0.00  0.00    +0.069 C 
ATOM      9  S   UNL     1      32.459  22.478  16.410  0.00  0.00    -0.161 S 
ATOM     10  C   UNL     1      33.375  23.509  15.233  0.00  0.00    +0.069 C 
ATOM     11  C   UNL     1      33.952  22.687  14.086  0.00  0.00    +0.017 C 
ATOM     12  C   UNL     1      31.947  22.950  12.483  0.00  0.00    +0.026 C 
ATOM     13  C   UNL     1      32.667  23.808  11.442  0.00  0.00    +0.108 C 
ENDROOT
BRANCH   1  17
ATOM     14  C   UNL     1      35.658  21.480   6.072  0.00  0.00    +0.037 A 
ATOM     15  C   UNL     1      34.590  20.789   6.655  0.00  0.00    +0.014 A 
ATOM     16  C   UNL     1      33.897  21.362   7.722  0.00  0.00    +0.014 A 
ATOM     17  C   UNL     1      34.206  22.660   8.143  0.00  0.00    +0.037 A 
ATOM     18  C   UNL     1      35.330  23.311   7.620  0.00  0.00    +0.014 A 
ATOM     19  C   UNL     1      36.064  22.716   6.591  0.00  0.00    +0.014 A 
BRANCH  14  21
ATOM     20  N   UNL     1      36.706  21.793   3.902  0.00  0.00    -0.325 N 
ATOM     21  C   UNL     1      36.381  20.921   4.902  0.00  0.00    +0.242 C 
ATOM     22  O   UNL     1      36.718  19.748   4.857  0.00  0.00    -0.270 OA
ATOM     23  H   UNL     1      37.303  21.429   3.170  0.00  0.00    +0.145 HD
ATOM     24  H   UNL     1      36.679  22.796   4.027  0.00  0.00    +0.145 HD
ENDBRANCH  14  21
ENDBRANCH   1  17
TORSDOF 2
ENDMDL
MODEL 4
REMARK VINA RESULT:      -6.2     30.341     32.329
REMARK  Name = ZINC000870248439
REMARK  2 active torsions:
REMARK  status: ('A' for Active; 'I' for Inactive)
REMARK    1  A    between atoms: C_2  and  C_4
REMARK    2  A    between atoms: C_7  and  C_8
REMARK                            x       y       z     vdW  Elec       q    Type
REMARK                         _______ _______ _______ _____ _____    ______ ____
ROOT
ATOM      1  C   UNL     1      35.403  24.706   8.950  0.00  0.00    +0.247 C 
ATOM      2  O   UNL     1      35.821  25.858   9.063  0.00  0.00    -0.270 OA
ATOM      3  N   UNL     1      35.936  23.781   8.042  0.00  0.00    -0.297 N 
ATOM      4  C   UNL     1      35.456  22.412   7.841  0.00  0.00    +0.108 C 
ATOM      5  C   UNL     1      36.577  21.413   7.580  0.00  0.00    +0.026 C 
ATOM      6  C   UNL     1      37.561  21.860   6.478  0.00  0.00    -0.025 C 
ATOM      7  C   UNL     1      38.747  20.863   6.483  0.00  0.00    +0.017 C 
ATOM      8  C   UNL     1      39.813  21.124   5.427  0.00  0.00    +0.069 C 
ATOM      9  S   UNL     1      39.148  21.043   3.742  0.00  0.00    -0.161 S 
ATOM     10  C   UNL     1      37.749  22.183   3.916  0.00  0.00    +0.069 C 
ATOM     11  C   UNL     1      36.857  21.813   5.096  0.00  0.00    +0.017 C 
ATOM     12  C   UNL     1      38.046  23.285   6.850  0.00  0.00    +0.026 C 
ATOM     13  C   UNL     1      36.897  24.273   7.058  0.00  0.00    +0.108 C 
ENDROOT
BRANCH   1  17
ATOM     14  C   UNL     1      32.223  23.783  11.645  0.00  0.00    +0.037 A 
ATOM     15  C   UNL     1      33.546  23.670  12.084  0.00  0.00    +0.014 A 
ATOM     16  C   UNL     1      34.593  23.875  11.185  0.00  0.00    +0.014 A 
ATOM     17  C   UNL     1      34.321  24.286   9.875  0.00  0.00    +0.037 A 
ATOM     18  C   UNL     1      32.999  24.310   9.413  0.00  0.00    +0.014 A 
ATOM     19  C   UNL     1      31.949  24.048  10.297  0.00  0.00    +0.014 A 
BRANCH  14  21
ATOM     20  N   UNL     1      30.587  24.763  13.152  0.00  0.00    -0.325 N 
ATOM     21  C   UNL     1      31.089  23.623  12.589  0.00  0.00    +0.242 C 
ATOM     22  O   UNL     1      30.590  22.530  12.813  0.00  0.00    -0.270 OA
ATOM     23  H   UNL     1      29.740  24.655  13.696  0.00  0.00    +0.145 HD
ATOM     24  H   UNL     1      30.798  25.683  12.792  0.00  0.00    +0.145 HD
ENDBRANCH  14  21
ENDBRANCH   1  17
TORSDOF 2
ENDMDL
MODEL 5
REMARK VINA RESULT:      -6.0     27.333     29.442
REMARK  Name = ZINC000870248439
REMARK  2 active torsions:
REMARK  status: ('A' for Active; 'I' for Inactive)
REMARK    1  A    between atoms: C_2  and  C_4
REMARK    2  A    between atoms: C_7  and  C_8
REMARK                            x       y       z     vdW  Elec       q    Type
REMARK                         _______ _______ _______ _____ _____    ______ ____
ROOT
ATOM      1  C   UNL     1      35.028  21.256  12.459  0.00  0.00    +0.247 C 
ATOM      2  O   UNL     1      35.937  20.565  12.917  0.00  0.00    -0.270 OA
ATOM      3  N   UNL     1      35.068  21.828  11.180  0.00  0.00    -0.297 N 
ATOM      4  C   UNL     1      34.033  22.686  10.599  0.00  0.00    +0.108 C 
ATOM      5  C   UNL     1      33.817  22.446   9.110  0.00  0.00    +0.026 C 
ATOM      6  C   UNL     1      35.122  22.456   8.285  0.00  0.00    -0.025 C 
ATOM      7  C   UNL     1      34.769  21.984   6.852  0.00  0.00    +0.017 C 
ATOM      8  C   UNL     1      35.936  21.963   5.874  0.00  0.00    +0.069 C 
ATOM      9  S   UNL     1      36.678  23.603   5.651  0.00  0.00    -0.161 S 
ATOM     10  C   UNL     1      36.960  24.042   7.388  0.00  0.00    +0.069 C 
ATOM     11  C   UNL     1      35.694  23.896   8.225  0.00  0.00    +0.017 C 
ATOM     12  C   UNL     1      36.096  21.456   8.962  0.00  0.00    +0.026 C 
ATOM     13  C   UNL     1      36.327  21.756  10.443  0.00  0.00    +0.108 C 
ENDROOT
BRANCH   1  17
ATOM     14  C   UNL     1      31.705  21.650  15.111  0.00  0.00    +0.037 A 
ATOM     15  C   UNL     1      31.722  20.600  14.186  0.00  0.00    +0.014 A 
ATOM     16  C   UNL     1      32.754  20.520  13.251  0.00  0.00    +0.014 A 
ATOM     17  C   UNL     1      33.818  21.427  13.301  0.00  0.00    +0.037 A 
ATOM     18  C   UNL     1      33.755  22.526  14.167  0.00  0.00    +0.014 A 
ATOM     19  C   UNL     1      32.691  22.643  15.066  0.00  0.00    +0.014 A 
BRANCH  14  21
ATOM     20  N   UNL     1      30.326  22.981  16.605  0.00  0.00    -0.325 N 
ATOM     21  C   UNL     1      30.650  21.733  16.152  0.00  0.00    +0.242 C 
ATOM     22  O   UNL     1      30.059  20.740  16.547  0.00  0.00    -0.270 OA
ATOM     23  H   UNL     1      29.524  23.037  17.221  0.00  0.00    +0.145 HD
ATOM     24  H   UNL     1      30.600  23.823  16.118  0.00  0.00    +0.145 HD
ENDBRANCH  14  21
ENDBRANCH   1  17
TORSDOF 2
ENDMDL
MODEL 6
REMARK VINA RESULT:      -5.9     31.598     32.754
REMARK  Name = ZINC000870248439
REMARK  2 active torsions:
REMARK  status: ('A' for Active; 'I' for Inactive)
REMARK    1  A    between atoms: C_2  and  C_4
REMARK    2  A    between atoms: C_7  and  C_8
REMARK                            x       y       z     vdW  Elec       q    Type
REMARK                         _______ _______ _______ _____ _____    ______ ____
ROOT
ATOM      1  C   UNL     1      26.261  32.184  16.750  0.00  0.00    +0.247 C 
ATOM      2  O   UNL     1      27.086  31.393  17.206  0.00  0.00    -0.270 OA
ATOM      3  N   UNL     1      26.559  33.522  16.459  0.00  0.00    -0.297 N 
ATOM      4  C   UNL     1      25.610  34.514  15.948  0.00  0.00    +0.108 C 
ATOM      5  C   UNL     1      26.225  35.470  14.934  0.00  0.00    +0.026 C 
ATOM      6  C   UNL     1      27.547  36.110  15.409  0.00  0.00    -0.025 C 
ATOM      7  C   UNL     1      28.154  36.870  14.203  0.00  0.00    +0.017 C 
ATOM      8  C   UNL     1      29.456  37.604  14.493  0.00  0.00    +0.069 C 
ATOM      9  S   UNL     1      29.267  38.863  15.785  0.00  0.00    -0.161 S 
ATOM     10  C   UNL     1      28.491  37.852  17.075  0.00  0.00    +0.069 C 
ATOM     11  C   UNL     1      27.262  37.113  16.557  0.00  0.00    +0.017 C 
ATOM     12  C   UNL     1      28.481  34.953  15.848  0.00  0.00    +0.026 C 
ATOM     13  C   UNL     1      27.850  34.041  16.901  0.00  0.00    +0.108 C 
ENDROOT
BRANCH   1  17
ATOM     14  C   UNL     1      22.458  30.394  15.995  0.00  0.00    +0.037 A 
ATOM     15  C   UNL     1      23.333  30.618  14.927  0.00  0.00    +0.014 A 
ATOM     16  C   UNL     1      24.536  31.290  15.147  0.00  0.00    +0.014 A 
ATOM     17  C   UNL     1      24.909  31.651  16.446  0.00  0.00    +0.037 A 
ATOM     18  C   UNL     1      23.995  31.507  17.498  0.00  0.00    +0.014 A 
ATOM     19  C   UNL     1      22.763  30.888  17.269  0.00  0.00    +0.014 A 
BRANCH  14  21
ATOM     20  N   UNL     1      21.308  28.358  15.330  0.00  0.00    -0.325 N 
ATOM     21  C   UNL     1      21.197  29.636  15.802  0.00  0.00    +0.242 C 
ATOM     22  O   UNL     1      20.112  30.110  16.103  0.00  0.00    -0.270 OA
ATOM     23  H   UNL     1      20.457  27.812  15.319  0.00  0.00    +0.145 HD
ATOM     24  H   UNL     1      22.186  27.857  15.326  0.00  0.00    +0.145 HD
ENDBRANCH  14  21
ENDBRANCH   1  17
TORSDOF 2
ENDMDL
MODEL 7
REMARK VINA RESULT:      -5.9     23.869     25.032
REMARK  Name = ZINC000870248439
REMARK  2 active torsions:
REMARK  status: ('A' for Active; 'I' for Inactive)
REMARK    1  A    between atoms: C_2  and  C_4
REMARK    2  A    between atoms: C_7  and  C_8
REMARK                            x       y       z     vdW  Elec       q    Type
REMARK                         _______ _______ _______ _____ _____    ______ ____
ROOT
ATOM      1  C   UNL     1      34.466  18.826  17.359  0.00  0.00    +0.247 C 
ATOM      2  O   UNL     1      34.175  18.938  18.549  0.00  0.00    -0.270 OA
ATOM      3  N   UNL     1      35.350  17.854  16.873  0.00  0.00    -0.297 N 
ATOM      4  C   UNL     1      35.759  17.697  15.475  0.00  0.00    +0.108 C 
ATOM      5  C   UNL     1      35.913  16.242  15.051  0.00  0.00    +0.026 C 
ATOM      6  C   UNL     1      36.780  15.405  16.016  0.00  0.00    -0.025 C 
ATOM      7  C   UNL     1      36.661  13.923  15.578  0.00  0.00    +0.017 C 
ATOM      8  C   UNL     1      37.486  12.940  16.399  0.00  0.00    +0.069 C 
ATOM      9  S   UNL     1      39.261  13.302  16.328  0.00  0.00    -0.161 S 
ATOM     10  C   UNL     1      39.227  15.057  16.783  0.00  0.00    +0.069 C 
ATOM     11  C   UNL     1      38.261  15.853  15.913  0.00  0.00    +0.017 C 
ATOM     12  C   UNL     1      36.196  15.600  17.439  0.00  0.00    +0.026 C 
ATOM     13  C   UNL     1      36.101  17.070  17.850  0.00  0.00    +0.108 C 
ENDROOT
BRANCH   1  17
ATOM     14  C   UNL     1      32.333  21.538  14.843  0.00  0.00    +0.037 A 
ATOM     15  C   UNL     1      32.141  20.161  14.683  0.00  0.00    +0.014 A 
ATOM     16  C   UNL     1      32.905  19.265  15.433  0.00  0.00    +0.014 A 
ATOM     17  C   UNL     1      33.788  19.742  16.408  0.00  0.00    +0.037 A 
ATOM     18  C   UNL     1      34.044  21.116  16.503  0.00  0.00    +0.014 A 
ATOM     19  C   UNL     1      33.323  22.014  15.712  0.00  0.00    +0.014 A 
BRANCH  14  21
ATOM     20  N   UNL     1      31.432  23.783  14.608  0.00  0.00    -0.325 N 
ATOM     21  C   UNL     1      31.500  22.516  14.099  0.00  0.00    +0.242 C 
ATOM     22  O   UNL     1      30.945  22.220  13.052  0.00  0.00    -0.270 OA
ATOM     23  H   UNL     1      30.964  24.470  14.030  0.00  0.00    +0.145 HD
ATOM     24  H   UNL     1      32.078  24.122  15.306  0.00  0.00    +0.145 HD
ENDBRANCH  14  21
ENDBRANCH   1  17
TORSDOF 2
ENDMDL
MODEL 8
REMARK VINA RESULT:      -5.9     25.389     27.548
REMARK  Name = ZINC000870248439
REMARK  2 active torsions:
REMARK  status: ('A' for Active; 'I' for Inactive)
REMARK    1  A    between atoms: C_2  and  C_4
REMARK    2  A    between atoms: C_7  and  C_8
REMARK                            x       y       z     vdW  Elec       q    Type
REMARK                         _______ _______ _______ _____ _____    ______ ____
ROOT
ATOM      1  C   UNL     1      33.886  18.030  12.879  0.00  0.00    +0.247 C 
ATOM      2  O   UNL     1      33.666  16.853  13.162  0.00  0.00    -0.270 OA
ATOM      3  N   UNL     1      34.746  18.424  11.845  0.00  0.00    -0.297 N 
ATOM      4  C   UNL     1      35.071  19.807  11.489  0.00  0.00    +0.108 C 
ATOM      5  C   UNL     1      35.209  20.026   9.987  0.00  0.00    +0.026 C 
ATOM      6  C   UNL     1      36.139  19.005   9.296  0.00  0.00    -0.025 C 
ATOM      7  C   UNL     1      36.004  19.217   7.767  0.00  0.00    +0.017 C 
ATOM      8  C   UNL     1      36.883  18.315   6.911  0.00  0.00    +0.069 C 
ATOM      9  S   UNL     1      38.649  18.546   7.256  0.00  0.00    -0.161 S 
ATOM     10  C   UNL     1      38.630  18.346   9.058  0.00  0.00    +0.069 C 
ATOM     11  C   UNL     1      37.608  19.261   9.722  0.00  0.00    +0.017 C 
ATOM     12  C   UNL     1      35.641  17.592   9.695  0.00  0.00    +0.026 C 
ATOM     13  C   UNL     1      35.560  17.392  11.209  0.00  0.00    +0.108 C 
ENDROOT
BRANCH   1  17
ATOM     14  C   UNL     1      31.598  20.774  15.218  0.00  0.00    +0.037 A 
ATOM     15  C   UNL     1      31.349  20.671  13.845  0.00  0.00    +0.014 A 
ATOM     16  C   UNL     1      32.155  19.851  13.055  0.00  0.00    +0.014 A 
ATOM     17  C   UNL     1      33.145  19.060  13.649  0.00  0.00    +0.037 A 
ATOM     18  C   UNL     1      33.451  19.231  15.005  0.00  0.00    +0.014 A 
ATOM     19  C   UNL     1      32.684  20.097  15.788  0.00  0.00    +0.014 A 
BRANCH  14  21
ATOM     20  N   UNL     1      31.048  22.919  16.218  0.00  0.00    -0.325 N 
ATOM     21  C   UNL     1      30.726  21.597  16.092  0.00  0.00    +0.242 C 
ATOM     22  O   UNL     1      29.735  21.129  16.633  0.00  0.00    -0.270 OA
ATOM     23  H   UNL     1      30.379  23.494  16.715  0.00  0.00    +0.145 HD
ATOM     24  H   UNL     1      31.687  23.383  15.589  0.00  0.00    +0.145 HD
ENDBRANCH  14  21
ENDBRANCH   1  17
TORSDOF 2
ENDMDL
MODEL 9
REMARK VINA RESULT:      -5.9     23.569     25.119
REMARK  Name = ZINC000870248439
REMARK  2 active torsions:
REMARK  status: ('A' for Active; 'I' for Inactive)
REMARK    1  A    between atoms: C_2  and  C_4
REMARK    2  A    between atoms: C_7  and  C_8
REMARK                            x       y       z     vdW  Elec       q    Type
REMARK                         _______ _______ _______ _____ _____    ______ ____
ROOT
ATOM      1  C   UNL     1      35.105  17.265  13.953  0.00  0.00    +0.247 C 
ATOM      2  O   UNL     1      36.181  17.405  14.534  0.00  0.00    -0.270 OA
ATOM      3  N   UNL     1      34.713  16.066  13.343  0.00  0.00    -0.297 N 
ATOM      4  C   UNL     1      33.463  15.853  12.609  0.00  0.00    +0.108 C 
ATOM      5  C   UNL     1      32.861  14.472  12.832  0.00  0.00    +0.026 C 
ATOM      6  C   UNL     1      33.866  13.318  12.629  0.00  0.00    -0.025 C 
ATOM      7  C   UNL     1      33.176  12.013  13.100  0.00  0.00    +0.017 C 
ATOM      8  C   UNL     1      34.010  10.749  12.941  0.00  0.00    +0.069 C 
ATOM      9  S   UNL     1      34.463  10.435  11.213  0.00  0.00    -0.161 S 
ATOM     10  C   UNL     1      35.176  12.048  10.792  0.00  0.00    +0.069 C 
ATOM     11  C   UNL     1      34.227  13.194  11.126  0.00  0.00    +0.017 C 
ATOM     12  C   UNL     1      35.102  13.629  13.514  0.00  0.00    +0.026 C 
ATOM     13  C   UNL     1      35.709  15.004  13.230  0.00  0.00    +0.108 C 
ENDROOT
BRANCH   1  17
ATOM     14  C   UNL     1      32.204  20.397  13.996  0.00  0.00    +0.037 A 
ATOM     15  C   UNL     1      32.887  20.113  12.808  0.00  0.00    +0.014 A 
ATOM     16  C   UNL     1      33.905  19.159  12.807  0.00  0.00    +0.014 A 
ATOM     17  C   UNL     1      34.175  18.421  13.965  0.00  0.00    +0.037 A 
ATOM     18  C   UNL     1      33.555  18.768  15.172  0.00  0.00    +0.014 A 
ATOM     19  C   UNL     1      32.576  19.765  15.189  0.00  0.00    +0.014 A 
BRANCH  14  21
ATOM     20  N   UNL     1      30.406  21.506  15.198  0.00  0.00    -0.325 N 
ATOM     21  C   UNL     1      31.082  21.368  14.018  0.00  0.00    +0.242 C 
ATOM     22  O   UNL     1      30.808  22.053  13.044  0.00  0.00    -0.270 OA
ATOM     23  H   UNL     1      29.726  22.255  15.236  0.00  0.00    +0.145 HD
ATOM     24  H   UNL     1      30.770  21.159  16.074  0.00  0.00    +0.145 HD
ENDBRANCH  14  21
ENDBRANCH   1  17
TORSDOF 2
ENDMDL
