MODEL 1
REMARK VINA RESULT:      -6.9      0.000      0.000
REMARK  Name = ZINC000583127796
REMARK  2 active torsions:
REMARK  status: ('A' for Active; 'I' for Inactive)
REMARK    1  A    between atoms: C_2  and  C_4
REMARK    2  A    between atoms: C_7  and  C_8
REMARK                            x       y       z     vdW  Elec       q    Type
REMARK                         _______ _______ _______ _____ _____    ______ ____
ROOT
ATOM      1  C   UNL     1      31.877  17.159  15.958  0.00  0.00    +0.247 C 
ATOM      2  O   UNL     1      33.080  16.912  15.892  0.00  0.00    -0.270 OA
ATOM      3  N   UNL     1      31.377  18.366  16.474  0.00  0.00    -0.297 N 
ATOM      4  C   UNL     1      29.967  18.748  16.585  0.00  0.00    +0.108 C 
ATOM      5  C   UNL     1      29.673  20.076  15.911  0.00  0.00    +0.020 C 
ATOM      6  C   UNL     1      30.637  21.157  16.364  0.00  0.00    +0.011 C 
ATOM      7  C   UNL     1      32.122  20.739  16.222  0.00  0.00    -0.004 C 
ATOM      8  C   UNL     1      32.970  21.872  16.838  0.00  0.00    +0.020 C 
ATOM      9  C   UNL     1      34.363  21.850  16.246  0.00  0.00    +0.070 C 
ATOM     10  S   UNL     1      34.092  21.506  14.501  0.00  0.00    -0.160 S 
ATOM     11  C   UNL     1      32.530  20.614  14.735  0.00  0.00    +0.077 C 
ATOM     12  C   UNL     1      32.330  19.382  16.950  0.00  0.00    +0.115 C 
ENDROOT
BRANCH   1  16
ATOM     13  C   UNL     1      29.016  14.591  14.081  0.00  0.00    +0.037 A 
ATOM     14  C   UNL     1      28.960  14.779  15.467  0.00  0.00    +0.014 A 
ATOM     15  C   UNL     1      29.954  15.520  16.110  0.00  0.00    +0.014 A 
ATOM     16  C   UNL     1      30.947  16.160  15.361  0.00  0.00    +0.037 A 
ATOM     17  C   UNL     1      31.061  15.885  13.991  0.00  0.00    +0.014 A 
ATOM     18  C   UNL     1      30.103  15.091  13.355  0.00  0.00    +0.014 A 
BRANCH  13  20
ATOM     19  N   UNL     1      28.329  12.942  12.432  0.00  0.00    -0.325 N 
ATOM     20  C   UNL     1      27.939  13.869  13.357  0.00  0.00    +0.242 C 
ATOM     21  O   UNL     1      26.760  14.057  13.616  0.00  0.00    -0.270 OA
ATOM     22  H   UNL     1      27.589  12.369  12.042  0.00  0.00    +0.145 HD
ATOM     23  H   UNL     1      29.268  12.573  12.402  0.00  0.00    +0.145 HD
ENDBRANCH  13  20
ENDBRANCH   1  16
TORSDOF 2
ENDMDL
MODEL 2
REMARK VINA RESULT:      -6.8      1.207      1.702
REMARK  Name = ZINC000583127796
REMARK  2 active torsions:
REMARK  status: ('A' for Active; 'I' for Inactive)
REMARK    1  A    between atoms: C_2  and  C_4
REMARK    2  A    between atoms: C_7  and  C_8
REMARK                            x       y       z     vdW  Elec       q    Type
REMARK                         _______ _______ _______ _____ _____    ______ ____
ROOT
ATOM      1  C   UNL     1      31.919  16.658  16.253  0.00  0.00    +0.247 C 
ATOM      2  O   UNL     1      32.900  15.939  16.434  0.00  0.00    -0.270 OA
ATOM      3  N   UNL     1      31.864  17.991  16.693  0.00  0.00    -0.297 N 
ATOM      4  C   UNL     1      30.745  18.921  16.517  0.00  0.00    +0.108 C 
ATOM      5  C   UNL     1      31.168  20.213  15.842  0.00  0.00    +0.020 C 
ATOM      6  C   UNL     1      32.375  20.830  16.524  0.00  0.00    +0.011 C 
ATOM      7  C   UNL     1      33.552  19.835  16.683  0.00  0.00    -0.004 C 
ATOM      8  C   UNL     1      34.644  20.557  17.503  0.00  0.00    +0.020 C 
ATOM      9  C   UNL     1      35.994  19.935  17.217  0.00  0.00    +0.070 C 
ATOM     10  S   UNL     1      35.971  19.634  15.443  0.00  0.00    -0.160 S 
ATOM     11  C   UNL     1      34.168  19.471  15.313  0.00  0.00    +0.077 C 
ATOM     12  C   UNL     1      33.030  18.555  17.393  0.00  0.00    +0.115 C 
ENDROOT
BRANCH   1  16
ATOM     13  C   UNL     1      28.859  14.681  14.012  0.00  0.00    +0.037 A 
ATOM     14  C   UNL     1      29.883  15.345  13.330  0.00  0.00    +0.014 A 
ATOM     15  C   UNL     1      30.824  16.092  14.043  0.00  0.00    +0.014 A 
ATOM     16  C   UNL     1      30.806  16.093  15.441  0.00  0.00    +0.037 A 
ATOM     17  C   UNL     1      29.721  15.515  16.116  0.00  0.00    +0.014 A 
ATOM     18  C   UNL     1      28.742  14.820  15.400  0.00  0.00    +0.014 A 
BRANCH  13  20
ATOM     19  N   UNL     1      28.396  12.913  12.408  0.00  0.00    -0.325 N 
ATOM     20  C   UNL     1      27.884  13.821  13.291  0.00  0.00    +0.242 C 
ATOM     21  O   UNL     1      26.686  13.888  13.518  0.00  0.00    -0.270 OA
ATOM     22  H   UNL     1      27.733  12.250  12.023  0.00  0.00    +0.145 HD
ATOM     23  H   UNL     1      29.371  12.648  12.411  0.00  0.00    +0.145 HD
ENDBRANCH  13  20
ENDBRANCH   1  16
TORSDOF 2
ENDMDL
MODEL 3
REMARK VINA RESULT:      -6.6      1.219      1.316
REMARK  Name = ZINC000583127796
REMARK  2 active torsions:
REMARK  status: ('A' for Active; 'I' for Inactive)
REMARK    1  A    between atoms: C_2  and  C_4
REMARK    2  A    between atoms: C_7  and  C_8
REMARK                            x       y       z     vdW  Elec       q    Type
REMARK                         _______ _______ _______ _____ _____    ______ ____
ROOT
ATOM      1  C   UNL     1      31.653  17.614  16.200  0.00  0.00    +0.247 C 
ATOM      2  O   UNL     1      32.530  17.270  16.991  0.00  0.00    -0.270 OA
ATOM      3  N   UNL     1      31.339  18.961  15.956  0.00  0.00    -0.297 N 
ATOM      4  C   UNL     1      30.319  19.464  15.031  0.00  0.00    +0.108 C 
ATOM      5  C   UNL     1      30.885  20.455  14.030  0.00  0.00    +0.020 C 
ATOM      6  C   UNL     1      31.679  21.550  14.718  0.00  0.00    +0.011 C 
ATOM      7  C   UNL     1      32.763  20.997  15.677  0.00  0.00    -0.004 C 
ATOM      8  C   UNL     1      33.391  22.211  16.395  0.00  0.00    +0.020 C 
ATOM      9  C   UNL     1      34.783  21.860  16.873  0.00  0.00    +0.070 C 
ATOM     10  S   UNL     1      35.483  20.901  15.520  0.00  0.00    -0.160 S 
ATOM     11  C   UNL     1      33.893  20.287  14.897  0.00  0.00    +0.077 C 
ATOM     12  C   UNL     1      32.092  20.006  16.668  0.00  0.00    +0.115 C 
ENDROOT
BRANCH   1  16
ATOM     13  C   UNL     1      29.617  14.804  13.699  0.00  0.00    +0.037 A 
ATOM     14  C   UNL     1      29.119  15.064  14.981  0.00  0.00    +0.014 A 
ATOM     15  C   UNL     1      29.834  15.889  15.852  0.00  0.00    +0.014 A 
ATOM     16  C   UNL     1      30.992  16.538  15.411  0.00  0.00    +0.037 A 
ATOM     17  C   UNL     1      31.543  16.195  14.168  0.00  0.00    +0.014 A 
ATOM     18  C   UNL     1      30.861  15.319  13.319  0.00  0.00    +0.014 A 
BRANCH  13  20
ATOM     19  N   UNL     1      27.881  13.167  13.232  0.00  0.00    -0.325 N 
ATOM     20  C   UNL     1      28.847  13.989  12.725  0.00  0.00    +0.242 C 
ATOM     21  O   UNL     1      29.034  14.090  11.521  0.00  0.00    -0.270 OA
ATOM     22  H   UNL     1      27.281  12.718  12.550  0.00  0.00    +0.145 HD
ATOM     23  H   UNL     1      27.521  13.273  14.170  0.00  0.00    +0.145 HD
ENDBRANCH  13  20
ENDBRANCH   1  16
TORSDOF 2
ENDMDL
MODEL 4
REMARK VINA RESULT:      -6.6      5.546      7.412
REMARK  Name = ZINC000583127796
REMARK  2 active torsions:
REMARK  status: ('A' for Active; 'I' for Inactive)
REMARK    1  A    between atoms: C_2  and  C_4
REMARK    2  A    between atoms: C_7  and  C_8
REMARK                            x       y       z     vdW  Elec       q    Type
REMARK                         _______ _______ _______ _____ _____    ______ ____
ROOT
ATOM      1  C   UNL     1      33.243  22.057  12.896  0.00  0.00    +0.247 C 
ATOM      2  O   UNL     1      33.913  21.091  12.536  0.00  0.00    -0.270 OA
ATOM      3  N   UNL     1      33.285  23.297  12.237  0.00  0.00    -0.297 N 
ATOM      4  C   UNL     1      32.520  24.496  12.588  0.00  0.00    +0.108 C 
ATOM      5  C   UNL     1      31.715  25.033  11.418  0.00  0.00    +0.020 C 
ATOM      6  C   UNL     1      32.574  25.196  10.178  0.00  0.00    +0.011 C 
ATOM      7  C   UNL     1      33.360  23.912   9.814  0.00  0.00    -0.004 C 
ATOM      8  C   UNL     1      34.279  24.267   8.626  0.00  0.00    +0.020 C 
ATOM      9  C   UNL     1      34.622  23.014   7.850  0.00  0.00    +0.070 C 
ATOM     10  S   UNL     1      33.078  22.090   7.806  0.00  0.00    -0.160 S 
ATOM     11  C   UNL     1      32.409  22.788   9.342  0.00  0.00    +0.077 C 
ATOM     12  C   UNL     1      34.160  23.447  11.062  0.00  0.00    +0.115 C 
ENDROOT
BRANCH   1  16
ATOM     13  C   UNL     1      30.320  21.767  16.006  0.00  0.00    +0.037 A 
ATOM     14  C   UNL     1      31.650  22.040  16.342  0.00  0.00    +0.014 A 
ATOM     15  C   UNL     1      32.637  22.023  15.353  0.00  0.00    +0.014 A 
ATOM     16  C   UNL     1      32.283  21.837  14.013  0.00  0.00    +0.037 A 
ATOM     17  C   UNL     1      30.970  21.461  13.693  0.00  0.00    +0.014 A 
ATOM     18  C   UNL     1      29.993  21.414  14.691  0.00  0.00    +0.014 A 
BRANCH  13  20
ATOM     19  N   UNL     1      28.443  22.956  16.991  0.00  0.00    -0.325 N 
ATOM     20  C   UNL     1      29.237  21.845  17.020  0.00  0.00    +0.242 C 
ATOM     21  O   UNL     1      29.034  20.934  17.807  0.00  0.00    -0.270 OA
ATOM     22  H   UNL     1      27.633  22.936  17.601  0.00  0.00    +0.145 HD
ATOM     23  H   UNL     1      28.409  23.575  16.193  0.00  0.00    +0.145 HD
ENDBRANCH  13  20
ENDBRANCH   1  16
TORSDOF 2
ENDMDL
MODEL 5
REMARK VINA RESULT:      -6.6      4.784      7.026
REMARK  Name = ZINC000583127796
REMARK  2 active torsions:
REMARK  status: ('A' for Active; 'I' for Inactive)
REMARK    1  A    between atoms: C_2  and  C_4
REMARK    2  A    between atoms: C_7  and  C_8
REMARK                            x       y       z     vdW  Elec       q    Type
REMARK                         _______ _______ _______ _____ _____    ______ ____
ROOT
ATOM      1  C   UNL     1      33.176  22.121  12.895  0.00  0.00    +0.247 C 
ATOM      2  O   UNL     1      33.966  21.239  12.564  0.00  0.00    -0.270 OA
ATOM      3  N   UNL     1      33.131  23.374  12.263  0.00  0.00    -0.297 N 
ATOM      4  C   UNL     1      32.223  24.479  12.584  0.00  0.00    +0.108 C 
ATOM      5  C   UNL     1      31.444  24.958  11.372  0.00  0.00    +0.020 C 
ATOM      6  C   UNL     1      32.361  25.242  10.196  0.00  0.00    +0.011 C 
ATOM      7  C   UNL     1      33.299  24.055   9.863  0.00  0.00    -0.004 C 
ATOM      8  C   UNL     1      34.253  24.533   8.747  0.00  0.00    +0.020 C 
ATOM      9  C   UNL     1      34.775  23.342   7.973  0.00  0.00    +0.070 C 
ATOM     10  S   UNL     1      33.343  22.265   7.807  0.00  0.00    -0.160 S 
ATOM     11  C   UNL     1      32.505  22.851   9.307  0.00  0.00    +0.077 C 
ATOM     12  C   UNL     1      34.060  23.644  11.154  0.00  0.00    +0.115 C 
ENDROOT
BRANCH   1  16
ATOM     13  C   UNL     1      30.496  20.795  15.954  0.00  0.00    +0.037 A 
ATOM     14  C   UNL     1      30.070  20.783  14.621  0.00  0.00    +0.014 A 
ATOM     15  C   UNL     1      30.888  21.320  13.624  0.00  0.00    +0.014 A 
ATOM     16  C   UNL     1      32.173  21.774  13.940  0.00  0.00    +0.037 A 
ATOM     17  C   UNL     1      32.554  21.881  15.285  0.00  0.00    +0.014 A 
ATOM     18  C   UNL     1      31.710  21.403  16.291  0.00  0.00    +0.014 A 
BRANCH  13  20
ATOM     19  N   UNL     1      29.664  18.804  17.075  0.00  0.00    -0.325 N 
ATOM     20  C   UNL     1      29.682  20.170  17.028  0.00  0.00    +0.242 C 
ATOM     21  O   UNL     1      29.099  20.845  17.862  0.00  0.00    -0.270 OA
ATOM     22  H   UNL     1      29.213  18.396  17.885  0.00  0.00    +0.145 HD
ATOM     23  H   UNL     1      30.345  18.239  16.587  0.00  0.00    +0.145 HD
ENDBRANCH  13  20
ENDBRANCH   1  16
TORSDOF 2
ENDMDL
MODEL 6
REMARK VINA RESULT:      -6.5      3.668      6.391
REMARK  Name = ZINC000583127796
REMARK  2 active torsions:
REMARK  status: ('A' for Active; 'I' for Inactive)
REMARK    1  A    between atoms: C_2  and  C_4
REMARK    2  A    between atoms: C_7  and  C_8
REMARK                            x       y       z     vdW  Elec       q    Type
REMARK                         _______ _______ _______ _____ _____    ______ ____
ROOT
ATOM      1  C   UNL     1      31.873  20.303  16.061  0.00  0.00    +0.247 C 
ATOM      2  O   UNL     1      32.860  20.712  16.670  0.00  0.00    -0.270 OA
ATOM      3  N   UNL     1      31.930  19.231  15.156  0.00  0.00    -0.297 N 
ATOM      4  C   UNL     1      30.809  18.673  14.394  0.00  0.00    +0.108 C 
ATOM      5  C   UNL     1      30.652  17.178  14.607  0.00  0.00    +0.020 C 
ATOM      6  C   UNL     1      31.962  16.444  14.393  0.00  0.00    +0.011 C 
ATOM      7  C   UNL     1      33.129  17.038  15.221  0.00  0.00    -0.004 C 
ATOM      8  C   UNL     1      34.409  16.282  14.803  0.00  0.00    +0.020 C 
ATOM      9  C   UNL     1      35.435  16.358  15.913  0.00  0.00    +0.070 C 
ATOM     10  S   UNL     1      34.471  16.139  17.417  0.00  0.00    -0.160 S 
ATOM     11  C   UNL     1      32.923  16.796  16.734  0.00  0.00    +0.077 C 
ATOM     12  C   UNL     1      33.221  18.561  14.930  0.00  0.00    +0.115 C 
ENDROOT
BRANCH   1  16
ATOM     13  C   UNL     1      28.288  22.255  17.343  0.00  0.00    +0.037 A 
ATOM     14  C   UNL     1      28.407  20.870  17.504  0.00  0.00    +0.014 A 
ATOM     15  C   UNL     1      29.520  20.202  16.987  0.00  0.00    +0.014 A 
ATOM     16  C   UNL     1      30.563  20.925  16.401  0.00  0.00    +0.037 A 
ATOM     17  C   UNL     1      30.394  22.294  16.147  0.00  0.00    +0.014 A 
ATOM     18  C   UNL     1      29.252  22.955  16.608  0.00  0.00    +0.014 A 
BRANCH  13  20
ATOM     19  N   UNL     1      27.385  23.624  19.137  0.00  0.00    -0.325 N 
ATOM     20  C   UNL     1      27.155  23.006  17.941  0.00  0.00    +0.242 C 
ATOM     21  O   UNL     1      26.083  23.109  17.363  0.00  0.00    -0.270 OA
ATOM     22  H   UNL     1      26.648  24.236  19.467  0.00  0.00    +0.145 HD
ATOM     23  H   UNL     1      28.318  23.788  19.488  0.00  0.00    +0.145 HD
ENDBRANCH  13  20
ENDBRANCH   1  16
TORSDOF 2
ENDMDL
MODEL 7
REMARK VINA RESULT:      -6.4      3.435      6.573
REMARK  Name = ZINC000583127796
REMARK  2 active torsions:
REMARK  status: ('A' for Active; 'I' for Inactive)
REMARK    1  A    between atoms: C_2  and  C_4
REMARK    2  A    between atoms: C_7  and  C_8
REMARK                            x       y       z     vdW  Elec       q    Type
REMARK                         _______ _______ _______ _____ _____    ______ ____
ROOT
ATOM      1  C   UNL     1      30.918  17.133  15.798  0.00  0.00    +0.247 C 
ATOM      2  O   UNL     1      30.070  16.512  15.159  0.00  0.00    -0.270 OA
ATOM      3  N   UNL     1      32.087  16.530  16.291  0.00  0.00    -0.297 N 
ATOM      4  C   UNL     1      33.152  17.188  17.053  0.00  0.00    +0.108 C 
ATOM      5  C   UNL     1      34.519  16.995  16.421  0.00  0.00    +0.020 C 
ATOM      6  C   UNL     1      34.794  15.533  16.124  0.00  0.00    +0.011 C 
ATOM      7  C   UNL     1      33.665  14.861  15.303  0.00  0.00    -0.004 C 
ATOM      8  C   UNL     1      34.017  13.362  15.195  0.00  0.00    +0.020 C 
ATOM      9  C   UNL     1      33.342  12.763  13.979  0.00  0.00    +0.070 C 
ATOM     10  S   UNL     1      33.520  14.028  12.712  0.00  0.00    -0.160 S 
ATOM     11  C   UNL     1      33.603  15.426  13.865  0.00  0.00    +0.077 C 
ATOM     12  C   UNL     1      32.312  15.099  16.030  0.00  0.00    +0.115 C 
ENDROOT
BRANCH   1  16
ATOM     13  C   UNL     1      29.955  21.283  16.181  0.00  0.00    +0.037 A 
ATOM     14  C   UNL     1      30.557  20.828  15.003  0.00  0.00    +0.014 A 
ATOM     15  C   UNL     1      30.983  19.501  14.907  0.00  0.00    +0.014 A 
ATOM     16  C   UNL     1      30.716  18.601  15.944  0.00  0.00    +0.037 A 
ATOM     17  C   UNL     1      30.209  19.082  17.159  0.00  0.00    +0.014 A 
ATOM     18  C   UNL     1      29.840  20.425  17.281  0.00  0.00    +0.014 A 
BRANCH  13  20
ATOM     19  N   UNL     1      30.201  23.668  15.774  0.00  0.00    -0.325 N 
ATOM     20  C   UNL     1      29.427  22.667  16.291  0.00  0.00    +0.242 C 
ATOM     21  O   UNL     1      28.328  22.894  16.773  0.00  0.00    -0.270 OA
ATOM     22  H   UNL     1      29.772  24.585  15.740  0.00  0.00    +0.145 HD
ATOM     23  H   UNL     1      30.961  23.485  15.133  0.00  0.00    +0.145 HD
ENDBRANCH  13  20
ENDBRANCH   1  16
TORSDOF 2
ENDMDL
MODEL 8
REMARK VINA RESULT:      -6.4      5.910      8.438
REMARK  Name = ZINC000583127796
REMARK  2 active torsions:
REMARK  status: ('A' for Active; 'I' for Inactive)
REMARK    1  A    between atoms: C_2  and  C_4
REMARK    2  A    between atoms: C_7  and  C_8
REMARK                            x       y       z     vdW  Elec       q    Type
REMARK                         _______ _______ _______ _____ _____    ______ ____
ROOT
ATOM      1  C   UNL     1      27.959  21.895  17.881  0.00  0.00    +0.247 C 
ATOM      2  O   UNL     1      27.567  20.825  17.419  0.00  0.00    -0.270 OA
ATOM      3  N   UNL     1      29.315  22.261  17.905  0.00  0.00    -0.297 N 
ATOM      4  C   UNL     1      29.870  23.512  18.427  0.00  0.00    +0.108 C 
ATOM      5  C   UNL     1      30.728  24.236  17.403  0.00  0.00    +0.020 C 
ATOM      6  C   UNL     1      31.766  23.312  16.794  0.00  0.00    +0.011 C 
ATOM      7  C   UNL     1      31.155  22.004  16.233  0.00  0.00    -0.004 C 
ATOM      8  C   UNL     1      32.333  21.118  15.772  0.00  0.00    +0.020 C 
ATOM      9  C   UNL     1      31.857  20.139  14.721  0.00  0.00    +0.070 C 
ATOM     10  S   UNL     1      30.744  21.108  13.691  0.00  0.00    -0.160 S 
ATOM     11  C   UNL     1      30.275  22.282  14.993  0.00  0.00    +0.077 C 
ATOM     12  C   UNL     1      30.310  21.330  17.349  0.00  0.00    +0.115 C 
ENDROOT
BRANCH   1  16
ATOM     13  C   UNL     1      25.114  24.922  18.903  0.00  0.00    +0.037 A 
ATOM     14  C   UNL     1      26.142  24.621  19.802  0.00  0.00    +0.014 A 
ATOM     15  C   UNL     1      27.009  23.558  19.537  0.00  0.00    +0.014 A 
ATOM     16  C   UNL     1      26.917  22.862  18.328  0.00  0.00    +0.037 A 
ATOM     17  C   UNL     1      25.825  23.096  17.480  0.00  0.00    +0.014 A 
ATOM     18  C   UNL     1      24.918  24.118  17.774  0.00  0.00    +0.014 A 
BRANCH  13  20
ATOM     19  N   UNL     1      23.417  26.455  18.075  0.00  0.00    -0.325 N 
ATOM     20  C   UNL     1      24.219  26.089  19.119  0.00  0.00    +0.242 C 
ATOM     21  O   UNL     1      24.165  26.659  20.198  0.00  0.00    -0.270 OA
ATOM     22  H   UNL     1      22.724  27.165  18.279  0.00  0.00    +0.145 HD
ATOM     23  H   UNL     1      23.240  25.843  17.291  0.00  0.00    +0.145 HD
ENDBRANCH  13  20
ENDBRANCH   1  16
TORSDOF 2
ENDMDL
MODEL 9
REMARK VINA RESULT:      -6.3      7.199      9.389
REMARK  Name = ZINC000583127796
REMARK  2 active torsions:
REMARK  status: ('A' for Active; 'I' for Inactive)
REMARK    1  A    between atoms: C_2  and  C_4
REMARK    2  A    between atoms: C_7  and  C_8
REMARK                            x       y       z     vdW  Elec       q    Type
REMARK                         _______ _______ _______ _____ _____    ______ ____
ROOT
ATOM      1  C   UNL     1      26.495  24.096  19.293  0.00  0.00    +0.247 C 
ATOM      2  O   UNL     1      26.898  24.609  20.335  0.00  0.00    -0.270 OA
ATOM      3  N   UNL     1      25.232  24.379  18.747  0.00  0.00    -0.297 N 
ATOM      4  C   UNL     1      24.673  23.824  17.512  0.00  0.00    +0.108 C 
ATOM      5  C   UNL     1      24.222  24.904  16.544  0.00  0.00    +0.020 C 
ATOM      6  C   UNL     1      23.320  25.918  17.223  0.00  0.00    +0.011 C 
ATOM      7  C   UNL     1      23.938  26.505  18.516  0.00  0.00    -0.004 C 
ATOM      8  C   UNL     1      22.864  27.410  19.158  0.00  0.00    +0.020 C 
ATOM      9  C   UNL     1      23.527  28.443  20.044  0.00  0.00    +0.070 C 
ATOM     10  S   UNL     1      24.979  28.954  19.111  0.00  0.00    -0.160 S 
ATOM     11  C   UNL     1      25.162  27.395  18.199  0.00  0.00    +0.077 C 
ATOM     12  C   UNL     1      24.355  25.332  19.446  0.00  0.00    +0.115 C 
ENDROOT
BRANCH   1  16
ATOM     13  C   UNL     1      29.216  21.350  17.460  0.00  0.00    +0.037 A 
ATOM     14  C   UNL     1      29.708  22.548  17.989  0.00  0.00    +0.014 A 
ATOM     15  C   UNL     1      28.821  23.506  18.486  0.00  0.00    +0.014 A 
ATOM     16  C   UNL     1      27.452  23.228  18.551  0.00  0.00    +0.037 A 
ATOM     17  C   UNL     1      26.953  22.075  17.927  0.00  0.00    +0.014 A 
ATOM     18  C   UNL     1      27.834  21.144  17.372  0.00  0.00    +0.014 A 
BRANCH  13  20
ATOM     19  N   UNL     1      29.648  19.004  16.987  0.00  0.00    -0.325 N 
ATOM     20  C   UNL     1      30.134  20.282  16.989  0.00  0.00    +0.242 C 
ATOM     21  O   UNL     1      31.253  20.540  16.573  0.00  0.00    -0.270 OA
ATOM     22  H   UNL     1      30.237  18.309  16.544  0.00  0.00    +0.145 HD
ATOM     23  H   UNL     1      28.660  18.804  17.055  0.00  0.00    +0.145 HD
ENDBRANCH  13  20
ENDBRANCH   1  16
TORSDOF 2
ENDMDL
