MODEL 1
REMARK VINA RESULT:      -6.9      0.000      0.000
REMARK  Name = ZINC000583127796
REMARK  2 active torsions:
REMARK  status: ('A' for Active; 'I' for Inactive)
REMARK    1  A    between atoms: C_2  and  C_4
REMARK    2  A    between atoms: C_7  and  C_8
REMARK                            x       y       z     vdW  Elec       q    Type
REMARK                         _______ _______ _______ _____ _____    ______ ____
ROOT
ATOM      1  C   UNL     1      30.281  17.284  14.120  0.00  0.00    +0.247 C 
ATOM      2  O   UNL     1      29.766  16.432  13.398  0.00  0.00    -0.270 OA
ATOM      3  N   UNL     1      31.659  17.320  14.386  0.00  0.00    -0.297 N 
ATOM      4  C   UNL     1      32.359  18.297  15.224  0.00  0.00    +0.108 C 
ATOM      5  C   UNL     1      33.501  18.977  14.490  0.00  0.00    +0.020 C 
ATOM      6  C   UNL     1      34.421  17.966  13.831  0.00  0.00    +0.011 C 
ATOM      7  C   UNL     1      33.663  16.954  12.936  0.00  0.00    -0.004 C 
ATOM      8  C   UNL     1      34.700  15.920  12.447  0.00  0.00    +0.020 C 
ATOM      9  C   UNL     1      34.219  15.280  11.162  0.00  0.00    +0.070 C 
ATOM     10  S   UNL     1      33.507  16.646  10.232  0.00  0.00    -0.160 S 
ATOM     11  C   UNL     1      33.073  17.644  11.684  0.00  0.00    +0.077 C 
ATOM     12  C   UNL     1      32.527  16.302  13.773  0.00  0.00    +0.115 C 
ENDROOT
BRANCH   1  16
ATOM     13  C   UNL     1      28.008  20.470  15.847  0.00  0.00    +0.037 A 
ATOM     14  C   UNL     1      27.602  19.149  16.060  0.00  0.00    +0.014 A 
ATOM     15  C   UNL     1      28.263  18.104  15.409  0.00  0.00    +0.014 A 
ATOM     16  C   UNL     1      29.393  18.367  14.629  0.00  0.00    +0.037 A 
ATOM     17  C   UNL     1      29.733  19.695  14.334  0.00  0.00    +0.014 A 
ATOM     18  C   UNL     1      29.033  20.745  14.934  0.00  0.00    +0.014 A 
BRANCH  13  20
ATOM     19  N   UNL     1      28.199  22.402  17.312  0.00  0.00    -0.325 N 
ATOM     20  C   UNL     1      27.374  21.598  16.577  0.00  0.00    +0.242 C 
ATOM     21  O   UNL     1      26.178  21.827  16.481  0.00  0.00    -0.270 OA
ATOM     22  H   UNL     1      27.774  23.237  17.696  0.00  0.00    +0.145 HD
ATOM     23  H   UNL     1      29.201  22.406  17.184  0.00  0.00    +0.145 HD
ENDBRANCH  13  20
ENDBRANCH   1  16
TORSDOF 2
ENDMDL
MODEL 2
REMARK VINA RESULT:      -6.7      1.313      1.730
REMARK  Name = ZINC000583127796
REMARK  2 active torsions:
REMARK  status: ('A' for Active; 'I' for Inactive)
REMARK    1  A    between atoms: C_2  and  C_4
REMARK    2  A    between atoms: C_7  and  C_8
REMARK                            x       y       z     vdW  Elec       q    Type
REMARK                         _______ _______ _______ _____ _____    ______ ____
ROOT
ATOM      1  C   UNL     1      30.831  16.680  13.737  0.00  0.00    +0.247 C 
ATOM      2  O   UNL     1      30.346  16.086  12.776  0.00  0.00    -0.270 OA
ATOM      3  N   UNL     1      32.204  16.649  14.033  0.00  0.00    -0.297 N 
ATOM      4  C   UNL     1      32.870  17.329  15.147  0.00  0.00    +0.108 C 
ATOM      5  C   UNL     1      34.012  18.216  14.684  0.00  0.00    +0.020 C 
ATOM      6  C   UNL     1      34.962  17.469  13.767  0.00  0.00    +0.011 C 
ATOM      7  C   UNL     1      34.240  16.773  12.587  0.00  0.00    -0.004 C 
ATOM      8  C   UNL     1      35.305  15.953  11.827  0.00  0.00    +0.020 C 
ATOM      9  C   UNL     1      34.860  15.735  10.397  0.00  0.00    +0.070 C 
ATOM     10  S   UNL     1      34.139  17.313   9.917  0.00  0.00    -0.160 S 
ATOM     11  C   UNL     1      33.660  17.808  11.595  0.00  0.00    +0.077 C 
ATOM     12  C   UNL     1      33.102  15.880  13.156  0.00  0.00    +0.115 C 
ENDROOT
BRANCH   1  16
ATOM     13  C   UNL     1      27.909  19.032  15.792  0.00  0.00    +0.037 A 
ATOM     14  C   UNL     1      28.849  19.671  14.977  0.00  0.00    +0.014 A 
ATOM     15  C   UNL     1      29.880  18.932  14.392  0.00  0.00    +0.014 A 
ATOM     16  C   UNL     1      29.914  17.541  14.534  0.00  0.00    +0.037 A 
ATOM     17  C   UNL     1      29.036  16.919  15.433  0.00  0.00    +0.014 A 
ATOM     18  C   UNL     1      28.042  17.667  16.070  0.00  0.00    +0.014 A 
BRANCH  13  20
ATOM     19  N   UNL     1      25.859  19.050  17.099  0.00  0.00    -0.325 N 
ATOM     20  C   UNL     1      26.761  19.775  16.372  0.00  0.00    +0.242 C 
ATOM     21  O   UNL     1      26.657  20.986  16.249  0.00  0.00    -0.270 OA
ATOM     22  H   UNL     1      25.156  19.588  17.594  0.00  0.00    +0.145 HD
ATOM     23  H   UNL     1      26.066  18.125  17.446  0.00  0.00    +0.145 HD
ENDBRANCH  13  20
ENDBRANCH   1  16
TORSDOF 2
ENDMDL
MODEL 3
REMARK VINA RESULT:      -6.5      4.521      5.494
REMARK  Name = ZINC000583127796
REMARK  2 active torsions:
REMARK  status: ('A' for Active; 'I' for Inactive)
REMARK    1  A    between atoms: C_2  and  C_4
REMARK    2  A    between atoms: C_7  and  C_8
REMARK                            x       y       z     vdW  Elec       q    Type
REMARK                         _______ _______ _______ _____ _____    ______ ____
ROOT
ATOM      1  C   UNL     1      32.177  22.481  14.001  0.00  0.00    +0.247 C 
ATOM      2  O   UNL     1      33.044  21.657  14.284  0.00  0.00    -0.270 OA
ATOM      3  N   UNL     1      32.425  23.589  13.174  0.00  0.00    -0.297 N 
ATOM      4  C   UNL     1      31.456  24.614  12.778  0.00  0.00    +0.108 C 
ATOM      5  C   UNL     1      31.367  24.774  11.270  0.00  0.00    +0.020 C 
ATOM      6  C   UNL     1      32.739  24.956  10.648  0.00  0.00    +0.011 C 
ATOM      7  C   UNL     1      33.742  23.852  11.065  0.00  0.00    -0.004 C 
ATOM      8  C   UNL     1      35.112  24.239  10.468  0.00  0.00    +0.020 C 
ATOM      9  C   UNL     1      35.971  23.002  10.312  0.00  0.00    +0.070 C 
ATOM     10  S   UNL     1      34.828  21.747   9.715  0.00  0.00    -0.160 S 
ATOM     11  C   UNL     1      33.349  22.481  10.467  0.00  0.00    +0.077 C 
ATOM     12  C   UNL     1      33.775  23.770  12.616  0.00  0.00    +0.115 C 
ENDROOT
BRANCH   1  16
ATOM     13  C   UNL     1      28.372  21.463  15.669  0.00  0.00    +0.037 A 
ATOM     14  C   UNL     1      28.746  20.914  14.438  0.00  0.00    +0.014 A 
ATOM     15  C   UNL     1      29.932  21.325  13.824  0.00  0.00    +0.014 A 
ATOM     16  C   UNL     1      30.796  22.204  14.485  0.00  0.00    +0.037 A 
ATOM     17  C   UNL     1      30.370  22.830  15.665  0.00  0.00    +0.014 A 
ATOM     18  C   UNL     1      29.154  22.468  16.250  0.00  0.00    +0.014 A 
BRANCH  13  20
ATOM     19  N   UNL     1      27.133  19.691  16.781  0.00  0.00    -0.325 N 
ATOM     20  C   UNL     1      27.154  20.997  16.381  0.00  0.00    +0.242 C 
ATOM     21  O   UNL     1      26.238  21.761  16.644  0.00  0.00    -0.270 OA
ATOM     22  H   UNL     1      26.357  19.423  17.375  0.00  0.00    +0.145 HD
ATOM     23  H   UNL     1      27.971  19.128  16.827  0.00  0.00    +0.145 HD
ENDBRANCH  13  20
ENDBRANCH   1  16
TORSDOF 2
ENDMDL
MODEL 4
REMARK VINA RESULT:      -6.2      3.813      4.815
REMARK  Name = ZINC000583127796
REMARK  2 active torsions:
REMARK  status: ('A' for Active; 'I' for Inactive)
REMARK    1  A    between atoms: C_2  and  C_4
REMARK    2  A    between atoms: C_7  and  C_8
REMARK                            x       y       z     vdW  Elec       q    Type
REMARK                         _______ _______ _______ _____ _____    ______ ____
ROOT
ATOM      1  C   UNL     1      31.855  20.289  13.689  0.00  0.00    +0.247 C 
ATOM      2  O   UNL     1      32.157  19.924  12.554  0.00  0.00    -0.270 OA
ATOM      3  N   UNL     1      32.626  21.207  14.421  0.00  0.00    -0.297 N 
ATOM      4  C   UNL     1      32.343  21.702  15.770  0.00  0.00    +0.108 C 
ATOM      5  C   UNL     1      32.298  23.219  15.832  0.00  0.00    +0.020 C 
ATOM      6  C   UNL     1      33.530  23.839  15.199  0.00  0.00    +0.011 C 
ATOM      7  C   UNL     1      33.801  23.315  13.767  0.00  0.00    -0.004 C 
ATOM      8  C   UNL     1      35.142  23.927  13.309  0.00  0.00    +0.020 C 
ATOM      9  C   UNL     1      35.200  23.965  11.797  0.00  0.00    +0.070 C 
ATOM     10  S   UNL     1      33.541  24.463  11.308  0.00  0.00    -0.160 S 
ATOM     11  C   UNL     1      32.713  23.795  12.778  0.00  0.00    +0.077 C 
ATOM     12  C   UNL     1      33.843  21.762  13.804  0.00  0.00    +0.115 C 
ENDROOT
BRANCH   1  16
ATOM     13  C   UNL     1      28.242  19.033  15.604  0.00  0.00    +0.037 A 
ATOM     14  C   UNL     1      29.203  18.075  15.265  0.00  0.00    +0.014 A 
ATOM     15  C   UNL     1      30.335  18.452  14.536  0.00  0.00    +0.014 A 
ATOM     16  C   UNL     1      30.559  19.799  14.236  0.00  0.00    +0.037 A 
ATOM     17  C   UNL     1      29.548  20.738  14.484  0.00  0.00    +0.014 A 
ATOM     18  C   UNL     1      28.385  20.352  15.157  0.00  0.00    +0.014 A 
BRANCH  13  20
ATOM     19  N   UNL     1      27.300  17.937  17.559  0.00  0.00    -0.325 N 
ATOM     20  C   UNL     1      27.064  18.681  16.437  0.00  0.00    +0.242 C 
ATOM     21  O   UNL     1      25.944  19.083  16.161  0.00  0.00    -0.270 OA
ATOM     22  H   UNL     1      26.510  17.815  18.182  0.00  0.00    +0.145 HD
ATOM     23  H   UNL     1      28.225  17.835  17.954  0.00  0.00    +0.145 HD
ENDBRANCH  13  20
ENDBRANCH   1  16
TORSDOF 2
ENDMDL
MODEL 5
REMARK VINA RESULT:      -6.1      6.927      7.961
REMARK  Name = ZINC000583127796
REMARK  2 active torsions:
REMARK  status: ('A' for Active; 'I' for Inactive)
REMARK    1  A    between atoms: C_2  and  C_4
REMARK    2  A    between atoms: C_7  and  C_8
REMARK                            x       y       z     vdW  Elec       q    Type
REMARK                         _______ _______ _______ _____ _____    ______ ____
ROOT
ATOM      1  C   UNL     1      33.225  24.868   9.700  0.00  0.00    +0.247 C 
ATOM      2  O   UNL     1      33.638  26.018   9.564  0.00  0.00    -0.270 OA
ATOM      3  N   UNL     1      33.356  23.892   8.698  0.00  0.00    -0.297 N 
ATOM      4  C   UNL     1      32.903  22.500   8.774  0.00  0.00    +0.108 C 
ATOM      5  C   UNL     1      34.018  21.512   8.482  0.00  0.00    +0.020 C 
ATOM      6  C   UNL     1      34.740  21.852   7.192  0.00  0.00    +0.011 C 
ATOM      7  C   UNL     1      35.226  23.321   7.140  0.00  0.00    -0.004 C 
ATOM      8  C   UNL     1      35.816  23.552   5.733  0.00  0.00    +0.020 C 
ATOM      9  C   UNL     1      36.806  24.697   5.772  0.00  0.00    +0.070 C 
ATOM     10  S   UNL     1      37.703  24.447   7.312  0.00  0.00    -0.160 S 
ATOM     11  C   UNL     1      36.359  23.574   8.162  0.00  0.00    +0.077 C 
ATOM     12  C   UNL     1      34.020  24.255   7.436  0.00  0.00    +0.115 C 
ENDROOT
BRANCH   1  16
ATOM     13  C   UNL     1      31.574  23.453  13.384  0.00  0.00    +0.037 A 
ATOM     14  C   UNL     1      30.803  24.286  12.566  0.00  0.00    +0.014 A 
ATOM     15  C   UNL     1      31.367  24.850  11.418  0.00  0.00    +0.014 A 
ATOM     16  C   UNL     1      32.664  24.502  11.031  0.00  0.00    +0.037 A 
ATOM     17  C   UNL     1      33.467  23.754  11.904  0.00  0.00    +0.014 A 
ATOM     18  C   UNL     1      32.924  23.240  13.085  0.00  0.00    +0.014 A 
BRANCH  13  20
ATOM     19  N   UNL     1      29.867  23.351  15.113  0.00  0.00    -0.325 N 
ATOM     20  C   UNL     1      30.985  22.782  14.571  0.00  0.00    +0.242 C 
ATOM     21  O   UNL     1      31.449  21.740  15.010  0.00  0.00    -0.270 OA
ATOM     22  H   UNL     1      29.405  22.814  15.837  0.00  0.00    +0.145 HD
ATOM     23  H   UNL     1      29.313  24.032  14.613  0.00  0.00    +0.145 HD
ENDBRANCH  13  20
ENDBRANCH   1  16
TORSDOF 2
ENDMDL
MODEL 6
REMARK VINA RESULT:      -6.0      6.843      9.079
REMARK  Name = ZINC000583127796
REMARK  2 active torsions:
REMARK  status: ('A' for Active; 'I' for Inactive)
REMARK    1  A    between atoms: C_2  and  C_4
REMARK    2  A    between atoms: C_7  and  C_8
REMARK                            x       y       z     vdW  Elec       q    Type
REMARK                         _______ _______ _______ _____ _____    ______ ____
ROOT
ATOM      1  C   UNL     1      32.270  24.512  11.196  0.00  0.00    +0.247 C 
ATOM      2  O   UNL     1      31.129  24.965  11.265  0.00  0.00    -0.270 OA
ATOM      3  N   UNL     1      32.946  23.983  12.308  0.00  0.00    -0.297 N 
ATOM      4  C   UNL     1      34.297  23.417  12.318  0.00  0.00    +0.108 C 
ATOM      5  C   UNL     1      34.331  22.012  12.890  0.00  0.00    +0.020 C 
ATOM      6  C   UNL     1      33.627  21.939  14.233  0.00  0.00    +0.011 C 
ATOM      7  C   UNL     1      32.195  22.525  14.195  0.00  0.00    -0.004 C 
ATOM      8  C   UNL     1      31.661  22.505  15.644  0.00  0.00    +0.020 C 
ATOM      9  C   UNL     1      30.147  22.491  15.632  0.00  0.00    +0.070 C 
ATOM     10  S   UNL     1      29.729  21.367  14.291  0.00  0.00    -0.160 S 
ATOM     11  C   UNL     1      31.250  21.647  13.343  0.00  0.00    +0.077 C 
ATOM     12  C   UNL     1      32.260  23.964  13.611  0.00  0.00    +0.115 C 
ENDROOT
BRANCH   1  16
ATOM     13  C   UNL     1      34.263  24.007   7.444  0.00  0.00    +0.037 A 
ATOM     14  C   UNL     1      34.569  25.120   8.235  0.00  0.00    +0.014 A 
ATOM     15  C   UNL     1      33.846  25.361   9.406  0.00  0.00    +0.014 A 
ATOM     16  C   UNL     1      32.889  24.440   9.843  0.00  0.00    +0.037 A 
ATOM     17  C   UNL     1      32.513  23.385   8.998  0.00  0.00    +0.014 A 
ATOM     18  C   UNL     1      33.192  23.177   7.794  0.00  0.00    +0.014 A 
BRANCH  13  20
ATOM     19  N   UNL     1      35.307  24.707   5.363  0.00  0.00    -0.325 N 
ATOM     20  C   UNL     1      35.058  23.682   6.232  0.00  0.00    +0.242 C 
ATOM     21  O   UNL     1      35.512  22.563   6.049  0.00  0.00    -0.270 OA
ATOM     22  H   UNL     1      35.955  24.500   4.612  0.00  0.00    +0.145 HD
ATOM     23  H   UNL     1      35.189  25.676   5.624  0.00  0.00    +0.145 HD
ENDBRANCH  13  20
ENDBRANCH   1  16
TORSDOF 2
ENDMDL
MODEL 7
REMARK VINA RESULT:      -5.8      4.233      5.952
REMARK  Name = ZINC000583127796
REMARK  2 active torsions:
REMARK  status: ('A' for Active; 'I' for Inactive)
REMARK    1  A    between atoms: C_2  and  C_4
REMARK    2  A    between atoms: C_7  and  C_8
REMARK                            x       y       z     vdW  Elec       q    Type
REMARK                         _______ _______ _______ _____ _____    ______ ____
ROOT
ATOM      1  C   UNL     1      31.840  21.827  14.941  0.00  0.00    +0.247 C 
ATOM      2  O   UNL     1      31.841  22.301  16.075  0.00  0.00    -0.270 OA
ATOM      3  N   UNL     1      32.542  22.412  13.874  0.00  0.00    -0.297 N 
ATOM      4  C   UNL     1      32.604  21.918  12.496  0.00  0.00    +0.108 C 
ATOM      5  C   UNL     1      34.031  21.725  12.015  0.00  0.00    +0.020 C 
ATOM      6  C   UNL     1      34.874  22.963  12.259  0.00  0.00    +0.011 C 
ATOM      7  C   UNL     1      34.808  23.458  13.725  0.00  0.00    -0.004 C 
ATOM      8  C   UNL     1      35.597  24.784  13.789  0.00  0.00    +0.020 C 
ATOM      9  C   UNL     1      36.079  25.026  15.203  0.00  0.00    +0.070 C 
ATOM     10  S   UNL     1      36.611  23.402  15.769  0.00  0.00    -0.160 S 
ATOM     11  C   UNL     1      35.499  22.463  14.686  0.00  0.00    +0.077 C 
ATOM     12  C   UNL     1      33.317  23.639  14.123  0.00  0.00    +0.115 C 
ENDROOT
BRANCH   1  16
ATOM     13  C   UNL     1      29.740  18.104  14.773  0.00  0.00    +0.037 A 
ATOM     14  C   UNL     1      31.138  18.102  14.721  0.00  0.00    +0.014 A 
ATOM     15  C   UNL     1      31.834  19.312  14.658  0.00  0.00    +0.014 A 
ATOM     16  C   UNL     1      31.143  20.524  14.751  0.00  0.00    +0.037 A 
ATOM     17  C   UNL     1      29.742  20.525  14.697  0.00  0.00    +0.014 A 
ATOM     18  C   UNL     1      29.042  19.315  14.696  0.00  0.00    +0.014 A 
BRANCH  13  20
ATOM     19  N   UNL     1      28.666  16.173  13.760  0.00  0.00    -0.325 N 
ATOM     20  C   UNL     1      28.973  16.840  14.912  0.00  0.00    +0.242 C 
ATOM     21  O   UNL     1      28.677  16.391  16.009  0.00  0.00    -0.270 OA
ATOM     22  H   UNL     1      28.258  15.252  13.878  0.00  0.00    +0.145 HD
ATOM     23  H   UNL     1      29.130  16.367  12.884  0.00  0.00    +0.145 HD
ENDBRANCH  13  20
ENDBRANCH   1  16
TORSDOF 2
ENDMDL
MODEL 8
REMARK VINA RESULT:      -5.8      6.497      8.141
REMARK  Name = ZINC000583127796
REMARK  2 active torsions:
REMARK  status: ('A' for Active; 'I' for Inactive)
REMARK    1  A    between atoms: C_2  and  C_4
REMARK    2  A    between atoms: C_7  and  C_8
REMARK                            x       y       z     vdW  Elec       q    Type
REMARK                         _______ _______ _______ _____ _____    ______ ____
ROOT
ATOM      1  C   UNL     1      33.038  23.658  18.740  0.00  0.00    +0.247 C 
ATOM      2  O   UNL     1      33.186  24.814  19.133  0.00  0.00    -0.270 OA
ATOM      3  N   UNL     1      33.940  22.628  19.056  0.00  0.00    -0.297 N 
ATOM      4  C   UNL     1      33.842  21.227  18.639  0.00  0.00    +0.108 C 
ATOM      5  C   UNL     1      33.892  20.269  19.816  0.00  0.00    +0.020 C 
ATOM      6  C   UNL     1      35.075  20.558  20.721  0.00  0.00    +0.011 C 
ATOM      7  C   UNL     1      35.149  22.040  21.163  0.00  0.00    -0.004 C 
ATOM      8  C   UNL     1      36.462  22.208  21.959  0.00  0.00    +0.020 C 
ATOM      9  C   UNL     1      36.347  23.393  22.894  0.00  0.00    +0.070 C 
ATOM     10  S   UNL     1      34.674  23.275  23.547  0.00  0.00    -0.160 S 
ATOM     11  C   UNL     1      33.984  22.401  22.113  0.00  0.00    +0.077 C 
ATOM     12  C   UNL     1      35.107  22.940  19.898  0.00  0.00    +0.115 C 
ENDROOT
BRANCH   1  16
ATOM     13  C   UNL     1      29.457  22.425  16.751  0.00  0.00    +0.037 A 
ATOM     14  C   UNL     1      30.638  22.552  16.013  0.00  0.00    +0.014 A 
ATOM     15  C   UNL     1      31.788  23.064  16.621  0.00  0.00    +0.014 A 
ATOM     16  C   UNL     1      31.788  23.352  17.989  0.00  0.00    +0.037 A 
ATOM     17  C   UNL     1      30.580  23.323  18.700  0.00  0.00    +0.014 A 
ATOM     18  C   UNL     1      29.413  22.871  18.077  0.00  0.00    +0.014 A 
BRANCH  13  20
ATOM     19  N   UNL     1      27.042  22.140  16.734  0.00  0.00    -0.325 N 
ATOM     20  C   UNL     1      28.238  21.819  16.156  0.00  0.00    +0.242 C 
ATOM     21  O   UNL     1      28.298  21.110  15.163  0.00  0.00    -0.270 OA
ATOM     22  H   UNL     1      26.215  21.826  16.241  0.00  0.00    +0.145 HD
ATOM     23  H   UNL     1      26.940  22.927  17.360  0.00  0.00    +0.145 HD
ENDBRANCH  13  20
ENDBRANCH   1  16
TORSDOF 2
ENDMDL
MODEL 9
REMARK VINA RESULT:      -5.8      4.942      6.185
REMARK  Name = ZINC000583127796
REMARK  2 active torsions:
REMARK  status: ('A' for Active; 'I' for Inactive)
REMARK    1  A    between atoms: C_2  and  C_4
REMARK    2  A    between atoms: C_7  and  C_8
REMARK                            x       y       z     vdW  Elec       q    Type
REMARK                         _______ _______ _______ _____ _____    ______ ____
ROOT
ATOM      1  C   UNL     1      32.552  21.831  12.885  0.00  0.00    +0.247 C 
ATOM      2  O   UNL     1      33.475  21.206  12.365  0.00  0.00    -0.270 OA
ATOM      3  N   UNL     1      32.400  23.220  12.739  0.00  0.00    -0.297 N 
ATOM      4  C   UNL     1      31.332  24.044  13.312  0.00  0.00    +0.108 C 
ATOM      5  C   UNL     1      30.606  24.863  12.261  0.00  0.00    +0.020 C 
ATOM      6  C   UNL     1      31.577  25.639  11.389  0.00  0.00    +0.011 C 
ATOM      7  C   UNL     1      32.685  24.746  10.779  0.00  0.00    -0.004 C 
ATOM      8  C   UNL     1      33.661  25.683  10.036  0.00  0.00    +0.020 C 
ATOM      9  C   UNL     1      34.398  24.911   8.963  0.00  0.00    +0.070 C 
ATOM     10  S   UNL     1      33.136  23.847   8.245  0.00  0.00    -0.160 S 
ATOM     11  C   UNL     1      32.104  23.764   9.735  0.00  0.00    +0.077 C 
ATOM     12  C   UNL     1      33.379  23.959  11.925  0.00  0.00    +0.115 C 
ENDROOT
BRANCH   1  16
ATOM     13  C   UNL     1      29.540  19.337  14.620  0.00  0.00    +0.037 A 
ATOM     14  C   UNL     1      29.220  20.654  14.273  0.00  0.00    +0.014 A 
ATOM     15  C   UNL     1      30.219  21.516  13.814  0.00  0.00    +0.014 A 
ATOM     16  C   UNL     1      31.516  21.037  13.602  0.00  0.00    +0.037 A 
ATOM     17  C   UNL     1      31.857  19.752  14.048  0.00  0.00    +0.014 A 
ATOM     18  C   UNL     1      30.872  18.908  14.567  0.00  0.00    +0.014 A 
BRANCH  13  20
ATOM     19  N   UNL     1      27.509  18.853  15.865  0.00  0.00    -0.325 N 
ATOM     20  C   UNL     1      28.491  18.375  15.043  0.00  0.00    +0.242 C 
ATOM     21  O   UNL     1      28.478  17.224  14.633  0.00  0.00    -0.270 OA
ATOM     22  H   UNL     1      26.734  18.223  16.039  0.00  0.00    +0.145 HD
ATOM     23  H   UNL     1      27.341  19.842  15.986  0.00  0.00    +0.145 HD
ENDBRANCH  13  20
ENDBRANCH   1  16
TORSDOF 2
ENDMDL
