MODEL 1
REMARK VINA RESULT:      -7.1      0.000      0.000
REMARK  Name = ZINC000543478179
REMARK  8 active torsions:
REMARK  status: ('A' for Active; 'I' for Inactive)
REMARK    1  A    between atoms: C_1  and  C_2
REMARK    2  A    between atoms: C_2  and  N_3
REMARK    3  A    between atoms: N_9  and  C_10
REMARK    4  A    between atoms: C_10  and  C_11
REMARK    5  A    between atoms: C_10  and  C_12
REMARK    6  A    between atoms: C_15  and  O_16
REMARK    7  A    between atoms: O_16  and  C_17
REMARK    8  A    between atoms: C_17  and  C_18
REMARK                            x       y       z     vdW  Elec       q    Type
REMARK                         _______ _______ _______ _____ _____    ______ ____
ROOT
ATOM      1  C   UNL     1      26.809  20.862  16.759  0.00  0.00    +0.102 C 
ATOM      2  C   UNL     1      26.271  19.439  16.589  0.00  0.00    +0.033 C 
ENDROOT
BRANCH   1   9
ATOM      3  N   UNL     1      23.227  24.883  17.527  0.00  0.00    -0.299 N 
ATOM      4  C   UNL     1      23.915  24.979  18.813  0.00  0.00    +0.127 C 
ATOM      5  C   UNL     1      24.193  23.598  19.414  0.00  0.00    +0.129 C 
ATOM      6  N   UNL     1      24.975  22.782  18.479  0.00  0.00    -0.275 N 
ATOM      7  C   UNL     1      26.046  22.075  18.947  0.00  0.00    +0.303 C 
ATOM      8  O   UNL     1      26.382  22.123  20.134  0.00  0.00    -0.253 OA
ATOM      9  N   UNL     1      26.813  21.295  18.154  0.00  0.00    -0.293 N 
ATOM     10  C   UNL     1      24.492  22.804  17.107  0.00  0.00    +0.205 C 
ATOM     11  C   UNL     1      23.389  23.784  16.708  0.00  0.00    +0.233 C 
ATOM     12  O   UNL     1      22.790  23.640  15.639  0.00  0.00    -0.274 OA
ATOM     13  H   UNL     1      27.552  20.895  18.719  0.00  0.00    +0.151 HD
BRANCH   3  15
ATOM     14  C   UNL     1      21.299  26.274  18.106  0.00  0.00    +0.024 C 
ATOM     15  C   UNL     1      22.379  25.974  17.084  0.00  0.00    +0.104 C 
ENDBRANCH   3  15
ENDBRANCH   1   9
BRANCH   1  16
ATOM     16  C   UNL     1      28.194  21.025  16.160  0.00  0.00    -0.024 A 
ATOM     17  C   UNL     1      29.086  21.998  16.626  0.00  0.00    +0.009 A 
ATOM     18  C   UNL     1      30.348  22.146  16.049  0.00  0.00    +0.049 A 
ATOM     19  C   UNL     1      30.731  21.348  14.962  0.00  0.00    +0.156 A 
ATOM     20  C   UNL     1      29.858  20.355  14.524  0.00  0.00    +0.165 A 
ATOM     21  F   UNL     1      30.205  19.543  13.513  0.00  0.00    -0.202 F 
ATOM     22  C   UNL     1      28.600  20.196  15.101  0.00  0.00    +0.047 A 
BRANCH  19  23
ATOM     23  O   UNL     1      31.912  21.480  14.286  0.00  0.00    -0.489 OA
BRANCH  23  24
ATOM     24  C   UNL     1      32.204  22.802  13.835  0.00  0.00    +0.232 C 
BRANCH  24  25
ATOM     25  C   UNL     1      31.702  22.971  12.436  0.00  0.00    +0.027 C 
ATOM     26  C   UNL     1      31.914  24.287  11.731  0.00  0.00    +0.007 C 
ATOM     27  C   UNL     1      30.530  23.877  12.152  0.00  0.00    +0.007 C 
ENDBRANCH  24  25
ENDBRANCH  23  24
ENDBRANCH  19  23
ENDBRANCH   1  16
TORSDOF 6
ENDMDL
MODEL 2
REMARK VINA RESULT:      -6.9      2.437      3.548
REMARK  Name = ZINC000543478179
REMARK  8 active torsions:
REMARK  status: ('A' for Active; 'I' for Inactive)
REMARK    1  A    between atoms: C_1  and  C_2
REMARK    2  A    between atoms: C_2  and  N_3
REMARK    3  A    between atoms: N_9  and  C_10
REMARK    4  A    between atoms: C_10  and  C_11
REMARK    5  A    between atoms: C_10  and  C_12
REMARK    6  A    between atoms: C_15  and  O_16
REMARK    7  A    between atoms: O_16  and  C_17
REMARK    8  A    between atoms: C_17  and  C_18
REMARK                            x       y       z     vdW  Elec       q    Type
REMARK                         _______ _______ _______ _____ _____    ______ ____
ROOT
ATOM      1  C   UNL     1      26.857  21.481  17.120  0.00  0.00    +0.102 C 
ATOM      2  C   UNL     1      26.222  20.153  16.701  0.00  0.00    +0.033 C 
ENDROOT
BRANCH   1   9
ATOM      3  N   UNL     1      22.482  24.713  17.095  0.00  0.00    -0.299 N 
ATOM      4  C   UNL     1      22.866  24.905  18.492  0.00  0.00    +0.127 C 
ATOM      5  C   UNL     1      23.280  23.588  19.154  0.00  0.00    +0.129 C 
ATOM      6  N   UNL     1      24.377  22.964  18.408  0.00  0.00    -0.275 N 
ATOM      7  C   UNL     1      25.448  22.464  19.091  0.00  0.00    +0.303 C 
ATOM      8  O   UNL     1      25.523  22.544  20.322  0.00  0.00    -0.253 OA
ATOM      9  N   UNL     1      26.496  21.869  18.481  0.00  0.00    -0.293 N 
ATOM     10  C   UNL     1      24.185  22.930  16.966  0.00  0.00    +0.205 C 
ATOM     11  C   UNL     1      23.016  23.689  16.339  0.00  0.00    +0.233 C 
ATOM     12  O   UNL     1      22.684  23.461  15.173  0.00  0.00    -0.274 OA
ATOM     13  H   UNL     1      27.170  21.604  19.189  0.00  0.00    +0.151 HD
BRANCH   3  15
ATOM     14  C   UNL     1      21.421  26.910  17.283  0.00  0.00    +0.024 C 
ATOM     15  C   UNL     1      21.546  25.632  16.475  0.00  0.00    +0.104 C 
ENDBRANCH   3  15
ENDBRANCH   1   9
BRANCH   1  16
ATOM     16  C   UNL     1      28.367  21.466  16.966  0.00  0.00    -0.024 A 
ATOM     17  C   UNL     1      28.997  20.705  15.975  0.00  0.00    +0.009 A 
ATOM     18  C   UNL     1      30.388  20.687  15.862  0.00  0.00    +0.049 A 
ATOM     19  C   UNL     1      31.184  21.402  16.768  0.00  0.00    +0.156 A 
ATOM     20  C   UNL     1      30.555  22.190  17.729  0.00  0.00    +0.165 A 
ATOM     21  F   UNL     1      31.281  22.922  18.589  0.00  0.00    -0.202 F 
ATOM     22  C   UNL     1      29.167  22.219  17.843  0.00  0.00    +0.047 A 
BRANCH  19  23
ATOM     23  O   UNL     1      32.550  21.378  16.782  0.00  0.00    -0.489 OA
BRANCH  23  24
ATOM     24  C   UNL     1      33.126  20.166  17.270  0.00  0.00    +0.232 C 
BRANCH  24  25
ATOM     25  C   UNL     1      33.596  20.372  18.675  0.00  0.00    +0.027 C 
ATOM     26  C   UNL     1      33.889  19.170  19.538  0.00  0.00    +0.007 C 
ATOM     27  C   UNL     1      32.695  20.034  19.837  0.00  0.00    +0.007 C 
ENDBRANCH  24  25
ENDBRANCH  23  24
ENDBRANCH  19  23
ENDBRANCH   1  16
TORSDOF 6
ENDMDL
MODEL 3
REMARK VINA RESULT:      -6.4      4.416      9.511
REMARK  Name = ZINC000543478179
REMARK  8 active torsions:
REMARK  status: ('A' for Active; 'I' for Inactive)
REMARK    1  A    between atoms: C_1  and  C_2
REMARK    2  A    between atoms: C_2  and  N_3
REMARK    3  A    between atoms: N_9  and  C_10
REMARK    4  A    between atoms: C_10  and  C_11
REMARK    5  A    between atoms: C_10  and  C_12
REMARK    6  A    between atoms: C_15  and  O_16
REMARK    7  A    between atoms: O_16  and  C_17
REMARK    8  A    between atoms: C_17  and  C_18
REMARK                            x       y       z     vdW  Elec       q    Type
REMARK                         _______ _______ _______ _____ _____    ______ ____
ROOT
ATOM      1  C   UNL     1      29.307  19.142  15.025  0.00  0.00    +0.102 C 
ATOM      2  C   UNL     1      28.646  19.227  13.648  0.00  0.00    +0.033 C 
ENDROOT
BRANCH   1   9
ATOM      3  N   UNL     1      32.431  15.072  13.219  0.00  0.00    -0.299 N 
ATOM      4  C   UNL     1      33.499  15.948  13.699  0.00  0.00    +0.127 C 
ATOM      5  C   UNL     1      33.244  17.411  13.328  0.00  0.00    +0.129 C 
ATOM      6  N   UNL     1      31.949  17.853  13.857  0.00  0.00    -0.275 N 
ATOM      7  C   UNL     1      31.865  19.061  14.489  0.00  0.00    +0.303 C 
ATOM      8  O   UNL     1      32.858  19.779  14.643  0.00  0.00    -0.253 OA
ATOM      9  N   UNL     1      30.711  19.544  14.998  0.00  0.00    -0.293 N 
ATOM     10  C   UNL     1      30.852  16.927  13.623  0.00  0.00    +0.205 C 
ATOM     11  C   UNL     1      31.142  15.537  13.058  0.00  0.00    +0.233 C 
ATOM     12  O   UNL     1      30.222  14.847  12.609  0.00  0.00    -0.274 OA
ATOM     13  H   UNL     1      30.903  20.438  15.433  0.00  0.00    +0.151 HD
BRANCH   3  15
ATOM     14  C   UNL     1      32.833  12.874  14.219  0.00  0.00    +0.024 C 
ATOM     15  C   UNL     1      32.719  13.678  12.936  0.00  0.00    +0.104 C 
ENDBRANCH   3  15
ENDBRANCH   1   9
BRANCH   1  16
ATOM     16  C   UNL     1      28.556  19.947  16.070  0.00  0.00    -0.024 A 
ATOM     17  C   UNL     1      27.188  19.757  16.301  0.00  0.00    +0.009 A 
ATOM     18  C   UNL     1      26.510  20.521  17.251  0.00  0.00    +0.049 A 
ATOM     19  C   UNL     1      27.179  21.524  17.966  0.00  0.00    +0.156 A 
ATOM     20  C   UNL     1      28.548  21.686  17.765  0.00  0.00    +0.165 A 
ATOM     21  F   UNL     1      29.233  22.607  18.460  0.00  0.00    -0.202 F 
ATOM     22  C   UNL     1      29.233  20.921  16.823  0.00  0.00    +0.047 A 
BRANCH  19  23
ATOM     23  O   UNL     1      26.578  22.371  18.855  0.00  0.00    -0.489 OA
BRANCH  23  24
ATOM     24  C   UNL     1      25.170  22.186  19.005  0.00  0.00    +0.232 C 
BRANCH  24  25
ATOM     25  C   UNL     1      24.472  23.490  18.783  0.00  0.00    +0.027 C 
ATOM     26  C   UNL     1      22.974  23.560  18.939  0.00  0.00    +0.007 C 
ATOM     27  C   UNL     1      23.592  23.687  17.574  0.00  0.00    +0.007 C 
ENDBRANCH  24  25
ENDBRANCH  23  24
ENDBRANCH  19  23
ENDBRANCH   1  16
TORSDOF 6
ENDMDL
MODEL 4
REMARK VINA RESULT:      -6.3      4.442      7.046
REMARK  Name = ZINC000543478179
REMARK  8 active torsions:
REMARK  status: ('A' for Active; 'I' for Inactive)
REMARK    1  A    between atoms: C_1  and  C_2
REMARK    2  A    between atoms: C_2  and  N_3
REMARK    3  A    between atoms: N_9  and  C_10
REMARK    4  A    between atoms: C_10  and  C_11
REMARK    5  A    between atoms: C_10  and  C_12
REMARK    6  A    between atoms: C_15  and  O_16
REMARK    7  A    between atoms: O_16  and  C_17
REMARK    8  A    between atoms: C_17  and  C_18
REMARK                            x       y       z     vdW  Elec       q    Type
REMARK                         _______ _______ _______ _____ _____    ______ ____
ROOT
ATOM      1  C   UNL     1      29.963  20.680  15.127  0.00  0.00    +0.102 C 
ATOM      2  C   UNL     1      29.849  21.646  13.945  0.00  0.00    +0.033 C 
ENDROOT
BRANCH   1   9
ATOM      3  N   UNL     1      31.520  23.241  19.666  0.00  0.00    -0.299 N 
ATOM      4  C   UNL     1      30.216  22.774  20.135  0.00  0.00    +0.127 C 
ATOM      5  C   UNL     1      29.132  22.948  19.068  0.00  0.00    +0.129 C 
ATOM      6  N   UNL     1      29.509  22.246  17.838  0.00  0.00    -0.275 N 
ATOM      7  C   UNL     1      28.580  21.475  17.199  0.00  0.00    +0.303 C 
ATOM      8  O   UNL     1      27.437  21.340  17.646  0.00  0.00    -0.253 OA
ATOM      9  N   UNL     1      28.844  20.802  16.058  0.00  0.00    -0.293 N 
ATOM     10  C   UNL     1      30.880  22.473  17.407  0.00  0.00    +0.205 C 
ATOM     11  C   UNL     1      31.848  23.220  18.325  0.00  0.00    +0.233 C 
ATOM     12  O   UNL     1      32.916  23.649  17.881  0.00  0.00    -0.274 OA
ATOM     13  H   UNL     1      28.013  20.289  15.790  0.00  0.00    +0.151 HD
BRANCH   3  15
ATOM     14  C   UNL     1      32.372  22.969  21.943  0.00  0.00    +0.024 C 
ATOM     15  C   UNL     1      32.503  23.709  20.625  0.00  0.00    +0.104 C 
ENDBRANCH   3  15
ENDBRANCH   1   9
BRANCH   1  16
ATOM     16  C   UNL     1      30.108  19.239  14.674  0.00  0.00    -0.024 A 
ATOM     17  C   UNL     1      31.305  18.756  14.131  0.00  0.00    +0.009 A 
ATOM     18  C   UNL     1      31.413  17.432  13.701  0.00  0.00    +0.049 A 
ATOM     19  C   UNL     1      30.310  16.571  13.769  0.00  0.00    +0.156 A 
ATOM     20  C   UNL     1      29.132  17.040  14.345  0.00  0.00    +0.165 A 
ATOM     21  F   UNL     1      28.066  16.233  14.466  0.00  0.00    -0.202 F 
ATOM     22  C   UNL     1      29.019  18.358  14.783  0.00  0.00    +0.047 A 
BRANCH  19  23
ATOM     23  O   UNL     1      30.303  15.287  13.299  0.00  0.00    -0.489 OA
BRANCH  23  24
ATOM     24  C   UNL     1      31.576  14.792  12.882  0.00  0.00    +0.232 C 
BRANCH  24  25
ATOM     25  C   UNL     1      31.388  13.839  11.745  0.00  0.00    +0.027 C 
ATOM     26  C   UNL     1      31.751  12.387  11.932  0.00  0.00    +0.007 C 
ATOM     27  C   UNL     1      32.585  13.258  11.034  0.00  0.00    +0.007 C 
ENDBRANCH  24  25
ENDBRANCH  23  24
ENDBRANCH  19  23
ENDBRANCH   1  16
TORSDOF 6
ENDMDL
MODEL 5
REMARK VINA RESULT:      -6.3      5.041     10.103
REMARK  Name = ZINC000543478179
REMARK  8 active torsions:
REMARK  status: ('A' for Active; 'I' for Inactive)
REMARK    1  A    between atoms: C_1  and  C_2
REMARK    2  A    between atoms: C_2  and  N_3
REMARK    3  A    between atoms: N_9  and  C_10
REMARK    4  A    between atoms: C_10  and  C_11
REMARK    5  A    between atoms: C_10  and  C_12
REMARK    6  A    between atoms: C_15  and  O_16
REMARK    7  A    between atoms: O_16  and  C_17
REMARK    8  A    between atoms: C_17  and  C_18
REMARK                            x       y       z     vdW  Elec       q    Type
REMARK                         _______ _______ _______ _____ _____    ______ ____
ROOT
ATOM      1  C   UNL     1      29.386  17.459  14.614  0.00  0.00    +0.102 C 
ATOM      2  C   UNL     1      28.602  16.392  13.847  0.00  0.00    +0.033 C 
ENDROOT
BRANCH   1   9
ATOM      3  N   UNL     1      34.069  14.725  14.183  0.00  0.00    -0.299 N 
ATOM      4  C   UNL     1      34.513  15.981  13.582  0.00  0.00    +0.127 C 
ATOM      5  C   UNL     1      33.463  16.558  12.629  0.00  0.00    +0.129 C 
ATOM      6  N   UNL     1      32.190  16.754  13.330  0.00  0.00    -0.275 N 
ATOM      7  C   UNL     1      31.508  17.925  13.159  0.00  0.00    +0.303 C 
ATOM      8  O   UNL     1      31.950  18.830  12.444  0.00  0.00    -0.253 OA
ATOM      9  N   UNL     1      30.327  18.182  13.762  0.00  0.00    -0.293 N 
ATOM     10  C   UNL     1      31.769  15.626  14.147  0.00  0.00    +0.205 C 
ATOM     11  C   UNL     1      32.728  14.458  14.376  0.00  0.00    +0.233 C 
ATOM     12  O   UNL     1      32.307  13.392  14.833  0.00  0.00    -0.274 OA
ATOM     13  H   UNL     1      30.032  19.115  13.501  0.00  0.00    +0.151 HD
BRANCH   3  15
ATOM     14  C   UNL     1      35.763  14.215  15.874  0.00  0.00    +0.024 C 
ATOM     15  C   UNL     1      35.051  13.749  14.617  0.00  0.00    +0.104 C 
ENDBRANCH   3  15
ENDBRANCH   1   9
BRANCH   1  16
ATOM     16  C   UNL     1      28.471  18.439  15.326  0.00  0.00    -0.024 A 
ATOM     17  C   UNL     1      27.286  18.022  15.944  0.00  0.00    +0.009 A 
ATOM     18  C   UNL     1      26.447  18.941  16.576  0.00  0.00    +0.049 A 
ATOM     19  C   UNL     1      26.756  20.308  16.568  0.00  0.00    +0.156 A 
ATOM     20  C   UNL     1      27.954  20.717  15.988  0.00  0.00    +0.165 A 
ATOM     21  F   UNL     1      28.306  22.013  15.996  0.00  0.00    -0.202 F 
ATOM     22  C   UNL     1      28.801  19.805  15.361  0.00  0.00    +0.047 A 
BRANCH  19  23
ATOM     23  O   UNL     1      25.954  21.284  17.091  0.00  0.00    -0.489 OA
BRANCH  23  24
ATOM     24  C   UNL     1      26.358  21.776  18.369  0.00  0.00    +0.232 C 
BRANCH  24  25
ATOM     25  C   UNL     1      25.157  22.261  19.116  0.00  0.00    +0.027 C 
ATOM     26  C   UNL     1      24.266  23.300  18.483  0.00  0.00    +0.007 C 
ATOM     27  C   UNL     1      25.119  23.664  19.667  0.00  0.00    +0.007 C 
ENDBRANCH  24  25
ENDBRANCH  23  24
ENDBRANCH  19  23
ENDBRANCH   1  16
TORSDOF 6
ENDMDL
MODEL 6
REMARK VINA RESULT:      -6.3      3.243      8.505
REMARK  Name = ZINC000543478179
REMARK  8 active torsions:
REMARK  status: ('A' for Active; 'I' for Inactive)
REMARK    1  A    between atoms: C_1  and  C_2
REMARK    2  A    between atoms: C_2  and  N_3
REMARK    3  A    between atoms: N_9  and  C_10
REMARK    4  A    between atoms: C_10  and  C_11
REMARK    5  A    between atoms: C_10  and  C_12
REMARK    6  A    between atoms: C_15  and  O_16
REMARK    7  A    between atoms: O_16  and  C_17
REMARK    8  A    between atoms: C_17  and  C_18
REMARK                            x       y       z     vdW  Elec       q    Type
REMARK                         _______ _______ _______ _____ _____    ______ ____
ROOT
ATOM      1  C   UNL     1      29.853  20.461  14.631  0.00  0.00    +0.102 C 
ATOM      2  C   UNL     1      29.447  19.102  14.055  0.00  0.00    +0.033 C 
ENDROOT
BRANCH   1   9
ATOM      3  N   UNL     1      34.245  23.627  15.147  0.00  0.00    -0.299 N 
ATOM      4  C   UNL     1      33.502  24.466  14.208  0.00  0.00    +0.127 C 
ATOM      5  C   UNL     1      32.844  23.637  13.102  0.00  0.00    +0.129 C 
ATOM      6  N   UNL     1      31.962  22.620  13.682  0.00  0.00    -0.275 N 
ATOM      7  C   UNL     1      30.716  22.438  13.153  0.00  0.00    +0.303 C 
ATOM      8  O   UNL     1      30.308  23.126  12.211  0.00  0.00    -0.253 OA
ATOM      9  N   UNL     1      29.845  21.519  13.624  0.00  0.00    -0.293 N 
ATOM     10  C   UNL     1      32.542  21.874  14.789  0.00  0.00    +0.205 C 
ATOM     11  C   UNL     1      33.882  22.316  15.378  0.00  0.00    +0.233 C 
ATOM     12  O   UNL     1      34.510  21.558  16.123  0.00  0.00    -0.274 OA
ATOM     13  H   UNL     1      28.987  21.589  13.090  0.00  0.00    +0.151 HD
BRANCH   3  15
ATOM     14  C   UNL     1      35.630  25.621  15.456  0.00  0.00    +0.024 C 
ATOM     15  C   UNL     1      35.369  24.186  15.875  0.00  0.00    +0.104 C 
ENDBRANCH   3  15
ENDBRANCH   1   9
BRANCH   1  16
ATOM     16  C   UNL     1      28.989  20.861  15.813  0.00  0.00    -0.024 A 
ATOM     17  C   UNL     1      27.640  20.495  15.895  0.00  0.00    +0.009 A 
ATOM     18  C   UNL     1      26.856  20.890  16.980  0.00  0.00    +0.049 A 
ATOM     19  C   UNL     1      27.396  21.697  17.990  0.00  0.00    +0.156 A 
ATOM     20  C   UNL     1      28.747  22.029  17.928  0.00  0.00    +0.165 A 
ATOM     21  F   UNL     1      29.312  22.766  18.897  0.00  0.00    -0.202 F 
ATOM     22  C   UNL     1      29.538  21.632  16.851  0.00  0.00    +0.047 A 
BRANCH  19  23
ATOM     23  O   UNL     1      26.682  22.195  19.044  0.00  0.00    -0.489 OA
BRANCH  23  24
ATOM     24  C   UNL     1      25.264  22.158  18.883  0.00  0.00    +0.232 C 
BRANCH  24  25
ATOM     25  C   UNL     1      24.683  23.472  19.300  0.00  0.00    +0.027 C 
ATOM     26  C   UNL     1      23.194  23.584  19.513  0.00  0.00    +0.007 C 
ATOM     27  C   UNL     1      23.837  24.269  18.339  0.00  0.00    +0.007 C 
ENDBRANCH  24  25
ENDBRANCH  23  24
ENDBRANCH  19  23
ENDBRANCH   1  16
TORSDOF 6
ENDMDL
MODEL 7
REMARK VINA RESULT:      -6.2      5.817      8.523
REMARK  Name = ZINC000543478179
REMARK  8 active torsions:
REMARK  status: ('A' for Active; 'I' for Inactive)
REMARK    1  A    between atoms: C_1  and  C_2
REMARK    2  A    between atoms: C_2  and  N_3
REMARK    3  A    between atoms: N_9  and  C_10
REMARK    4  A    between atoms: C_10  and  C_11
REMARK    5  A    between atoms: C_10  and  C_12
REMARK    6  A    between atoms: C_15  and  O_16
REMARK    7  A    between atoms: O_16  and  C_17
REMARK    8  A    between atoms: C_17  and  C_18
REMARK                            x       y       z     vdW  Elec       q    Type
REMARK                         _______ _______ _______ _____ _____    ______ ____
ROOT
ATOM      1  C   UNL     1      31.202  21.397  14.163  0.00  0.00    +0.102 C 
ATOM      2  C   UNL     1      31.149  22.058  15.542  0.00  0.00    +0.033 C 
ENDROOT
BRANCH   1   9
ATOM      3  N   UNL     1      31.903  16.004  14.226  0.00  0.00    -0.299 N 
ATOM      4  C   UNL     1      30.586  16.028  13.592  0.00  0.00    +0.127 C 
ATOM      5  C   UNL     1      29.653  17.043  14.258  0.00  0.00    +0.129 C 
ATOM      6  N   UNL     1      30.252  18.380  14.234  0.00  0.00    -0.275 N 
ATOM      7  C   UNL     1      29.484  19.448  13.865  0.00  0.00    +0.303 C 
ATOM      8  O   UNL     1      28.303  19.309  13.532  0.00  0.00    -0.253 OA
ATOM      9  N   UNL     1      29.957  20.713  13.823  0.00  0.00    -0.293 N 
ATOM     10  C   UNL     1      31.649  18.425  14.639  0.00  0.00    +0.205 C 
ATOM     11  C   UNL     1      32.418  17.122  14.851  0.00  0.00    +0.233 C 
ATOM     12  O   UNL     1      33.501  17.131  15.441  0.00  0.00    -0.274 OA
ATOM     13  H   UNL     1      29.214  21.321  13.502  0.00  0.00    +0.151 HD
BRANCH   3  15
ATOM     14  C   UNL     1      32.080  13.769  13.245  0.00  0.00    +0.024 C 
ATOM     15  C   UNL     1      32.703  14.794  14.175  0.00  0.00    +0.104 C 
ENDBRANCH   3  15
ENDBRANCH   1   9
BRANCH   1  16
ATOM     16  C   UNL     1      31.567  22.385  13.069  0.00  0.00    -0.024 A 
ATOM     17  C   UNL     1      32.865  22.459  12.550  0.00  0.00    +0.009 A 
ATOM     18  C   UNL     1      33.188  23.387  11.559  0.00  0.00    +0.049 A 
ATOM     19  C   UNL     1      32.225  24.293  11.094  0.00  0.00    +0.156 A 
ATOM     20  C   UNL     1      30.925  24.194  11.583  0.00  0.00    +0.165 A 
ATOM     21  F   UNL     1      29.964  25.016  11.133  0.00  0.00    -0.202 F 
ATOM     22  C   UNL     1      30.594  23.264  12.567  0.00  0.00    +0.047 A 
BRANCH  19  23
ATOM     23  O   UNL     1      32.473  25.285  10.187  0.00  0.00    -0.489 OA
BRANCH  23  24
ATOM     24  C   UNL     1      33.427  24.954   9.178  0.00  0.00    +0.232 C 
BRANCH  24  25
ATOM     25  C   UNL     1      32.763  24.134   8.118  0.00  0.00    +0.027 C 
ATOM     26  C   UNL     1      32.824  22.630   8.204  0.00  0.00    +0.007 C 
ATOM     27  C   UNL     1      33.592  23.351   7.130  0.00  0.00    +0.007 C 
ENDBRANCH  24  25
ENDBRANCH  23  24
ENDBRANCH  19  23
ENDBRANCH   1  16
TORSDOF 6
ENDMDL
MODEL 8
REMARK VINA RESULT:      -6.2      4.465      7.679
REMARK  Name = ZINC000543478179
REMARK  8 active torsions:
REMARK  status: ('A' for Active; 'I' for Inactive)
REMARK    1  A    between atoms: C_1  and  C_2
REMARK    2  A    between atoms: C_2  and  N_3
REMARK    3  A    between atoms: N_9  and  C_10
REMARK    4  A    between atoms: C_10  and  C_11
REMARK    5  A    between atoms: C_10  and  C_12
REMARK    6  A    between atoms: C_15  and  O_16
REMARK    7  A    between atoms: O_16  and  C_17
REMARK    8  A    between atoms: C_17  and  C_18
REMARK                            x       y       z     vdW  Elec       q    Type
REMARK                         _______ _______ _______ _____ _____    ______ ____
ROOT
ATOM      1  C   UNL     1      28.708  20.224  15.846  0.00  0.00    +0.102 C 
ATOM      2  C   UNL     1      27.316  20.163  16.478  0.00  0.00    +0.033 C 
ENDROOT
BRANCH   1   9
ATOM      3  N   UNL     1      32.642  23.076  13.401  0.00  0.00    -0.299 N 
ATOM      4  C   UNL     1      33.322  22.845  14.674  0.00  0.00    +0.127 C 
ATOM      5  C   UNL     1      32.379  23.034  15.866  0.00  0.00    +0.129 C 
ATOM      6  N   UNL     1      31.218  22.147  15.743  0.00  0.00    -0.275 N 
ATOM      7  C   UNL     1      30.805  21.435  16.833  0.00  0.00    +0.303 C 
ATOM      8  O   UNL     1      31.400  21.507  17.914  0.00  0.00    -0.253 OA
ATOM      9  N   UNL     1      29.742  20.602  16.807  0.00  0.00    -0.293 N 
ATOM     10  C   UNL     1      30.600  22.137  14.426  0.00  0.00    +0.205 C 
ATOM     11  C   UNL     1      31.287  22.852  13.262  0.00  0.00    +0.233 C 
ATOM     12  O   UNL     1      30.664  23.080  12.222  0.00  0.00    -0.274 OA
ATOM     13  H   UNL     1      29.647  20.176  17.720  0.00  0.00    +0.151 HD
BRANCH   3  15
ATOM     14  C   UNL     1      34.748  24.084  12.671  0.00  0.00    +0.024 C 
ATOM     15  C   UNL     1      33.404  23.519  12.249  0.00  0.00    +0.104 C 
ENDBRANCH   3  15
ENDBRANCH   1   9
BRANCH   1  16
ATOM     16  C   UNL     1      29.084  18.920  15.166  0.00  0.00    -0.024 A 
ATOM     17  C   UNL     1      30.361  18.711  14.631  0.00  0.00    +0.009 A 
ATOM     18  C   UNL     1      30.682  17.514  13.990  0.00  0.00    +0.049 A 
ATOM     19  C   UNL     1      29.716  16.510  13.835  0.00  0.00    +0.156 A 
ATOM     20  C   UNL     1      28.458  16.702  14.400  0.00  0.00    +0.165 A 
ATOM     21  F   UNL     1      27.518  15.748  14.308  0.00  0.00    -0.202 F 
ATOM     22  C   UNL     1      28.133  17.893  15.048  0.00  0.00    +0.047 A 
BRANCH  19  23
ATOM     23  O   UNL     1      29.919  15.343  13.153  0.00  0.00    -0.489 OA
BRANCH  23  24
ATOM     24  C   UNL     1      31.286  15.034  12.881  0.00  0.00    +0.232 C 
BRANCH  24  25
ATOM     25  C   UNL     1      31.354  13.862  11.954  0.00  0.00    +0.027 C 
ATOM     26  C   UNL     1      32.226  12.686  12.317  0.00  0.00    +0.007 C 
ATOM     27  C   UNL     1      32.614  13.582  11.173  0.00  0.00    +0.007 C 
ENDBRANCH  24  25
ENDBRANCH  23  24
ENDBRANCH  19  23
ENDBRANCH   1  16
TORSDOF 6
ENDMDL
MODEL 9
REMARK VINA RESULT:      -6.1      7.482     12.085
REMARK  Name = ZINC000543478179
REMARK  8 active torsions:
REMARK  status: ('A' for Active; 'I' for Inactive)
REMARK    1  A    between atoms: C_1  and  C_2
REMARK    2  A    between atoms: C_2  and  N_3
REMARK    3  A    between atoms: N_9  and  C_10
REMARK    4  A    between atoms: C_10  and  C_11
REMARK    5  A    between atoms: C_10  and  C_12
REMARK    6  A    between atoms: C_15  and  O_16
REMARK    7  A    between atoms: O_16  and  C_17
REMARK    8  A    between atoms: C_17  and  C_18
REMARK                            x       y       z     vdW  Elec       q    Type
REMARK                         _______ _______ _______ _____ _____    ______ ____
ROOT
ATOM      1  C   UNL     1      33.115  15.812  14.619  0.00  0.00    +0.102 C 
ATOM      2  C   UNL     1      33.951  16.267  15.818  0.00  0.00    +0.033 C 
ENDROOT
BRANCH   1   9
ATOM      3  N   UNL     1      35.327  12.865  10.618  0.00  0.00    -0.299 N 
ATOM      4  C   UNL     1      34.378  11.865  11.103  0.00  0.00    +0.127 C 
ATOM      5  C   UNL     1      34.332  11.819  12.633  0.00  0.00    +0.129 C 
ATOM      6  N   UNL     1      33.998  13.140  13.174  0.00  0.00    -0.275 N 
ATOM      7  C   UNL     1      33.064  13.237  14.165  0.00  0.00    +0.303 C 
ATOM      8  O   UNL     1      32.480  12.240  14.601  0.00  0.00    -0.253 OA
ATOM      9  N   UNL     1      32.704  14.414  14.722  0.00  0.00    -0.293 N 
ATOM     10  C   UNL     1      34.742  14.242  12.583  0.00  0.00    +0.205 C 
ATOM     11  C   UNL     1      35.624  13.990  11.360  0.00  0.00    +0.233 C 
ATOM     12  O   UNL     1      36.455  14.833  11.012  0.00  0.00    -0.274 OA
ATOM     13  H   UNL     1      31.986  14.234  15.413  0.00  0.00    +0.151 HD
BRANCH   3  15
ATOM     14  C   UNL     1      36.539  11.302   9.176  0.00  0.00    +0.024 C 
ATOM     15  C   UNL     1      35.949  12.693   9.318  0.00  0.00    +0.104 C 
ENDBRANCH   3  15
ENDBRANCH   1   9
BRANCH   1  16
ATOM     16  C   UNL     1      31.901  16.696  14.401  0.00  0.00    -0.024 A 
ATOM     17  C   UNL     1      32.018  18.084  14.261  0.00  0.00    +0.009 A 
ATOM     18  C   UNL     1      30.888  18.883  14.081  0.00  0.00    +0.049 A 
ATOM     19  C   UNL     1      29.608  18.313  14.079  0.00  0.00    +0.156 A 
ATOM     20  C   UNL     1      29.494  16.929  14.179  0.00  0.00    +0.165 A 
ATOM     21  F   UNL     1      28.288  16.341  14.139  0.00  0.00    -0.202 F 
ATOM     22  C   UNL     1      30.619  16.124  14.351  0.00  0.00    +0.047 A 
BRANCH  19  23
ATOM     23  O   UNL     1      28.445  19.027  13.990  0.00  0.00    -0.489 OA
BRANCH  23  24
ATOM     24  C   UNL     1      28.263  20.011  15.009  0.00  0.00    +0.232 C 
BRANCH  24  25
ATOM     25  C   UNL     1      27.737  19.353  16.245  0.00  0.00    +0.027 C 
ATOM     26  C   UNL     1      26.545  18.435  16.140  0.00  0.00    +0.007 C 
ATOM     27  C   UNL     1      26.406  19.769  16.821  0.00  0.00    +0.007 C 
ENDBRANCH  24  25
ENDBRANCH  23  24
ENDBRANCH  19  23
ENDBRANCH   1  16
TORSDOF 6
ENDMDL
