MODEL 1
REMARK VINA RESULT:      -7.2      0.000      0.000
REMARK  Name = ZINC000826139982
REMARK  4 active torsions:
REMARK  status: ('A' for Active; 'I' for Inactive)
REMARK    1  A    between atoms: C_2  and  C_4
REMARK    2  A    between atoms: C_8  and  C_10
REMARK    3  A    between atoms: C_14  and  S_15
REMARK    4  A    between atoms: S_15  and  C_16
REMARK                            x       y       z     vdW  Elec       q    Type
REMARK                         _______ _______ _______ _____ _____    ______ ____
ROOT
ATOM      1  C   UNL     1      31.402  14.950  12.417  0.00  0.00    +0.093 C 
ATOM      2  C   UNL     1      30.274  14.034  11.930  0.00  0.00    +0.033 C 
ATOM      3  C   UNL     1      28.985  14.792  12.217  0.00  0.00    +0.109 C 
ATOM      4  N   UNL     1      29.316  15.643  13.341  0.00  0.00    -0.297 N 
ATOM      5  C   UNL     1      28.343  16.087  14.228  0.00  0.00    +0.247 C 
ATOM      6  O   UNL     1      27.175  15.709  14.142  0.00  0.00    -0.270 OA
ATOM      7  C   UNL     1      30.719  16.017  13.263  0.00  0.00    +0.120 C 
ENDROOT
BRANCH   5   8
ATOM      8  C   UNL     1      28.699  16.991  15.372  0.00  0.00    +0.038 A 
ATOM      9  C   UNL     1      29.128  16.525  16.618  0.00  0.00    +0.013 A 
ATOM     10  C   UNL     1      29.325  17.402  17.684  0.00  0.00    +0.002 A 
ATOM     11  C   UNL     1      29.199  18.773  17.486  0.00  0.00    +0.015 A 
ATOM     12  C   UNL     1      28.907  19.273  16.214  0.00  0.00    +0.017 A 
ATOM     13  C   UNL     1      28.622  18.380  15.171  0.00  0.00    +0.028 A 
BRANCH  12  14
ATOM     14  S   UNL     1      28.853  21.029  15.917  0.00  0.00    -0.016 S 
BRANCH  14  15
ATOM     15  C   UNL     1      27.628  21.552  17.135  0.00  0.00    +0.448 C 
ATOM     16  F   UNL     1      27.131  22.793  16.920  0.00  0.00    -0.160 F 
ATOM     17  F   UNL     1      26.574  20.701  17.156  0.00  0.00    -0.160 F 
ATOM     18  F   UNL     1      28.164  21.553  18.380  0.00  0.00    -0.160 F 
ENDBRANCH  14  15
ENDBRANCH  12  14
ENDBRANCH   5   8
BRANCH   1  20
ATOM     19  N   UNL     1      33.570  15.242  11.360  0.00  0.00    -0.329 N 
ATOM     20  C   UNL     1      32.243  15.553  11.307  0.00  0.00    +0.215 C 
ATOM     21  O   UNL     1      31.823  16.314  10.448  0.00  0.00    -0.276 OA
ATOM     22  H   UNL     1      34.179  15.679  10.679  0.00  0.00    +0.145 HD
ATOM     23  H   UNL     1      33.982  14.677  12.088  0.00  0.00    +0.145 HD
ENDBRANCH   1  20
TORSDOF 4
ENDMDL
MODEL 2
REMARK VINA RESULT:      -7.0      5.482      7.341
REMARK  Name = ZINC000826139982
REMARK  4 active torsions:
REMARK  status: ('A' for Active; 'I' for Inactive)
REMARK    1  A    between atoms: C_2  and  C_4
REMARK    2  A    between atoms: C_8  and  C_10
REMARK    3  A    between atoms: C_14  and  S_15
REMARK    4  A    between atoms: S_15  and  C_16
REMARK                            x       y       z     vdW  Elec       q    Type
REMARK                         _______ _______ _______ _____ _____    ______ ____
ROOT
ATOM      1  C   UNL     1      33.137  22.112  18.204  0.00  0.00    +0.093 C 
ATOM      2  C   UNL     1      33.817  22.664  16.946  0.00  0.00    +0.033 C 
ATOM      3  C   UNL     1      32.683  23.149  16.054  0.00  0.00    +0.109 C 
ATOM      4  N   UNL     1      31.554  22.325  16.434  0.00  0.00    -0.297 N 
ATOM      5  C   UNL     1      30.511  22.069  15.552  0.00  0.00    +0.247 C 
ATOM      6  O   UNL     1      30.545  22.463  14.386  0.00  0.00    -0.270 OA
ATOM      7  C   UNL     1      31.662  21.984  17.843  0.00  0.00    +0.120 C 
ENDROOT
BRANCH   5   8
ATOM      8  C   UNL     1      29.336  21.236  15.970  0.00  0.00    +0.038 A 
ATOM      9  C   UNL     1      28.135  21.778  16.439  0.00  0.00    +0.013 A 
ATOM     10  C   UNL     1      27.121  20.957  16.931  0.00  0.00    +0.002 A 
ATOM     11  C   UNL     1      27.253  19.575  16.862  0.00  0.00    +0.015 A 
ATOM     12  C   UNL     1      28.385  19.007  16.270  0.00  0.00    +0.017 A 
ATOM     13  C   UNL     1      29.437  19.839  15.860  0.00  0.00    +0.028 A 
BRANCH  12  14
ATOM     14  S   UNL     1      28.520  17.243  16.070  0.00  0.00    -0.016 S 
BRANCH  14  15
ATOM     15  C   UNL     1      29.159  16.755  17.686  0.00  0.00    +0.448 C 
ATOM     16  F   UNL     1      29.339  17.788  18.543  0.00  0.00    -0.160 F 
ATOM     17  F   UNL     1      28.321  15.879  18.292  0.00  0.00    -0.160 F 
ATOM     18  F   UNL     1      30.358  16.135  17.558  0.00  0.00    -0.160 F 
ENDBRANCH  14  15
ENDBRANCH  12  14
ENDBRANCH   5   8
BRANCH   1  20
ATOM     19  N   UNL     1      32.338  22.886  20.364  0.00  0.00    -0.329 N 
ATOM     20  C   UNL     1      33.348  22.952  19.450  0.00  0.00    +0.215 C 
ATOM     21  O   UNL     1      34.300  23.694  19.639  0.00  0.00    -0.276 OA
ATOM     22  H   UNL     1      32.406  23.484  21.179  0.00  0.00    +0.145 HD
ATOM     23  H   UNL     1      31.497  22.345  20.227  0.00  0.00    +0.145 HD
ENDBRANCH   1  20
TORSDOF 4
ENDMDL
MODEL 3
REMARK VINA RESULT:      -6.9      4.765      7.127
REMARK  Name = ZINC000826139982
REMARK  4 active torsions:
REMARK  status: ('A' for Active; 'I' for Inactive)
REMARK    1  A    between atoms: C_2  and  C_4
REMARK    2  A    between atoms: C_8  and  C_10
REMARK    3  A    between atoms: C_14  and  S_15
REMARK    4  A    between atoms: S_15  and  C_16
REMARK                            x       y       z     vdW  Elec       q    Type
REMARK                         _______ _______ _______ _____ _____    ______ ____
ROOT
ATOM      1  C   UNL     1      29.454  22.281  17.073  0.00  0.00    +0.093 C 
ATOM      2  C   UNL     1      27.935  22.438  16.941  0.00  0.00    +0.033 C 
ATOM      3  C   UNL     1      27.361  21.052  17.200  0.00  0.00    +0.109 C 
ATOM      4  N   UNL     1      28.422  20.148  16.804  0.00  0.00    -0.297 N 
ATOM      5  C   UNL     1      28.153  18.850  16.388  0.00  0.00    +0.247 C 
ATOM      6  O   UNL     1      26.999  18.443  16.260  0.00  0.00    -0.270 OA
ATOM      7  C   UNL     1      29.707  20.779  17.056  0.00  0.00    +0.120 C 
ENDROOT
BRANCH   5   8
ATOM      8  C   UNL     1      29.266  17.918  16.008  0.00  0.00    +0.038 A 
ATOM      9  C   UNL     1      30.261  17.502  16.897  0.00  0.00    +0.013 A 
ATOM     10  C   UNL     1      31.340  16.735  16.460  0.00  0.00    +0.002 A 
ATOM     11  C   UNL     1      31.382  16.284  15.145  0.00  0.00    +0.015 A 
ATOM     12  C   UNL     1      30.328  16.569  14.272  0.00  0.00    +0.017 A 
ATOM     13  C   UNL     1      29.293  17.415  14.696  0.00  0.00    +0.028 A 
BRANCH  12  14
ATOM     14  S   UNL     1      30.310  15.905  12.620  0.00  0.00    -0.016 S 
BRANCH  14  15
ATOM     15  C   UNL     1      28.641  15.221  12.536  0.00  0.00    +0.448 C 
ATOM     16  F   UNL     1      27.663  16.156  12.503  0.00  0.00    -0.160 F 
ATOM     17  F   UNL     1      28.491  14.450  11.432  0.00  0.00    -0.160 F 
ATOM     18  F   UNL     1      28.395  14.431  13.610  0.00  0.00    -0.160 F 
ENDBRANCH  14  15
ENDBRANCH  12  14
ENDBRANCH   5   8
BRANCH   1  20
ATOM     19  N   UNL     1      29.337  24.008  18.778  0.00  0.00    -0.329 N 
ATOM     20  C   UNL     1      30.048  22.947  18.300  0.00  0.00    +0.215 C 
ATOM     21  O   UNL     1      31.109  22.635  18.819  0.00  0.00    -0.276 OA
ATOM     22  H   UNL     1      29.733  24.524  19.554  0.00  0.00    +0.145 HD
ATOM     23  H   UNL     1      28.492  24.353  18.346  0.00  0.00    +0.145 HD
ENDBRANCH   1  20
TORSDOF 4
ENDMDL
MODEL 4
REMARK VINA RESULT:      -6.9      2.066      2.644
REMARK  Name = ZINC000826139982
REMARK  4 active torsions:
REMARK  status: ('A' for Active; 'I' for Inactive)
REMARK    1  A    between atoms: C_2  and  C_4
REMARK    2  A    between atoms: C_8  and  C_10
REMARK    3  A    between atoms: C_14  and  S_15
REMARK    4  A    between atoms: S_15  and  C_16
REMARK                            x       y       z     vdW  Elec       q    Type
REMARK                         _______ _______ _______ _____ _____    ______ ____
ROOT
ATOM      1  C   UNL     1      31.594  15.751  12.367  0.00  0.00    +0.093 C 
ATOM      2  C   UNL     1      33.001  15.593  12.953  0.00  0.00    +0.033 C 
ATOM      3  C   UNL     1      32.806  15.533  14.462  0.00  0.00    +0.109 C 
ATOM      4  N   UNL     1      31.585  16.277  14.693  0.00  0.00    -0.297 N 
ATOM      5  C   UNL     1      31.332  16.900  15.908  0.00  0.00    +0.247 C 
ATOM      6  O   UNL     1      32.171  16.916  16.809  0.00  0.00    -0.270 OA
ATOM      7  C   UNL     1      30.703  16.118  13.547  0.00  0.00    +0.120 C 
ENDROOT
BRANCH   5   8
ATOM      8  C   UNL     1      30.050  17.644  16.141  0.00  0.00    +0.038 A 
ATOM      9  C   UNL     1      28.881  17.037  16.609  0.00  0.00    +0.013 A 
ATOM     10  C   UNL     1      27.685  17.749  16.689  0.00  0.00    +0.002 A 
ATOM     11  C   UNL     1      27.667  19.109  16.401  0.00  0.00    +0.015 A 
ATOM     12  C   UNL     1      28.852  19.770  16.065  0.00  0.00    +0.017 A 
ATOM     13  C   UNL     1      30.031  19.028  15.900  0.00  0.00    +0.028 A 
BRANCH  12  14
ATOM     14  S   UNL     1      28.869  21.532  15.804  0.00  0.00    -0.016 S 
BRANCH  14  15
ATOM     15  C   UNL     1      28.112  22.119  17.334  0.00  0.00    +0.448 C 
ATOM     16  F   UNL     1      28.372  21.343  18.412  0.00  0.00    -0.160 F 
ATOM     17  F   UNL     1      28.537  23.370  17.634  0.00  0.00    -0.160 F 
ATOM     18  F   UNL     1      26.763  22.177  17.206  0.00  0.00    -0.160 F 
ENDBRANCH  14  15
ENDBRANCH  12  14
ENDBRANCH   5   8
BRANCH   1  20
ATOM     19  N   UNL     1      29.833  14.661  11.096  0.00  0.00    -0.329 N 
ATOM     20  C   UNL     1      31.083  14.530  11.625  0.00  0.00    +0.215 C 
ATOM     21  O   UNL     1      31.681  13.468  11.536  0.00  0.00    -0.276 OA
ATOM     22  H   UNL     1      29.426  13.846  10.653  0.00  0.00    +0.145 HD
ATOM     23  H   UNL     1      29.267  15.490  11.202  0.00  0.00    +0.145 HD
ENDBRANCH   1  20
TORSDOF 4
ENDMDL
MODEL 5
REMARK VINA RESULT:      -6.8      2.188      2.663
REMARK  Name = ZINC000826139982
REMARK  4 active torsions:
REMARK  status: ('A' for Active; 'I' for Inactive)
REMARK    1  A    between atoms: C_2  and  C_4
REMARK    2  A    between atoms: C_8  and  C_10
REMARK    3  A    between atoms: C_14  and  S_15
REMARK    4  A    between atoms: S_15  and  C_16
REMARK                            x       y       z     vdW  Elec       q    Type
REMARK                         _______ _______ _______ _____ _____    ______ ____
ROOT
ATOM      1  C   UNL     1      31.056  15.368  11.833  0.00  0.00    +0.093 C 
ATOM      2  C   UNL     1      32.033  16.413  11.283  0.00  0.00    +0.033 C 
ATOM      3  C   UNL     1      32.690  17.036  12.507  0.00  0.00    +0.109 C 
ATOM      4  N   UNL     1      31.703  16.884  13.556  0.00  0.00    -0.297 N 
ATOM      5  C   UNL     1      31.665  17.743  14.648  0.00  0.00    +0.247 C 
ATOM      6  O   UNL     1      32.413  18.717  14.725  0.00  0.00    -0.270 OA
ATOM      7  C   UNL     1      30.937  15.671  13.322  0.00  0.00    +0.120 C 
ENDROOT
BRANCH   5   8
ATOM      8  C   UNL     1      30.654  17.555  15.740  0.00  0.00    +0.038 A 
ATOM      9  C   UNL     1      30.865  16.737  16.854  0.00  0.00    +0.013 A 
ATOM     10  C   UNL     1      29.845  16.501  17.775  0.00  0.00    +0.002 A 
ATOM     11  C   UNL     1      28.631  17.167  17.651  0.00  0.00    +0.015 A 
ATOM     12  C   UNL     1      28.443  18.097  16.624  0.00  0.00    +0.017 A 
ATOM     13  C   UNL     1      29.441  18.260  15.652  0.00  0.00    +0.028 A 
BRANCH  12  14
ATOM     14  S   UNL     1      26.937  19.042  16.517  0.00  0.00    -0.016 S 
BRANCH  14  15
ATOM     15  C   UNL     1      27.546  20.709  16.850  0.00  0.00    +0.448 C 
ATOM     16  F   UNL     1      26.583  21.581  17.232  0.00  0.00    -0.160 F 
ATOM     17  F   UNL     1      28.480  20.694  17.831  0.00  0.00    -0.160 F 
ATOM     18  F   UNL     1      28.136  21.230  15.746  0.00  0.00    -0.160 F 
ENDBRANCH  14  15
ENDBRANCH  12  14
ENDBRANCH   5   8
BRANCH   1  20
ATOM     19  N   UNL     1      30.556  12.995  11.972  0.00  0.00    -0.329 N 
ATOM     20  C   UNL     1      31.465  13.930  11.574  0.00  0.00    +0.215 C 
ATOM     21  O   UNL     1      32.539  13.583  11.107  0.00  0.00    -0.276 OA
ATOM     22  H   UNL     1      30.818  12.021  11.882  0.00  0.00    +0.145 HD
ATOM     23  H   UNL     1      29.684  13.223  12.429  0.00  0.00    +0.145 HD
ENDBRANCH   1  20
TORSDOF 4
ENDMDL
MODEL 6
REMARK VINA RESULT:      -6.8      2.195      3.059
REMARK  Name = ZINC000826139982
REMARK  4 active torsions:
REMARK  status: ('A' for Active; 'I' for Inactive)
REMARK    1  A    between atoms: C_2  and  C_4
REMARK    2  A    between atoms: C_8  and  C_10
REMARK    3  A    between atoms: C_14  and  S_15
REMARK    4  A    between atoms: S_15  and  C_16
REMARK                            x       y       z     vdW  Elec       q    Type
REMARK                         _______ _______ _______ _____ _____    ______ ____
ROOT
ATOM      1  C   UNL     1      30.132  15.771  12.942  0.00  0.00    +0.093 C 
ATOM      2  C   UNL     1      31.644  15.842  13.184  0.00  0.00    +0.033 C 
ATOM      3  C   UNL     1      31.801  16.230  14.648  0.00  0.00    +0.109 C 
ATOM      4  N   UNL     1      30.592  16.969  14.952  0.00  0.00    -0.297 N 
ATOM      5  C   UNL     1      30.556  17.919  15.964  0.00  0.00    +0.247 C 
ATOM      6  O   UNL     1      31.570  18.232  16.588  0.00  0.00    -0.270 OA
ATOM      7  C   UNL     1      29.497  16.445  14.151  0.00  0.00    +0.120 C 
ENDROOT
BRANCH   5   8
ATOM      8  C   UNL     1      29.289  18.656  16.285  0.00  0.00    +0.038 A 
ATOM      9  C   UNL     1      28.057  18.023  16.476  0.00  0.00    +0.013 A 
ATOM     10  C   UNL     1      26.888  18.764  16.648  0.00  0.00    +0.002 A 
ATOM     11  C   UNL     1      26.954  20.150  16.738  0.00  0.00    +0.015 A 
ATOM     12  C   UNL     1      28.191  20.798  16.690  0.00  0.00    +0.017 A 
ATOM     13  C   UNL     1      29.349  20.052  16.427  0.00  0.00    +0.028 A 
BRANCH  12  14
ATOM     14  S   UNL     1      28.304  22.561  16.918  0.00  0.00    -0.016 S 
BRANCH  14  15
ATOM     15  C   UNL     1      29.487  22.663  18.278  0.00  0.00    +0.448 C 
ATOM     16  F   UNL     1      29.463  23.843  18.942  0.00  0.00    -0.160 F 
ATOM     17  F   UNL     1      29.258  21.689  19.191  0.00  0.00    -0.160 F 
ATOM     18  F   UNL     1      30.753  22.493  17.822  0.00  0.00    -0.160 F 
ENDBRANCH  14  15
ENDBRANCH  12  14
ENDBRANCH   5   8
BRANCH   1  20
ATOM     19  N   UNL     1      30.341  13.594  11.882  0.00  0.00    -0.329 N 
ATOM     20  C   UNL     1      29.598  14.367  12.726  0.00  0.00    +0.215 C 
ATOM     21  O   UNL     1      28.556  13.937  13.196  0.00  0.00    -0.276 OA
ATOM     22  H   UNL     1      29.983  12.675  11.656  0.00  0.00    +0.145 HD
ATOM     23  H   UNL     1      31.170  13.923  11.410  0.00  0.00    +0.145 HD
ENDBRANCH   1  20
TORSDOF 4
ENDMDL
MODEL 7
REMARK VINA RESULT:      -6.7      4.836      6.791
REMARK  Name = ZINC000826139982
REMARK  4 active torsions:
REMARK  status: ('A' for Active; 'I' for Inactive)
REMARK    1  A    between atoms: C_2  and  C_4
REMARK    2  A    between atoms: C_8  and  C_10
REMARK    3  A    between atoms: C_14  and  S_15
REMARK    4  A    between atoms: S_15  and  C_16
REMARK                            x       y       z     vdW  Elec       q    Type
REMARK                         _______ _______ _______ _____ _____    ______ ____
ROOT
ATOM      1  C   UNL     1      29.100  21.423  15.448  0.00  0.00    +0.093 C 
ATOM      2  C   UNL     1      28.429  21.359  16.824  0.00  0.00    +0.033 C 
ATOM      3  C   UNL     1      28.767  19.981  17.376  0.00  0.00    +0.109 C 
ATOM      4  N   UNL     1      28.958  19.163  16.196  0.00  0.00    -0.297 N 
ATOM      5  C   UNL     1      28.762  17.788  16.225  0.00  0.00    +0.247 C 
ATOM      6  O   UNL     1      28.338  17.221  17.232  0.00  0.00    -0.270 OA
ATOM      7  C   UNL     1      29.492  19.987  15.123  0.00  0.00    +0.120 C 
ENDROOT
BRANCH   5   8
ATOM      8  C   UNL     1      28.991  16.951  15.001  0.00  0.00    +0.038 A 
ATOM      9  C   UNL     1      27.963  16.517  14.159  0.00  0.00    +0.013 A 
ATOM     10  C   UNL     1      28.217  15.640  13.106  0.00  0.00    +0.002 A 
ATOM     11  C   UNL     1      29.525  15.267  12.816  0.00  0.00    +0.015 A 
ATOM     12  C   UNL     1      30.586  15.798  13.556  0.00  0.00    +0.017 A 
ATOM     13  C   UNL     1      30.313  16.608  14.668  0.00  0.00    +0.028 A 
BRANCH  12  14
ATOM     14  S   UNL     1      32.273  15.422  13.126  0.00  0.00    -0.016 S 
BRANCH  14  15
ATOM     15  C   UNL     1      32.586  16.644  11.836  0.00  0.00    +0.448 C 
ATOM     16  F   UNL     1      31.756  16.548  10.771  0.00  0.00    -0.160 F 
ATOM     17  F   UNL     1      32.463  17.902  12.322  0.00  0.00    -0.160 F 
ATOM     18  F   UNL     1      33.851  16.523  11.361  0.00  0.00    -0.160 F 
ENDBRANCH  14  15
ENDBRANCH  12  14
ENDBRANCH   5   8
BRANCH   1  20
ATOM     19  N   UNL     1      30.200  23.460  16.184  0.00  0.00    -0.329 N 
ATOM     20  C   UNL     1      30.285  22.368  15.372  0.00  0.00    +0.215 C 
ATOM     21  O   UNL     1      31.233  22.238  14.612  0.00  0.00    -0.276 OA
ATOM     22  H   UNL     1      30.936  24.152  16.113  0.00  0.00    +0.145 HD
ATOM     23  H   UNL     1      29.406  23.653  16.777  0.00  0.00    +0.145 HD
ENDBRANCH   1  20
TORSDOF 4
ENDMDL
MODEL 8
REMARK VINA RESULT:      -6.7      5.188      7.291
REMARK  Name = ZINC000826139982
REMARK  4 active torsions:
REMARK  status: ('A' for Active; 'I' for Inactive)
REMARK    1  A    between atoms: C_2  and  C_4
REMARK    2  A    between atoms: C_8  and  C_10
REMARK    3  A    between atoms: C_14  and  S_15
REMARK    4  A    between atoms: S_15  and  C_16
REMARK                            x       y       z     vdW  Elec       q    Type
REMARK                         _______ _______ _______ _____ _____    ______ ____
ROOT
ATOM      1  C   UNL     1      28.726  20.713  16.185  0.00  0.00    +0.093 C 
ATOM      2  C   UNL     1      28.958  20.309  17.645  0.00  0.00    +0.033 C 
ATOM      3  C   UNL     1      29.813  19.050  17.585  0.00  0.00    +0.109 C 
ATOM      4  N   UNL     1      29.478  18.453  16.309  0.00  0.00    -0.297 N 
ATOM      5  C   UNL     1      29.611  17.088  16.087  0.00  0.00    +0.247 C 
ATOM      6  O   UNL     1      29.940  16.320  16.990  0.00  0.00    -0.270 OA
ATOM      7  C   UNL     1      29.150  19.505  15.359  0.00  0.00    +0.120 C 
ENDROOT
BRANCH   5   8
ATOM      8  C   UNL     1      29.287  16.490  14.750  0.00  0.00    +0.038 A 
ATOM      9  C   UNL     1      27.996  16.118  14.364  0.00  0.00    +0.013 A 
ATOM     10  C   UNL     1      27.769  15.453  13.160  0.00  0.00    +0.002 A 
ATOM     11  C   UNL     1      28.821  15.246  12.274  0.00  0.00    +0.015 A 
ATOM     12  C   UNL     1      30.096  15.733  12.574  0.00  0.00    +0.017 A 
ATOM     13  C   UNL     1      30.332  16.320  13.826  0.00  0.00    +0.028 A 
BRANCH  12  14
ATOM     14  S   UNL     1      31.429  15.577  11.403  0.00  0.00    -0.016 S 
BRANCH  14  15
ATOM     15  C   UNL     1      32.006  13.903  11.749  0.00  0.00    +0.448 C 
ATOM     16  F   UNL     1      31.012  13.000  11.921  0.00  0.00    -0.160 F 
ATOM     17  F   UNL     1      32.788  13.444  10.743  0.00  0.00    -0.160 F 
ATOM     18  F   UNL     1      32.757  13.882  12.878  0.00  0.00    -0.160 F 
ENDBRANCH  14  15
ENDBRANCH  12  14
ENDBRANCH   5   8
BRANCH   1  20
ATOM     19  N   UNL     1      29.296  23.037  16.605  0.00  0.00    -0.329 N 
ATOM     20  C   UNL     1      29.452  21.977  15.762  0.00  0.00    +0.215 C 
ATOM     21  O   UNL     1      30.087  22.103  14.726  0.00  0.00    -0.276 OA
ATOM     22  H   UNL     1      29.706  23.920  16.325  0.00  0.00    +0.145 HD
ATOM     23  H   UNL     1      28.724  23.009  17.437  0.00  0.00    +0.145 HD
ENDBRANCH   1  20
TORSDOF 4
ENDMDL
MODEL 9
REMARK VINA RESULT:      -6.7      2.167      2.842
REMARK  Name = ZINC000826139982
REMARK  4 active torsions:
REMARK  status: ('A' for Active; 'I' for Inactive)
REMARK    1  A    between atoms: C_2  and  C_4
REMARK    2  A    between atoms: C_8  and  C_10
REMARK    3  A    between atoms: C_14  and  S_15
REMARK    4  A    between atoms: S_15  and  C_16
REMARK                            x       y       z     vdW  Elec       q    Type
REMARK                         _______ _______ _______ _____ _____    ______ ____
ROOT
ATOM      1  C   UNL     1      30.250  15.836  12.234  0.00  0.00    +0.093 C 
ATOM      2  C   UNL     1      31.729  15.544  11.955  0.00  0.00    +0.033 C 
ATOM      3  C   UNL     1      32.350  15.266  13.318  0.00  0.00    +0.109 C 
ATOM      4  N   UNL     1      31.521  16.009  14.244  0.00  0.00    -0.297 N 
ATOM      5  C   UNL     1      32.013  16.453  15.465  0.00  0.00    +0.247 C 
ATOM      6  O   UNL     1      33.196  16.305  15.773  0.00  0.00    -0.270 OA
ATOM      7  C   UNL     1      30.158  16.053  13.739  0.00  0.00    +0.120 C 
ENDROOT
BRANCH   5   8
ATOM      8  C   UNL     1      31.133  17.197  16.426  0.00  0.00    +0.038 A 
ATOM      9  C   UNL     1      30.399  16.574  17.440  0.00  0.00    +0.013 A 
ATOM     10  C   UNL     1      29.502  17.298  18.225  0.00  0.00    +0.002 A 
ATOM     11  C   UNL     1      29.406  18.677  18.075  0.00  0.00    +0.015 A 
ATOM     12  C   UNL     1      30.231  19.342  17.164  0.00  0.00    +0.017 A 
ATOM     13  C   UNL     1      31.064  18.596  16.317  0.00  0.00    +0.028 A 
BRANCH  12  14
ATOM     14  S   UNL     1      30.203  21.119  17.039  0.00  0.00    -0.016 S 
BRANCH  14  15
ATOM     15  C   UNL     1      28.789  21.371  15.945  0.00  0.00    +0.448 C 
ATOM     16  F   UNL     1      29.125  21.721  14.681  0.00  0.00    -0.160 F 
ATOM     17  F   UNL     1      28.039  20.246  15.859  0.00  0.00    -0.160 F 
ATOM     18  F   UNL     1      27.984  22.351  16.425  0.00  0.00    -0.160 F 
ENDBRANCH  14  15
ENDBRANCH  12  14
ENDBRANCH   5   8
BRANCH   1  20
ATOM     19  N   UNL     1      29.169  13.690  12.594  0.00  0.00    -0.329 N 
ATOM     20  C   UNL     1      29.297  14.757  11.754  0.00  0.00    +0.215 C 
ATOM     21  O   UNL     1      28.717  14.766  10.678  0.00  0.00    -0.276 OA
ATOM     22  H   UNL     1      28.597  12.916  12.280  0.00  0.00    +0.145 HD
ATOM     23  H   UNL     1      29.680  13.598  13.460  0.00  0.00    +0.145 HD
ENDBRANCH   1  20
TORSDOF 4
ENDMDL
