MODEL 1
REMARK VINA RESULT:      -7.6      0.000      0.000
REMARK  Name = ZINC000329563636
REMARK  3 active torsions:
REMARK  status: ('A' for Active; 'I' for Inactive)
REMARK    1  A    between atoms: C_1  and  C_2
REMARK    2  A    between atoms: C_2  and  N_3
REMARK    3  A    between atoms: N_9  and  C_10
REMARK                            x       y       z     vdW  Elec       q    Type
REMARK                         _______ _______ _______ _____ _____    ______ ____
ROOT
ATOM      1  C   UNL     1      10.940   4.865   8.285  0.00  0.00    +0.112 C 
ATOM      2  C   UNL     1      11.974   4.086   7.466  0.00  0.00    +0.075 C 
ATOM      3  C   UNL     1      13.226   3.655   8.245  0.00  0.00    +0.113 C 
ATOM      4  C   UNL     1      13.075   2.330   9.036  0.00  0.00    +0.048 C 
ATOM      5  C   UNL     1      13.977   1.313   8.344  0.00  0.00    +0.004 C 
ATOM      6  C   UNL     1      15.093   2.151   7.754  0.00  0.00    +0.004 C 
ATOM      7  C   UNL     1      14.359   3.372   7.226  0.00  0.00    +0.048 C 
ATOM      8  O   UNL     1      13.695   4.695   9.123  0.00  0.00    -0.485 OA
ATOM      9  C   UNL     1      12.745   5.112  10.017  0.00  0.00    +0.126 A 
ATOM     10  C   UNL     1      13.174   5.470  11.294  0.00  0.00    +0.046 A 
ATOM     11  C   UNL     1      12.245   5.864  12.258  0.00  0.00    +0.004 A 
ATOM     12  C   UNL     1      10.890   5.919  11.940  0.00  0.00    +0.001 A 
ATOM     13  C   UNL     1      10.468   5.590  10.651  0.00  0.00    +0.009 A 
ATOM     14  C   UNL     1      11.396   5.182   9.679  0.00  0.00    +0.015 A 
ENDROOT
BRANCH   1  21
ATOM     15  N   UNL     1       8.598  10.455   6.590  0.00  0.00    -0.299 N 
ATOM     16  C   UNL     1       7.600   9.496   7.063  0.00  0.00    +0.127 C 
ATOM     17  C   UNL     1       7.771   8.122   6.423  0.00  0.00    +0.129 C 
ATOM     18  N   UNL     1       9.126   7.650   6.672  0.00  0.00    -0.275 N 
ATOM     19  C   UNL     1       9.309   6.475   7.366  0.00  0.00    +0.303 C 
ATOM     20  O   UNL     1       8.369   5.800   7.782  0.00  0.00    -0.253 OA
ATOM     21  N   UNL     1      10.604   6.113   7.600  0.00  0.00    -0.292 N 
ATOM     22  C   UNL     1      10.178   8.543   6.180  0.00  0.00    +0.205 C 
ATOM     23  C   UNL     1       9.839  10.047   6.113  0.00  0.00    +0.233 C 
ATOM     24  O   UNL     1      10.663  10.844   5.659  0.00  0.00    -0.274 OA
ATOM     25  H   UNL     1      11.312   6.456   6.972  0.00  0.00    +0.151 HD
BRANCH  15  27
ATOM     26  C   UNL     1       7.266  12.359   5.755  0.00  0.00    +0.024 C 
ATOM     27  C   UNL     1       8.315  11.878   6.742  0.00  0.00    +0.104 C 
ENDBRANCH  15  27
ENDBRANCH   1  21
TORSDOF 2
ENDMDL
MODEL 2
REMARK VINA RESULT:      -7.4      2.531      4.170
REMARK  Name = ZINC000329563636
REMARK  3 active torsions:
REMARK  status: ('A' for Active; 'I' for Inactive)
REMARK    1  A    between atoms: C_1  and  C_2
REMARK    2  A    between atoms: C_2  and  N_3
REMARK    3  A    between atoms: N_9  and  C_10
REMARK                            x       y       z     vdW  Elec       q    Type
REMARK                         _______ _______ _______ _____ _____    ______ ____
ROOT
ATOM      1  C   UNL     1      14.227   4.806   7.482  0.00  0.00    +0.112 C 
ATOM      2  C   UNL     1      15.332   5.590   8.197  0.00  0.00    +0.075 C 
ATOM      3  C   UNL     1      16.125   4.789   9.241  0.00  0.00    +0.113 C 
ATOM      4  C   UNL     1      17.297   3.952   8.667  0.00  0.00    +0.048 C 
ATOM      5  C   UNL     1      18.578   4.602   9.177  0.00  0.00    +0.004 C 
ATOM      6  C   UNL     1      18.177   5.215  10.504  0.00  0.00    +0.004 C 
ATOM      7  C   UNL     1      16.803   5.791  10.210  0.00  0.00    +0.048 C 
ATOM      8  O   UNL     1      15.267   3.946  10.033  0.00  0.00    -0.485 OA
ATOM      9  C   UNL     1      14.528   3.072   9.279  0.00  0.00    +0.126 A 
ATOM     10  C   UNL     1      14.287   1.807   9.811  0.00  0.00    +0.046 A 
ATOM     11  C   UNL     1      13.575   0.863   9.070  0.00  0.00    +0.004 A 
ATOM     12  C   UNL     1      13.087   1.191   7.807  0.00  0.00    +0.001 A 
ATOM     13  C   UNL     1      13.304   2.469   7.292  0.00  0.00    +0.009 A 
ATOM     14  C   UNL     1      14.029   3.421   8.027  0.00  0.00    +0.015 A 
ENDROOT
BRANCH   1  21
ATOM     15  N   UNL     1       8.927   7.994   6.324  0.00  0.00    -0.299 N 
ATOM     16  C   UNL     1      10.105   8.496   5.617  0.00  0.00    +0.127 C 
ATOM     17  C   UNL     1      11.311   8.642   6.540  0.00  0.00    +0.129 C 
ATOM     18  N   UNL     1      11.577   7.360   7.177  0.00  0.00    -0.275 N 
ATOM     19  C   UNL     1      12.797   6.755   6.980  0.00  0.00    +0.303 C 
ATOM     20  O   UNL     1      13.681   7.257   6.287  0.00  0.00    -0.253 OA
ATOM     21  N   UNL     1      12.963   5.536   7.573  0.00  0.00    -0.292 N 
ATOM     22  C   UNL     1      10.451   6.820   7.943  0.00  0.00    +0.205 C 
ATOM     23  C   UNL     1       9.036   7.219   7.473  0.00  0.00    +0.233 C 
ATOM     24  O   UNL     1       8.048   6.840   8.106  0.00  0.00    -0.274 OA
ATOM     25  H   UNL     1      12.410   5.326   8.387  0.00  0.00    +0.151 HD
BRANCH  15  27
ATOM     26  C   UNL     1       7.705   8.464   4.229  0.00  0.00    +0.024 C 
ATOM     27  C   UNL     1       7.615   8.218   5.725  0.00  0.00    +0.104 C 
ENDBRANCH  15  27
ENDBRANCH   1  21
TORSDOF 2
ENDMDL
MODEL 3
REMARK VINA RESULT:      -7.0     23.884     26.014
REMARK  Name = ZINC000329563636
REMARK  3 active torsions:
REMARK  status: ('A' for Active; 'I' for Inactive)
REMARK    1  A    between atoms: C_1  and  C_2
REMARK    2  A    between atoms: C_2  and  N_3
REMARK    3  A    between atoms: N_9  and  C_10
REMARK                            x       y       z     vdW  Elec       q    Type
REMARK                         _______ _______ _______ _____ _____    ______ ____
ROOT
ATOM      1  C   UNL     1      30.361  20.752  15.481  0.00  0.00    +0.112 C 
ATOM      2  C   UNL     1      30.708  20.814  16.971  0.00  0.00    +0.075 C 
ATOM      3  C   UNL     1      31.448  22.086  17.413  0.00  0.00    +0.113 C 
ATOM      4  C   UNL     1      30.531  23.296  17.729  0.00  0.00    +0.048 C 
ATOM      5  C   UNL     1      30.629  23.526  19.233  0.00  0.00    +0.004 C 
ATOM      6  C   UNL     1      32.021  23.045  19.589  0.00  0.00    +0.004 C 
ATOM      7  C   UNL     1      32.172  21.788  18.750  0.00  0.00    +0.048 C 
ATOM      8  O   UNL     1      32.457  22.475  16.461  0.00  0.00    -0.485 OA
ATOM      9  C   UNL     1      31.958  22.674  15.201  0.00  0.00    +0.126 A 
ATOM     10  C   UNL     1      32.525  23.692  14.437  0.00  0.00    +0.046 A 
ATOM     11  C   UNL     1      32.029  23.965  13.161  0.00  0.00    +0.004 A 
ATOM     12  C   UNL     1      30.982  23.207  12.642  0.00  0.00    +0.001 A 
ATOM     13  C   UNL     1      30.439  22.168  13.398  0.00  0.00    +0.009 A 
ATOM     14  C   UNL     1      30.925  21.894  14.687  0.00  0.00    +0.015 A 
ENDROOT
BRANCH   1  21
ATOM     15  N   UNL     1      30.939  15.140  12.692  0.00  0.00    -0.299 N 
ATOM     16  C   UNL     1      29.857  15.223  13.672  0.00  0.00    +0.127 C 
ATOM     17  C   UNL     1      30.311  15.868  14.979  0.00  0.00    +0.129 C 
ATOM     18  N   UNL     1      30.870  17.180  14.689  0.00  0.00    -0.275 N 
ATOM     19  C   UNL     1      30.296  18.294  15.258  0.00  0.00    +0.303 C 
ATOM     20  O   UNL     1      29.327  18.225  16.013  0.00  0.00    -0.253 OA
ATOM     21  N   UNL     1      30.845  19.494  14.912  0.00  0.00    -0.292 N 
ATOM     22  C   UNL     1      31.992  17.165  13.746  0.00  0.00    +0.205 C 
ATOM     23  C   UNL     1      32.013  16.023  12.709  0.00  0.00    +0.233 C 
ATOM     24  O   UNL     1      32.957  15.924  11.921  0.00  0.00    -0.274 OA
ATOM     25  H   UNL     1      31.805  19.507  14.611  0.00  0.00    +0.151 HD
BRANCH  15  27
ATOM     26  C   UNL     1      29.361  13.821  11.324  0.00  0.00    +0.024 C 
ATOM     27  C   UNL     1      30.811  14.179  11.602  0.00  0.00    +0.104 C 
ENDBRANCH  15  27
ENDBRANCH   1  21
TORSDOF 2
ENDMDL
MODEL 4
REMARK VINA RESULT:      -6.8      2.057      4.223
REMARK  Name = ZINC000329563636
REMARK  3 active torsions:
REMARK  status: ('A' for Active; 'I' for Inactive)
REMARK    1  A    between atoms: C_1  and  C_2
REMARK    2  A    between atoms: C_2  and  N_3
REMARK    3  A    between atoms: N_9  and  C_10
REMARK                            x       y       z     vdW  Elec       q    Type
REMARK                         _______ _______ _______ _____ _____    ______ ____
ROOT
ATOM      1  C   UNL     1      12.464   6.561   7.569  0.00  0.00    +0.112 C 
ATOM      2  C   UNL     1      12.598   6.387   9.085  0.00  0.00    +0.075 C 
ATOM      3  C   UNL     1      13.236   5.063   9.532  0.00  0.00    +0.113 C 
ATOM      4  C   UNL     1      14.786   5.059   9.546  0.00  0.00    +0.048 C 
ATOM      5  C   UNL     1      15.202   4.977  11.010  0.00  0.00    +0.004 C 
ATOM      6  C   UNL     1      14.069   4.219  11.673  0.00  0.00    +0.004 C 
ATOM      7  C   UNL     1      12.835   4.803  11.007  0.00  0.00    +0.048 C 
ATOM      8  O   UNL     1      12.753   3.948   8.758  0.00  0.00    -0.485 OA
ATOM      9  C   UNL     1      12.957   4.101   7.412  0.00  0.00    +0.126 A 
ATOM     10  C   UNL     1      13.265   2.960   6.673  0.00  0.00    +0.046 A 
ATOM     11  C   UNL     1      13.522   3.062   5.306  0.00  0.00    +0.004 A 
ATOM     12  C   UNL     1      13.453   4.301   4.673  0.00  0.00    +0.001 A 
ATOM     13  C   UNL     1      13.114   5.436   5.410  0.00  0.00    +0.009 A 
ATOM     14  C   UNL     1      12.864   5.343   6.790  0.00  0.00    +0.015 A 
ENDROOT
BRANCH   1  21
ATOM     15  N   UNL     1       7.122   8.218   4.684  0.00  0.00    -0.299 N 
ATOM     16  C   UNL     1       8.273   9.060   4.362  0.00  0.00    +0.127 C 
ATOM     17  C   UNL     1       9.043   9.487   5.608  0.00  0.00    +0.129 C 
ATOM     18  N   UNL     1       9.441   8.298   6.348  0.00  0.00    -0.275 N 
ATOM     19  C   UNL     1      10.780   8.063   6.567  0.00  0.00    +0.303 C 
ATOM     20  O   UNL     1      11.659   8.824   6.166  0.00  0.00    -0.253 OA
ATOM     21  N   UNL     1      11.084   6.910   7.231  0.00  0.00    -0.292 N 
ATOM     22  C   UNL     1       8.329   7.431   6.745  0.00  0.00    +0.205 C 
ATOM     23  C   UNL     1       7.078   7.447   5.841  0.00  0.00    +0.233 C 
ATOM     24  O   UNL     1       6.089   6.778   6.147  0.00  0.00    -0.274 OA
ATOM     25  H   UNL     1      10.386   6.514   7.838  0.00  0.00    +0.151 HD
BRANCH  15  27
ATOM     26  C   UNL     1       6.583   7.711   2.328  0.00  0.00    +0.024 C 
ATOM     27  C   UNL     1       6.054   8.101   3.697  0.00  0.00    +0.104 C 
ENDBRANCH  15  27
ENDBRANCH   1  21
TORSDOF 2
ENDMDL
MODEL 5
REMARK VINA RESULT:      -6.7     32.329     35.510
REMARK  Name = ZINC000329563636
REMARK  3 active torsions:
REMARK  status: ('A' for Active; 'I' for Inactive)
REMARK    1  A    between atoms: C_1  and  C_2
REMARK    2  A    between atoms: C_2  and  N_3
REMARK    3  A    between atoms: N_9  and  C_10
REMARK                            x       y       z     vdW  Elec       q    Type
REMARK                         _______ _______ _______ _____ _____    ______ ____
ROOT
ATOM      1  C   UNL     1      26.197  38.703  12.464  0.00  0.00    +0.112 C 
ATOM      2  C   UNL     1      26.901  39.885  13.137  0.00  0.00    +0.075 C 
ATOM      3  C   UNL     1      28.270  39.560  13.754  0.00  0.00    +0.113 C 
ATOM      4  C   UNL     1      29.459  39.611  12.761  0.00  0.00    +0.048 C 
ATOM      5  C   UNL     1      30.310  40.807  13.173  0.00  0.00    +0.004 C 
ATOM      6  C   UNL     1      30.085  40.922  14.667  0.00  0.00    +0.004 C 
ATOM      7  C   UNL     1      28.599  40.646  14.810  0.00  0.00    +0.048 C 
ATOM      8  O   UNL     1      28.260  38.292  14.438  0.00  0.00    -0.485 OA
ATOM      9  C   UNL     1      27.884  37.250  13.632  0.00  0.00    +0.126 A 
ATOM     10  C   UNL     1      28.504  36.019  13.838  0.00  0.00    +0.046 A 
ATOM     11  C   UNL     1      28.189  34.933  13.021  0.00  0.00    +0.004 A 
ATOM     12  C   UNL     1      27.239  35.073  12.011  0.00  0.00    +0.001 A 
ATOM     13  C   UNL     1      26.597  36.297  11.829  0.00  0.00    +0.009 A 
ATOM     14  C   UNL     1      26.917  37.399  12.641  0.00  0.00    +0.015 A 
ENDROOT
BRANCH   1  21
ATOM     15  N   UNL     1      20.037  37.696  13.265  0.00  0.00    -0.299 N 
ATOM     16  C   UNL     1      20.375  38.485  12.082  0.00  0.00    +0.127 C 
ATOM     17  C   UNL     1      21.370  39.599  12.395  0.00  0.00    +0.129 C 
ATOM     18  N   UNL     1      22.556  39.015  13.004  0.00  0.00    -0.275 N 
ATOM     19  C   UNL     1      23.775  39.179  12.387  0.00  0.00    +0.303 C 
ATOM     20  O   UNL     1      23.906  39.807  11.337  0.00  0.00    -0.253 OA
ATOM     21  N   UNL     1      24.839  38.571  12.989  0.00  0.00    -0.292 N 
ATOM     22  C   UNL     1      22.295  38.247  14.224  0.00  0.00    +0.205 C 
ATOM     23  C   UNL     1      20.907  37.584  14.345  0.00  0.00    +0.233 C 
ATOM     24  O   UNL     1      20.606  36.967  15.369  0.00  0.00    -0.274 OA
ATOM     25  H   UNL     1      24.782  38.389  13.977  0.00  0.00    +0.151 HD
BRANCH  15  27
ATOM     26  C   UNL     1      17.944  37.237  12.037  0.00  0.00    +0.024 C 
ATOM     27  C   UNL     1      18.805  36.915  13.246  0.00  0.00    +0.104 C 
ENDBRANCH  15  27
ENDBRANCH   1  21
TORSDOF 2
ENDMDL
MODEL 6
REMARK VINA RESULT:      -6.7      2.670      7.965
REMARK  Name = ZINC000329563636
REMARK  3 active torsions:
REMARK  status: ('A' for Active; 'I' for Inactive)
REMARK    1  A    between atoms: C_1  and  C_2
REMARK    2  A    between atoms: C_2  and  N_3
REMARK    3  A    between atoms: N_9  and  C_10
REMARK                            x       y       z     vdW  Elec       q    Type
REMARK                         _______ _______ _______ _____ _____    ______ ____
ROOT
ATOM      1  C   UNL     1      10.468   8.362   6.794  0.00  0.00    +0.112 C 
ATOM      2  C   UNL     1      10.739   9.394   5.695  0.00  0.00    +0.075 C 
ATOM      3  C   UNL     1       9.497   9.852   4.915  0.00  0.00    +0.113 C 
ATOM      4  C   UNL     1       8.694  10.997   5.585  0.00  0.00    +0.048 C 
ATOM      5  C   UNL     1       8.875  12.223   4.698  0.00  0.00    +0.004 C 
ATOM      6  C   UNL     1       9.071  11.648   3.309  0.00  0.00    +0.004 C 
ATOM      7  C   UNL     1       9.964  10.445   3.562  0.00  0.00    +0.048 C 
ATOM      8  O   UNL     1       8.618   8.751   4.615  0.00  0.00    -0.485 OA
ATOM      9  C   UNL     1       8.208   8.071   5.732  0.00  0.00    +0.126 A 
ATOM     10  C   UNL     1       6.908   7.568   5.739  0.00  0.00    +0.046 A 
ATOM     11  C   UNL     1       6.424   6.902   6.866  0.00  0.00    +0.004 A 
ATOM     12  C   UNL     1       7.245   6.722   7.977  0.00  0.00    +0.001 A 
ATOM     13  C   UNL     1       8.555   7.201   7.953  0.00  0.00    +0.009 A 
ATOM     14  C   UNL     1       9.046   7.882   6.827  0.00  0.00    +0.015 A 
ENDROOT
BRANCH   1  21
ATOM     15  N   UNL     1      14.211   3.368   7.605  0.00  0.00    -0.299 N 
ATOM     16  C   UNL     1      14.521   4.506   8.469  0.00  0.00    +0.127 C 
ATOM     17  C   UNL     1      14.572   5.821   7.697  0.00  0.00    +0.129 C 
ATOM     18  N   UNL     1      13.308   6.008   6.999  0.00  0.00    -0.275 N 
ATOM     19  C   UNL     1      12.545   7.118   7.281  0.00  0.00    +0.303 C 
ATOM     20  O   UNL     1      12.892   7.968   8.101  0.00  0.00    -0.253 OA
ATOM     21  N   UNL     1      11.354   7.210   6.622  0.00  0.00    -0.292 N 
ATOM     22  C   UNL     1      12.958   4.923   6.078  0.00  0.00    +0.205 C 
ATOM     23  C   UNL     1      13.500   3.519   6.420  0.00  0.00    +0.233 C 
ATOM     24  O   UNL     1      13.284   2.575   5.658  0.00  0.00    -0.274 OA
ATOM     25  H   UNL     1      11.263   6.734   5.740  0.00  0.00    +0.151 HD
BRANCH  15  27
ATOM     26  C   UNL     1      14.056   1.771   9.482  0.00  0.00    +0.024 C 
ATOM     27  C   UNL     1      14.559   2.031   8.073  0.00  0.00    +0.104 C 
ENDBRANCH  15  27
ENDBRANCH   1  21
TORSDOF 2
ENDMDL
MODEL 7
REMARK VINA RESULT:      -6.6     25.524     27.181
REMARK  Name = ZINC000329563636
REMARK  3 active torsions:
REMARK  status: ('A' for Active; 'I' for Inactive)
REMARK    1  A    between atoms: C_1  and  C_2
REMARK    2  A    between atoms: C_2  and  N_3
REMARK    3  A    between atoms: N_9  and  C_10
REMARK                            x       y       z     vdW  Elec       q    Type
REMARK                         _______ _______ _______ _____ _____    ______ ____
ROOT
ATOM      1  C   UNL     1      31.992  21.594  15.057  0.00  0.00    +0.112 C 
ATOM      2  C   UNL     1      30.650  22.048  15.640  0.00  0.00    +0.075 C 
ATOM      3  C   UNL     1      29.640  20.920  15.898  0.00  0.00    +0.113 C 
ATOM      4  C   UNL     1      29.812  20.190  17.255  0.00  0.00    +0.048 C 
ATOM      5  C   UNL     1      28.597  20.559  18.098  0.00  0.00    +0.004 C 
ATOM      6  C   UNL     1      27.500  20.797  17.079  0.00  0.00    +0.004 C 
ATOM      7  C   UNL     1      28.222  21.543  15.970  0.00  0.00    +0.048 C 
ATOM      8  O   UNL     1      29.627  19.958  14.826  0.00  0.00    -0.485 OA
ATOM      9  C   UNL     1      30.856  19.400  14.590  0.00  0.00    +0.126 A 
ATOM     10  C   UNL     1      30.893  18.060  14.211  0.00  0.00    +0.046 A 
ATOM     11  C   UNL     1      32.119  17.429  13.997  0.00  0.00    +0.004 A 
ATOM     12  C   UNL     1      33.306  18.144  14.141  0.00  0.00    +0.001 A 
ATOM     13  C   UNL     1      33.263  19.493  14.490  0.00  0.00    +0.009 A 
ATOM     14  C   UNL     1      32.033  20.133  14.718  0.00  0.00    +0.015 A 
ENDROOT
BRANCH   1  21
ATOM     15  N   UNL     1      34.514  23.953   9.796  0.00  0.00    -0.299 N 
ATOM     16  C   UNL     1      35.469  23.731  10.881  0.00  0.00    +0.127 C 
ATOM     17  C   UNL     1      34.964  24.276  12.214  0.00  0.00    +0.129 C 
ATOM     18  N   UNL     1      33.670  23.677  12.510  0.00  0.00    -0.275 N 
ATOM     19  C   UNL     1      33.523  22.935  13.660  0.00  0.00    +0.303 C 
ATOM     20  O   UNL     1      34.445  22.760  14.456  0.00  0.00    -0.253 OA
ATOM     21  N   UNL     1      32.297  22.369  13.854  0.00  0.00    -0.292 N 
ATOM     22  C   UNL     1      32.650  23.902  11.483  0.00  0.00    +0.205 C 
ATOM     23  C   UNL     1      33.150  24.086  10.034  0.00  0.00    +0.233 C 
ATOM     24  O   UNL     1      32.346  24.330   9.132  0.00  0.00    -0.274 OA
ATOM     25  H   UNL     1      31.501  22.801  13.415  0.00  0.00    +0.151 HD
BRANCH  15  27
ATOM     26  C   UNL     1      35.075  22.490   7.887  0.00  0.00    +0.024 C 
ATOM     27  C   UNL     1      35.006  23.909   8.423  0.00  0.00    +0.104 C 
ENDBRANCH  15  27
ENDBRANCH   1  21
TORSDOF 2
ENDMDL
MODEL 8
REMARK VINA RESULT:      -6.6      2.518      3.512
REMARK  Name = ZINC000329563636
REMARK  3 active torsions:
REMARK  status: ('A' for Active; 'I' for Inactive)
REMARK    1  A    between atoms: C_1  and  C_2
REMARK    2  A    between atoms: C_2  and  N_3
REMARK    3  A    between atoms: N_9  and  C_10
REMARK                            x       y       z     vdW  Elec       q    Type
REMARK                         _______ _______ _______ _____ _____    ______ ____
ROOT
ATOM      1  C   UNL     1      12.366   3.713   8.176  0.00  0.00    +0.112 C 
ATOM      2  C   UNL     1      12.560   3.454   6.679  0.00  0.00    +0.075 C 
ATOM      3  C   UNL     1      13.997   3.641   6.169  0.00  0.00    +0.113 C 
ATOM      4  C   UNL     1      14.918   2.407   6.350  0.00  0.00    +0.048 C 
ATOM      5  C   UNL     1      15.206   1.878   4.949  0.00  0.00    +0.004 C 
ATOM      6  C   UNL     1      15.133   3.109   4.068  0.00  0.00    +0.004 C 
ATOM      7  C   UNL     1      13.944   3.864   4.636  0.00  0.00    +0.048 C 
ATOM      8  O   UNL     1      14.622   4.804   6.745  0.00  0.00    -0.485 OA
ATOM      9  C   UNL     1      14.643   4.779   8.115  0.00  0.00    +0.126 A 
ATOM     10  C   UNL     1      15.757   5.322   8.752  0.00  0.00    +0.046 A 
ATOM     11  C   UNL     1      15.851   5.287  10.144  0.00  0.00    +0.004 A 
ATOM     12  C   UNL     1      14.822   4.728  10.898  0.00  0.00    +0.001 A 
ATOM     13  C   UNL     1      13.695   4.214  10.258  0.00  0.00    +0.009 A 
ATOM     14  C   UNL     1      13.598   4.235   8.857  0.00  0.00    +0.015 A 
ENDROOT
BRANCH   1  21
ATOM     15  N   UNL     1       7.360   7.475   7.549  0.00  0.00    -0.299 N 
ATOM     16  C   UNL     1       8.337   7.577   6.466  0.00  0.00    +0.127 C 
ATOM     17  C   UNL     1       9.765   7.704   6.986  0.00  0.00    +0.129 C 
ATOM     18  N   UNL     1      10.052   6.575   7.859  0.00  0.00    -0.275 N 
ATOM     19  C   UNL     1      11.087   5.726   7.537  0.00  0.00    +0.303 C 
ATOM     20  O   UNL     1      11.787   5.886   6.539  0.00  0.00    -0.253 OA
ATOM     21  N   UNL     1      11.274   4.666   8.376  0.00  0.00    -0.292 N 
ATOM     22  C   UNL     1       9.138   6.441   8.996  0.00  0.00    +0.205 C 
ATOM     23  C   UNL     1       7.704   6.976   8.801  0.00  0.00    +0.233 C 
ATOM     24  O   UNL     1       6.901   6.940   9.737  0.00  0.00    -0.274 OA
ATOM     25  H   UNL     1      10.956   4.752   9.327  0.00  0.00    +0.151 HD
BRANCH  15  27
ATOM     26  C   UNL     1       5.278   6.685   6.481  0.00  0.00    +0.024 C 
ATOM     27  C   UNL     1       5.967   7.795   7.256  0.00  0.00    +0.104 C 
ENDBRANCH  15  27
ENDBRANCH   1  21
TORSDOF 2
ENDMDL
MODEL 9
REMARK VINA RESULT:      -6.5     26.548     28.053
REMARK  Name = ZINC000329563636
REMARK  3 active torsions:
REMARK  status: ('A' for Active; 'I' for Inactive)
REMARK    1  A    between atoms: C_1  and  C_2
REMARK    2  A    between atoms: C_2  and  N_3
REMARK    3  A    between atoms: N_9  and  C_10
REMARK                            x       y       z     vdW  Elec       q    Type
REMARK                         _______ _______ _______ _____ _____    ______ ____
ROOT
ATOM      1  C   UNL     1      31.468  22.953  14.414  0.00  0.00    +0.112 C 
ATOM      2  C   UNL     1      30.480  21.784  14.478  0.00  0.00    +0.075 C 
ATOM      3  C   UNL     1      30.588  20.912  15.738  0.00  0.00    +0.113 C 
ATOM      4  C   UNL     1      29.806  21.445  16.967  0.00  0.00    +0.048 C 
ATOM      5  C   UNL     1      28.661  20.466  17.204  0.00  0.00    +0.004 C 
ATOM      6  C   UNL     1      29.199  19.142  16.699  0.00  0.00    +0.004 C 
ATOM      7  C   UNL     1      29.942  19.536  15.435  0.00  0.00    +0.048 C 
ATOM      8  O   UNL     1      31.959  20.667  16.103  0.00  0.00    -0.485 OA
ATOM      9  C   UNL     1      32.676  21.817  16.304  0.00  0.00    +0.126 A 
ATOM     10  C   UNL     1      33.643  21.807  17.307  0.00  0.00    +0.046 A 
ATOM     11  C   UNL     1      34.375  22.963  17.583  0.00  0.00    +0.004 A 
ATOM     12  C   UNL     1      34.154  24.122  16.841  0.00  0.00    +0.001 A 
ATOM     13  C   UNL     1      33.207  24.118  15.817  0.00  0.00    +0.009 A 
ATOM     14  C   UNL     1      32.459  22.961  15.541  0.00  0.00    +0.015 A 
ENDROOT
BRANCH   1  21
ATOM     15  N   UNL     1      34.909  24.287   9.317  0.00  0.00    -0.299 N 
ATOM     16  C   UNL     1      33.895  25.289   9.645  0.00  0.00    +0.127 C 
ATOM     17  C   UNL     1      32.536  24.660   9.936  0.00  0.00    +0.129 C 
ATOM     18  N   UNL     1      32.686  23.682  11.004  0.00  0.00    -0.275 N 
ATOM     19  C   UNL     1      31.974  23.850  12.170  0.00  0.00    +0.303 C 
ATOM     20  O   UNL     1      31.206  24.795  12.346  0.00  0.00    -0.253 OA
ATOM     21  N   UNL     1      32.193  22.920  13.145  0.00  0.00    -0.292 N 
ATOM     22  C   UNL     1      33.655  22.620  10.721  0.00  0.00    +0.205 C 
ATOM     23  C   UNL     1      34.819  22.976   9.772  0.00  0.00    +0.233 C 
ATOM     24  O   UNL     1      35.639  22.112   9.454  0.00  0.00    -0.274 OA
ATOM     25  H   UNL     1      32.517  22.009  12.866  0.00  0.00    +0.151 HD
BRANCH  15  27
ATOM     26  C   UNL     1      35.943  24.565   7.092  0.00  0.00    +0.024 C 
ATOM     27  C   UNL     1      36.100  24.720   8.594  0.00  0.00    +0.104 C 
ENDBRANCH  15  27
ENDBRANCH   1  21
TORSDOF 2
ENDMDL
