MODEL 1
REMARK VINA RESULT:      -7.7      0.000      0.000
REMARK  Name = ZINC000870248439
REMARK  2 active torsions:
REMARK  status: ('A' for Active; 'I' for Inactive)
REMARK    1  A    between atoms: C_2  and  C_4
REMARK    2  A    between atoms: C_7  and  C_8
REMARK                            x       y       z     vdW  Elec       q    Type
REMARK                         _______ _______ _______ _____ _____    ______ ____
ROOT
ATOM      1  C   UNL     1      29.398  17.360  16.553  0.00  0.00    +0.247 C 
ATOM      2  O   UNL     1      29.321  16.622  17.535  0.00  0.00    -0.270 OA
ATOM      3  N   UNL     1      29.632  18.739  16.645  0.00  0.00    -0.297 N 
ATOM      4  C   UNL     1      29.698  19.668  15.515  0.00  0.00    +0.108 C 
ATOM      5  C   UNL     1      30.755  20.752  15.687  0.00  0.00    +0.026 C 
ATOM      6  C   UNL     1      30.678  21.481  17.046  0.00  0.00    -0.025 C 
ATOM      7  C   UNL     1      31.933  22.384  17.159  0.00  0.00    +0.017 C 
ATOM      8  C   UNL     1      32.014  23.218  18.431  0.00  0.00    +0.069 C 
ATOM      9  S   UNL     1      30.610  24.354  18.602  0.00  0.00    -0.161 S 
ATOM     10  C   UNL     1      29.247  23.180  18.375  0.00  0.00    +0.069 C 
ATOM     11  C   UNL     1      29.404  22.364  17.096  0.00  0.00    +0.017 C 
ATOM     12  C   UNL     1      30.691  20.392  18.149  0.00  0.00    +0.026 C 
ATOM     13  C   UNL     1      29.588  19.348  17.972  0.00  0.00    +0.108 C 
ENDROOT
BRANCH   1  17
ATOM     14  C   UNL     1      29.041  15.267  12.849  0.00  0.00    +0.037 A 
ATOM     15  C   UNL     1      30.308  15.661  13.293  0.00  0.00    +0.014 A 
ATOM     16  C   UNL     1      30.426  16.429  14.452  0.00  0.00    +0.014 A 
ATOM     17  C   UNL     1      29.292  16.721  15.218  0.00  0.00    +0.037 A 
ATOM     18  C   UNL     1      28.020  16.405  14.726  0.00  0.00    +0.014 A 
ATOM     19  C   UNL     1      27.894  15.687  13.534  0.00  0.00    +0.014 A 
BRANCH  14  21
ATOM     20  N   UNL     1      28.783  13.060  11.865  0.00  0.00    -0.325 N 
ATOM     21  C   UNL     1      28.886  14.406  11.650  0.00  0.00    +0.242 C 
ATOM     22  O   UNL     1      28.800  14.879  10.527  0.00  0.00    -0.270 OA
ATOM     23  H   UNL     1      28.555  12.497  11.055  0.00  0.00    +0.145 HD
ATOM     24  H   UNL     1      28.586  12.671  12.776  0.00  0.00    +0.145 HD
ENDBRANCH  14  21
ENDBRANCH   1  17
TORSDOF 2
ENDMDL
MODEL 2
REMARK VINA RESULT:      -7.4      1.223      1.645
REMARK  Name = ZINC000870248439
REMARK  2 active torsions:
REMARK  status: ('A' for Active; 'I' for Inactive)
REMARK    1  A    between atoms: C_2  and  C_4
REMARK    2  A    between atoms: C_7  and  C_8
REMARK                            x       y       z     vdW  Elec       q    Type
REMARK                         _______ _______ _______ _____ _____    ______ ____
ROOT
ATOM      1  C   UNL     1      28.792  17.924  16.366  0.00  0.00    +0.247 C 
ATOM      2  O   UNL     1      27.989  17.733  17.278  0.00  0.00    -0.270 OA
ATOM      3  N   UNL     1      29.717  18.978  16.364  0.00  0.00    -0.297 N 
ATOM      4  C   UNL     1      30.669  19.274  15.292  0.00  0.00    +0.108 C 
ATOM      5  C   UNL     1      32.021  19.757  15.802  0.00  0.00    +0.026 C 
ATOM      6  C   UNL     1      31.920  20.902  16.833  0.00  0.00    -0.025 C 
ATOM      7  C   UNL     1      33.338  21.129  17.414  0.00  0.00    +0.017 C 
ATOM      8  C   UNL     1      33.445  22.256  18.432  0.00  0.00    +0.069 C 
ATOM      9  S   UNL     1      32.969  23.862  17.735  0.00  0.00    -0.161 S 
ATOM     10  C   UNL     1      31.354  23.419  17.041  0.00  0.00    +0.069 C 
ATOM     11  C   UNL     1      31.440  22.199  16.131  0.00  0.00    +0.017 C 
ATOM     12  C   UNL     1      30.946  20.431  17.944  0.00  0.00    +0.026 C 
ATOM     13  C   UNL     1      29.584  19.999  17.400  0.00  0.00    +0.108 C 
ENDROOT
BRANCH   1  17
ATOM     14  C   UNL     1      28.876  15.320  12.983  0.00  0.00    +0.037 A 
ATOM     15  C   UNL     1      27.645  15.663  13.553  0.00  0.00    +0.014 A 
ATOM     16  C   UNL     1      27.612  16.433  14.715  0.00  0.00    +0.014 A 
ATOM     17  C   UNL     1      28.799  16.942  15.253  0.00  0.00    +0.037 A 
ATOM     18  C   UNL     1      30.032  16.525  14.736  0.00  0.00    +0.014 A 
ATOM     19  C   UNL     1      30.070  15.704  13.606  0.00  0.00    +0.014 A 
BRANCH  14  21
ATOM     20  N   UNL     1      28.749  13.197  11.807  0.00  0.00    -0.325 N 
ATOM     21  C   UNL     1      28.943  14.547  11.718  0.00  0.00    +0.242 C 
ATOM     22  O   UNL     1      29.109  15.095  10.639  0.00  0.00    -0.270 OA
ATOM     23  H   UNL     1      28.675  12.699  10.929  0.00  0.00    +0.145 HD
ATOM     24  H   UNL     1      28.354  12.759  12.628  0.00  0.00    +0.145 HD
ENDBRANCH  14  21
ENDBRANCH   1  17
TORSDOF 2
ENDMDL
MODEL 3
REMARK VINA RESULT:      -6.9      1.914      2.299
REMARK  Name = ZINC000870248439
REMARK  2 active torsions:
REMARK  status: ('A' for Active; 'I' for Inactive)
REMARK    1  A    between atoms: C_2  and  C_4
REMARK    2  A    between atoms: C_7  and  C_8
REMARK                            x       y       z     vdW  Elec       q    Type
REMARK                         _______ _______ _______ _____ _____    ______ ____
ROOT
ATOM      1  C   UNL     1      29.090  16.765  14.872  0.00  0.00    +0.247 C 
ATOM      2  O   UNL     1      28.139  16.103  15.286  0.00  0.00    -0.270 OA
ATOM      3  N   UNL     1      29.396  18.049  15.345  0.00  0.00    -0.297 N 
ATOM      4  C   UNL     1      30.491  18.895  14.865  0.00  0.00    +0.108 C 
ATOM      5  C   UNL     1      31.163  19.696  15.973  0.00  0.00    +0.026 C 
ATOM      6  C   UNL     1      30.170  20.469  16.867  0.00  0.00    -0.025 C 
ATOM      7  C   UNL     1      30.974  21.045  18.061  0.00  0.00    +0.017 C 
ATOM      8  C   UNL     1      30.161  21.879  19.042  0.00  0.00    +0.069 C 
ATOM      9  S   UNL     1      29.401  23.325  18.255  0.00  0.00    -0.161 S 
ATOM     10  C   UNL     1      28.577  22.509  16.861  0.00  0.00    +0.069 C 
ATOM     11  C   UNL     1      29.538  21.635  16.064  0.00  0.00    +0.017 C 
ATOM     12  C   UNL     1      29.114  19.448  17.365  0.00  0.00    +0.026 C 
ATOM     13  C   UNL     1      28.426  18.696  16.225  0.00  0.00    +0.108 C 
ENDROOT
BRANCH   1  17
ATOM     14  C   UNL     1      31.549  14.661  12.087  0.00  0.00    +0.037 A 
ATOM     15  C   UNL     1      32.149  15.331  13.159  0.00  0.00    +0.014 A 
ATOM     16  C   UNL     1      31.364  16.102  14.018  0.00  0.00    +0.014 A 
ATOM     17  C   UNL     1      29.973  16.125  13.866  0.00  0.00    +0.037 A 
ATOM     18  C   UNL     1      29.386  15.529  12.743  0.00  0.00    +0.014 A 
ATOM     19  C   UNL     1      30.177  14.805  11.846  0.00  0.00    +0.014 A 
BRANCH  14  21
ATOM     20  N   UNL     1      31.893  12.518  10.994  0.00  0.00    -0.325 N 
ATOM     21  C   UNL     1      32.349  13.792  11.188  0.00  0.00    +0.242 C 
ATOM     22  O   UNL     1      33.337  14.209  10.605  0.00  0.00    -0.270 OA
ATOM     23  H   UNL     1      32.374  11.976  10.287  0.00  0.00    +0.145 HD
ATOM     24  H   UNL     1      30.956  12.234  11.243  0.00  0.00    +0.145 HD
ENDBRANCH  14  21
ENDBRANCH   1  17
TORSDOF 2
ENDMDL
MODEL 4
REMARK VINA RESULT:      -6.6     19.005     20.554
REMARK  Name = ZINC000870248439
REMARK  2 active torsions:
REMARK  status: ('A' for Active; 'I' for Inactive)
REMARK    1  A    between atoms: C_2  and  C_4
REMARK    2  A    between atoms: C_7  and  C_8
REMARK                            x       y       z     vdW  Elec       q    Type
REMARK                         _______ _______ _______ _____ _____    ______ ____
ROOT
ATOM      1  C   UNL     1      15.348   5.351  11.801  0.00  0.00    +0.247 C 
ATOM      2  O   UNL     1      14.759   4.756  12.703  0.00  0.00    -0.270 OA
ATOM      3  N   UNL     1      16.501   4.855  11.178  0.00  0.00    -0.297 N 
ATOM      4  C   UNL     1      17.261   5.536  10.127  0.00  0.00    +0.108 C 
ATOM      5  C   UNL     1      17.803   4.587   9.065  0.00  0.00    +0.026 C 
ATOM      6  C   UNL     1      18.560   3.374   9.647  0.00  0.00    -0.025 C 
ATOM      7  C   UNL     1      18.853   2.404   8.475  0.00  0.00    +0.017 C 
ATOM      8  C   UNL     1      19.634   1.153   8.854  0.00  0.00    +0.069 C 
ATOM      9  S   UNL     1      21.263   1.541   9.551  0.00  0.00    -0.161 S 
ATOM     10  C   UNL     1      20.766   2.720  10.835  0.00  0.00    +0.069 C 
ATOM     11  C   UNL     1      19.900   3.843  10.273  0.00  0.00    +0.017 C 
ATOM     12  C   UNL     1      17.621   2.706  10.685  0.00  0.00    +0.026 C 
ATOM     13  C   UNL     1      17.134   3.676  11.762  0.00  0.00    +0.108 C 
ENDROOT
BRANCH   1  17
ATOM     14  C   UNL     1      13.443   9.003  10.674  0.00  0.00    +0.037 A 
ATOM     15  C   UNL     1      13.201   7.846   9.926  0.00  0.00    +0.014 A 
ATOM     16  C   UNL     1      13.892   6.672  10.226  0.00  0.00    +0.014 A 
ATOM     17  C   UNL     1      14.751   6.626  11.330  0.00  0.00    +0.037 A 
ATOM     18  C   UNL     1      15.060   7.805  12.020  0.00  0.00    +0.014 A 
ATOM     19  C   UNL     1      14.413   8.997  11.685  0.00  0.00    +0.014 A 
BRANCH  14  21
ATOM     20  N   UNL     1      11.869  10.264   9.318  0.00  0.00    -0.325 N 
ATOM     21  C   UNL     1      12.685  10.253  10.414  0.00  0.00    +0.242 C 
ATOM     22  O   UNL     1      12.745  11.208  11.173  0.00  0.00    -0.270 OA
ATOM     23  H   UNL     1      11.267  11.072   9.220  0.00  0.00    +0.145 HD
ATOM     24  H   UNL     1      11.600   9.419   8.835  0.00  0.00    +0.145 HD
ENDBRANCH  14  21
ENDBRANCH   1  17
TORSDOF 2
ENDMDL
MODEL 5
REMARK VINA RESULT:      -6.5      2.782      4.173
REMARK  Name = ZINC000870248439
REMARK  2 active torsions:
REMARK  status: ('A' for Active; 'I' for Inactive)
REMARK    1  A    between atoms: C_2  and  C_4
REMARK    2  A    between atoms: C_7  and  C_8
REMARK                            x       y       z     vdW  Elec       q    Type
REMARK                         _______ _______ _______ _____ _____    ______ ____
ROOT
ATOM      1  C   UNL     1      29.927  20.708  18.374  0.00  0.00    +0.247 C 
ATOM      2  O   UNL     1      29.087  21.102  19.182  0.00  0.00    -0.270 OA
ATOM      3  N   UNL     1      31.241  21.192  18.333  0.00  0.00    -0.297 N 
ATOM      4  C   UNL     1      32.269  20.785  17.373  0.00  0.00    +0.108 C 
ATOM      5  C   UNL     1      33.661  20.688  17.985  0.00  0.00    +0.026 C 
ATOM      6  C   UNL     1      34.071  21.939  18.792  0.00  0.00    -0.025 C 
ATOM      7  C   UNL     1      35.395  21.604  19.524  0.00  0.00    +0.017 C 
ATOM      8  C   UNL     1      35.980  22.742  20.351  0.00  0.00    +0.069 C 
ATOM      9  S   UNL     1      36.364  24.200  19.343  0.00  0.00    -0.161 S 
ATOM     10  C   UNL     1      34.769  24.415  18.508  0.00  0.00    +0.069 C 
ATOM     11  C   UNL     1      34.304  23.131  17.829  0.00  0.00    +0.017 C 
ATOM     12  C   UNL     1      32.938  22.213  19.815  0.00  0.00    +0.026 C 
ATOM     13  C   UNL     1      31.563  22.351  19.161  0.00  0.00    +0.108 C 
ENDROOT
BRANCH   1  17
ATOM     14  C   UNL     1      29.030  17.549  15.644  0.00  0.00    +0.037 A 
ATOM     15  C   UNL     1      28.750  18.870  15.278  0.00  0.00    +0.014 A 
ATOM     16  C   UNL     1      28.948  19.899  16.199  0.00  0.00    +0.014 A 
ATOM     17  C   UNL     1      29.516  19.623  17.448  0.00  0.00    +0.037 A 
ATOM     18  C   UNL     1      29.711  18.294  17.845  0.00  0.00    +0.014 A 
ATOM     19  C   UNL     1      29.457  17.255  16.945  0.00  0.00    +0.014 A 
BRANCH  14  21
ATOM     20  N   UNL     1      29.943  16.190  13.848  0.00  0.00    -0.325 N 
ATOM     21  C   UNL     1      28.880  16.439  14.671  0.00  0.00    +0.242 C 
ATOM     22  O   UNL     1      27.876  15.744  14.640  0.00  0.00    -0.270 OA
ATOM     23  H   UNL     1      29.877  15.357  13.276  0.00  0.00    +0.145 HD
ATOM     24  H   UNL     1      30.864  16.563  14.026  0.00  0.00    +0.145 HD
ENDBRANCH  14  21
ENDBRANCH   1  17
TORSDOF 2
ENDMDL
MODEL 6
REMARK VINA RESULT:      -6.5      5.872      7.564
REMARK  Name = ZINC000870248439
REMARK  2 active torsions:
REMARK  status: ('A' for Active; 'I' for Inactive)
REMARK    1  A    between atoms: C_2  and  C_4
REMARK    2  A    between atoms: C_7  and  C_8
REMARK                            x       y       z     vdW  Elec       q    Type
REMARK                         _______ _______ _______ _____ _____    ______ ____
ROOT
ATOM      1  C   UNL     1      33.248  23.936  13.553  0.00  0.00    +0.247 C 
ATOM      2  O   UNL     1      33.932  24.758  14.162  0.00  0.00    -0.270 OA
ATOM      3  N   UNL     1      32.392  23.027  14.190  0.00  0.00    -0.297 N 
ATOM      4  C   UNL     1      31.584  22.006  13.520  0.00  0.00    +0.108 C 
ATOM      5  C   UNL     1      30.214  21.808  14.158  0.00  0.00    +0.026 C 
ATOM      6  C   UNL     1      30.266  21.607  15.688  0.00  0.00    -0.025 C 
ATOM      7  C   UNL     1      28.808  21.642  16.210  0.00  0.00    +0.017 C 
ATOM      8  C   UNL     1      28.655  21.422  17.709  0.00  0.00    +0.069 C 
ATOM      9  S   UNL     1      29.298  19.811  18.240  0.00  0.00    -0.161 S 
ATOM     10  C   UNL     1      30.952  19.892  17.501  0.00  0.00    +0.069 C 
ATOM     11  C   UNL     1      30.896  20.229  16.015  0.00  0.00    +0.017 C 
ATOM     12  C   UNL     1      31.082  22.789  16.275  0.00  0.00    +0.026 C 
ATOM     13  C   UNL     1      32.469  22.928  15.646  0.00  0.00    +0.108 C 
ENDROOT
BRANCH   1  17
ATOM     14  C   UNL     1      33.185  23.860   9.285  0.00  0.00    +0.037 A 
ATOM     15  C   UNL     1      34.179  23.150   9.968  0.00  0.00    +0.014 A 
ATOM     16  C   UNL     1      34.267  23.247  11.356  0.00  0.00    +0.014 A 
ATOM     17  C   UNL     1      33.307  23.972  12.071  0.00  0.00    +0.037 A 
ATOM     18  C   UNL     1      32.370  24.753  11.382  0.00  0.00    +0.014 A 
ATOM     19  C   UNL     1      32.316  24.705   9.987  0.00  0.00    +0.014 A 
BRANCH  14  21
ATOM     20  N   UNL     1      32.374  24.747   7.173  0.00  0.00    -0.325 N 
ATOM     21  C   UNL     1      33.032  23.735   7.814  0.00  0.00    +0.242 C 
ATOM     22  O   UNL     1      33.518  22.801   7.195  0.00  0.00    -0.270 OA
ATOM     23  H   UNL     1      32.383  24.713   6.161  0.00  0.00    +0.145 HD
ATOM     24  H   UNL     1      32.199  25.642   7.609  0.00  0.00    +0.145 HD
ENDBRANCH  14  21
ENDBRANCH   1  17
TORSDOF 2
ENDMDL
MODEL 7
REMARK VINA RESULT:      -6.5      4.033      7.537
REMARK  Name = ZINC000870248439
REMARK  2 active torsions:
REMARK  status: ('A' for Active; 'I' for Inactive)
REMARK    1  A    between atoms: C_2  and  C_4
REMARK    2  A    between atoms: C_7  and  C_8
REMARK                            x       y       z     vdW  Elec       q    Type
REMARK                         _______ _______ _______ _____ _____    ______ ____
ROOT
ATOM      1  C   UNL     1      29.759  17.123  15.081  0.00  0.00    +0.247 C 
ATOM      2  O   UNL     1      28.930  16.215  15.104  0.00  0.00    -0.270 OA
ATOM      3  N   UNL     1      30.913  17.090  14.286  0.00  0.00    -0.297 N 
ATOM      4  C   UNL     1      31.950  18.124  14.246  0.00  0.00    +0.108 C 
ATOM      5  C   UNL     1      32.519  18.353  12.851  0.00  0.00    +0.026 C 
ATOM      6  C   UNL     1      32.955  17.054  12.140  0.00  0.00    -0.025 C 
ATOM      7  C   UNL     1      33.298  17.421  10.674  0.00  0.00    +0.017 C 
ATOM      8  C   UNL     1      33.789  16.261   9.817  0.00  0.00    +0.069 C 
ATOM      9  S   UNL     1      35.305  15.512  10.473  0.00  0.00    -0.161 S 
ATOM     10  C   UNL     1      34.776  15.214  12.182  0.00  0.00    +0.069 C 
ATOM     11  C   UNL     1      34.216  16.474  12.832  0.00  0.00    +0.017 C 
ATOM     12  C   UNL     1      31.749  16.080  12.189  0.00  0.00    +0.026 C 
ATOM     13  C   UNL     1      31.234  15.837  13.607  0.00  0.00    +0.108 C 
ENDROOT
BRANCH   1  17
ATOM     14  C   UNL     1      29.140  20.720  17.296  0.00  0.00    +0.037 A 
ATOM     15  C   UNL     1      29.740  19.624  17.925  0.00  0.00    +0.014 A 
ATOM     16  C   UNL     1      29.858  18.414  17.241  0.00  0.00    +0.014 A 
ATOM     17  C   UNL     1      29.468  18.326  15.900  0.00  0.00    +0.037 A 
ATOM     18  C   UNL     1      28.787  19.394  15.302  0.00  0.00    +0.014 A 
ATOM     19  C   UNL     1      28.614  20.589  16.005  0.00  0.00    +0.014 A 
BRANCH  14  21
ATOM     20  N   UNL     1      28.562  23.080  17.244  0.00  0.00    -0.325 N 
ATOM     21  C   UNL     1      29.048  22.035  17.979  0.00  0.00    +0.242 C 
ATOM     22  O   UNL     1      29.340  22.168  19.157  0.00  0.00    -0.270 OA
ATOM     23  H   UNL     1      28.388  23.938  17.752  0.00  0.00    +0.145 HD
ATOM     24  H   UNL     1      28.072  22.947  16.371  0.00  0.00    +0.145 HD
ENDBRANCH  14  21
ENDBRANCH   1  17
TORSDOF 2
ENDMDL
MODEL 8
REMARK VINA RESULT:      -6.4      3.452      5.222
REMARK  Name = ZINC000870248439
REMARK  2 active torsions:
REMARK  status: ('A' for Active; 'I' for Inactive)
REMARK    1  A    between atoms: C_2  and  C_4
REMARK    2  A    between atoms: C_7  and  C_8
REMARK                            x       y       z     vdW  Elec       q    Type
REMARK                         _______ _______ _______ _____ _____    ______ ____
ROOT
ATOM      1  C   UNL     1      30.154  22.168  17.790  0.00  0.00    +0.247 C 
ATOM      2  O   UNL     1      29.466  22.964  18.428  0.00  0.00    -0.270 OA
ATOM      3  N   UNL     1      31.407  22.495  17.253  0.00  0.00    -0.297 N 
ATOM      4  C   UNL     1      32.251  21.602  16.456  0.00  0.00    +0.108 C 
ATOM      5  C   UNL     1      33.738  21.759  16.747  0.00  0.00    +0.026 C 
ATOM      6  C   UNL     1      34.226  23.224  16.705  0.00  0.00    -0.025 C 
ATOM      7  C   UNL     1      35.683  23.242  17.232  0.00  0.00    +0.017 C 
ATOM      8  C   UNL     1      36.351  24.610  17.230  0.00  0.00    +0.069 C 
ATOM      9  S   UNL     1      36.451  25.327  15.567  0.00  0.00    -0.161 S 
ATOM     10  C   UNL     1      34.716  25.167  15.068  0.00  0.00    +0.069 C 
ATOM     11  C   UNL     1      34.201  23.743  15.244  0.00  0.00    +0.017 C 
ATOM     12  C   UNL     1      33.298  24.040  17.643  0.00  0.00    +0.026 C 
ATOM     13  C   UNL     1      31.817  23.896  17.292  0.00  0.00    +0.108 C 
ENDROOT
BRANCH   1  17
ATOM     14  C   UNL     1      28.926  18.109  17.293  0.00  0.00    +0.037 A 
ATOM     15  C   UNL     1      28.520  19.067  16.357  0.00  0.00    +0.014 A 
ATOM     16  C   UNL     1      28.833  20.410  16.562  0.00  0.00    +0.014 A 
ATOM     17  C   UNL     1      29.633  20.786  17.647  0.00  0.00    +0.037 A 
ATOM     18  C   UNL     1      29.962  19.842  18.629  0.00  0.00    +0.014 A 
ATOM     19  C   UNL     1      29.598  18.504  18.457  0.00  0.00    +0.014 A 
BRANCH  14  21
ATOM     20  N   UNL     1      28.638  15.867  18.185  0.00  0.00    -0.325 N 
ATOM     21  C   UNL     1      28.653  16.666  17.077  0.00  0.00    +0.242 C 
ATOM     22  O   UNL     1      28.401  16.221  15.968  0.00  0.00    -0.270 OA
ATOM     23  H   UNL     1      28.331  14.913  18.041  0.00  0.00    +0.145 HD
ATOM     24  H   UNL     1      28.579  16.241  19.122  0.00  0.00    +0.145 HD
ENDBRANCH  14  21
ENDBRANCH   1  17
TORSDOF 2
ENDMDL
MODEL 9
REMARK VINA RESULT:      -6.3     18.775     20.333
REMARK  Name = ZINC000870248439
REMARK  2 active torsions:
REMARK  status: ('A' for Active; 'I' for Inactive)
REMARK    1  A    between atoms: C_2  and  C_4
REMARK    2  A    between atoms: C_7  and  C_8
REMARK                            x       y       z     vdW  Elec       q    Type
REMARK                         _______ _______ _______ _____ _____    ______ ____
ROOT
ATOM      1  C   UNL     1      16.177   7.180  11.835  0.00  0.00    +0.247 C 
ATOM      2  O   UNL     1      16.865   8.031  12.399  0.00  0.00    -0.270 OA
ATOM      3  N   UNL     1      14.876   7.425  11.375  0.00  0.00    -0.297 N 
ATOM      4  C   UNL     1      14.002   6.443  10.731  0.00  0.00    +0.108 C 
ATOM      5  C   UNL     1      13.159   7.032   9.607  0.00  0.00    +0.026 C 
ATOM      6  C   UNL     1      12.405   8.318  10.007  0.00  0.00    -0.025 C 
ATOM      7  C   UNL     1      11.782   8.910   8.717  0.00  0.00    +0.017 C 
ATOM      8  C   UNL     1      10.960  10.176   8.921  0.00  0.00    +0.069 C 
ATOM      9  S   UNL     1       9.554   9.914  10.036  0.00  0.00    -0.161 S 
ATOM     10  C   UNL     1      10.422   9.162  11.440  0.00  0.00    +0.069 C 
ATOM     11  C   UNL     1      11.275   7.974  11.011  0.00  0.00    +0.017 C 
ATOM     12  C   UNL     1      13.454   9.294  10.602  0.00  0.00    +0.026 C 
ATOM     13  C   UNL     1      14.247   8.686  11.758  0.00  0.00    +0.108 C 
ENDROOT
BRANCH   1  17
ATOM     14  C   UNL     1      17.766   3.320  10.939  0.00  0.00    +0.037 A 
ATOM     15  C   UNL     1      17.106   3.522  12.155  0.00  0.00    +0.014 A 
ATOM     16  C   UNL     1      16.669   4.802  12.500  0.00  0.00    +0.014 A 
ATOM     17  C   UNL     1      16.804   5.857  11.592  0.00  0.00    +0.037 A 
ATOM     18  C   UNL     1      17.544   5.673  10.416  0.00  0.00    +0.014 A 
ATOM     19  C   UNL     1      18.035   4.405  10.095  0.00  0.00    +0.014 A 
BRANCH  14  21
ATOM     20  N   UNL     1      17.510   1.388   9.487  0.00  0.00    -0.325 N 
ATOM     21  C   UNL     1      18.196   1.962  10.520  0.00  0.00    +0.242 C 
ATOM     22  O   UNL     1      19.152   1.404  11.036  0.00  0.00    -0.270 OA
ATOM     23  H   UNL     1      17.888   0.519   9.130  0.00  0.00    +0.145 HD
ATOM     24  H   UNL     1      16.904   1.919   8.877  0.00  0.00    +0.145 HD
ENDBRANCH  14  21
ENDBRANCH   1  17
TORSDOF 2
ENDMDL
