MODEL 1
REMARK VINA RESULT:      -7.0      0.000      0.000
REMARK  Name = ZINC000543478179
REMARK  8 active torsions:
REMARK  status: ('A' for Active; 'I' for Inactive)
REMARK    1  A    between atoms: C_1  and  C_2
REMARK    2  A    between atoms: C_2  and  N_3
REMARK    3  A    between atoms: N_9  and  C_10
REMARK    4  A    between atoms: C_10  and  C_11
REMARK    5  A    between atoms: C_10  and  C_12
REMARK    6  A    between atoms: C_15  and  O_16
REMARK    7  A    between atoms: O_16  and  C_17
REMARK    8  A    between atoms: C_17  and  C_18
REMARK                            x       y       z     vdW  Elec       q    Type
REMARK                         _______ _______ _______ _____ _____    ______ ____
ROOT
ATOM      1  C   UNL     1      29.686  22.521  17.709  0.00  0.00    +0.102 C 
ATOM      2  C   UNL     1      30.719  23.592  17.331  0.00  0.00    +0.033 C 
ENDROOT
BRANCH   1   9
ATOM      3  N   UNL     1      23.836  25.098  17.696  0.00  0.00    -0.299 N 
ATOM      4  C   UNL     1      24.581  25.320  18.935  0.00  0.00    +0.127 C 
ATOM      5  C   UNL     1      25.280  24.046  19.419  0.00  0.00    +0.129 C 
ATOM      6  N   UNL     1      26.187  23.571  18.378  0.00  0.00    -0.275 N 
ATOM      7  C   UNL     1      27.516  23.309  18.681  0.00  0.00    +0.303 C 
ATOM      8  O   UNL     1      27.978  23.416  19.809  0.00  0.00    -0.253 OA
ATOM      9  N   UNL     1      28.289  22.952  17.604  0.00  0.00    -0.293 N 
ATOM     10  C   UNL     1      25.581  23.431  17.053  0.00  0.00    +0.205 C 
ATOM     11  C   UNL     1      24.212  24.092  16.809  0.00  0.00    +0.233 C 
ATOM     12  O   UNL     1      23.565  23.827  15.795  0.00  0.00    -0.274 OA
ATOM     13  H   UNL     1      27.785  22.488  16.868  0.00  0.00    +0.151 HD
BRANCH   3  15
ATOM     14  C   UNL     1      22.718  27.226  18.267  0.00  0.00    +0.024 C 
ATOM     15  C   UNL     1      22.931  26.142  17.218  0.00  0.00    +0.104 C 
ENDBRANCH   3  15
ENDBRANCH   1   9
BRANCH   1  16
ATOM     16  C   UNL     1      29.861  21.300  16.814  0.00  0.00    -0.024 A 
ATOM     17  C   UNL     1      29.928  20.018  17.390  0.00  0.00    +0.009 A 
ATOM     18  C   UNL     1      30.172  18.890  16.612  0.00  0.00    +0.049 A 
ATOM     19  C   UNL     1      30.403  19.020  15.243  0.00  0.00    +0.156 A 
ATOM     20  C   UNL     1      30.274  20.280  14.652  0.00  0.00    +0.165 A 
ATOM     21  F   UNL     1      30.443  20.429  13.330  0.00  0.00    -0.202 F 
ATOM     22  C   UNL     1      30.009  21.416  15.425  0.00  0.00    +0.047 A 
BRANCH  19  23
ATOM     23  O   UNL     1      30.774  17.977  14.436  0.00  0.00    -0.489 OA
BRANCH  23  24
ATOM     24  C   UNL     1      30.426  16.684  14.941  0.00  0.00    +0.232 C 
BRANCH  24  25
ATOM     25  C   UNL     1      30.052  15.800  13.797  0.00  0.00    +0.027 C 
ATOM     26  C   UNL     1      29.199  14.580  14.027  0.00  0.00    +0.007 C 
ATOM     27  C   UNL     1      30.649  14.421  13.660  0.00  0.00    +0.007 C 
ENDBRANCH  24  25
ENDBRANCH  23  24
ENDBRANCH  19  23
ENDBRANCH   1  16
TORSDOF 6
ENDMDL
MODEL 2
REMARK VINA RESULT:      -6.9      4.517      8.594
REMARK  Name = ZINC000543478179
REMARK  8 active torsions:
REMARK  status: ('A' for Active; 'I' for Inactive)
REMARK    1  A    between atoms: C_1  and  C_2
REMARK    2  A    between atoms: C_2  and  N_3
REMARK    3  A    between atoms: N_9  and  C_10
REMARK    4  A    between atoms: C_10  and  C_11
REMARK    5  A    between atoms: C_10  and  C_12
REMARK    6  A    between atoms: C_15  and  O_16
REMARK    7  A    between atoms: O_16  and  C_17
REMARK    8  A    between atoms: C_17  and  C_18
REMARK                            x       y       z     vdW  Elec       q    Type
REMARK                         _______ _______ _______ _____ _____    ______ ____
ROOT
ATOM      1  C   UNL     1      31.670  20.795  15.722  0.00  0.00    +0.102 C 
ATOM      2  C   UNL     1      31.355  19.369  15.248  0.00  0.00    +0.033 C 
ENDROOT
BRANCH   1   9
ATOM      3  N   UNL     1      33.236  24.520  10.768  0.00  0.00    -0.299 N 
ATOM      4  C   UNL     1      34.383  23.895  11.428  0.00  0.00    +0.127 C 
ATOM      5  C   UNL     1      34.283  23.985  12.954  0.00  0.00    +0.129 C 
ATOM      6  N   UNL     1      33.049  23.339  13.394  0.00  0.00    -0.275 N 
ATOM      7  C   UNL     1      33.090  22.361  14.378  0.00  0.00    +0.303 C 
ATOM      8  O   UNL     1      34.121  22.026  14.946  0.00  0.00    -0.253 OA
ATOM      9  N   UNL     1      31.881  21.767  14.645  0.00  0.00    -0.293 N 
ATOM     10  C   UNL     1      31.839  23.793  12.707  0.00  0.00    +0.205 C 
ATOM     11  C   UNL     1      32.005  24.612  11.413  0.00  0.00    +0.233 C 
ATOM     12  O   UNL     1      31.040  25.197  10.919  0.00  0.00    -0.274 OA
ATOM     13  H   UNL     1      31.084  22.358  14.481  0.00  0.00    +0.151 HD
BRANCH   3  15
ATOM     14  C   UNL     1      32.888  23.459   8.564  0.00  0.00    +0.024 C 
ATOM     15  C   UNL     1      33.278  24.722   9.321  0.00  0.00    +0.104 C 
ENDBRANCH   3  15
ENDBRANCH   1   9
BRANCH   1  16
ATOM     16  C   UNL     1      30.529  21.310  16.591  0.00  0.00    -0.024 A 
ATOM     17  C   UNL     1      29.331  20.576  16.676  0.00  0.00    +0.009 A 
ATOM     18  C   UNL     1      28.238  21.058  17.390  0.00  0.00    +0.049 A 
ATOM     19  C   UNL     1      28.298  22.310  18.000  0.00  0.00    +0.156 A 
ATOM     20  C   UNL     1      29.504  23.017  17.977  0.00  0.00    +0.165 A 
ATOM     21  F   UNL     1      29.607  24.203  18.595  0.00  0.00    -0.202 F 
ATOM     22  C   UNL     1      30.613  22.530  17.277  0.00  0.00    +0.047 A 
BRANCH  19  23
ATOM     23  O   UNL     1      27.227  22.907  18.611  0.00  0.00    -0.489 OA
BRANCH  23  24
ATOM     24  C   UNL     1      26.185  23.309  17.717  0.00  0.00    +0.232 C 
BRANCH  24  25
ATOM     25  C   UNL     1      24.992  23.723  18.515  0.00  0.00    +0.027 C 
ATOM     26  C   UNL     1      23.794  24.329  17.833  0.00  0.00    +0.007 C 
ATOM     27  C   UNL     1      24.665  25.183  18.714  0.00  0.00    +0.007 C 
ENDBRANCH  24  25
ENDBRANCH  23  24
ENDBRANCH  19  23
ENDBRANCH   1  16
TORSDOF 6
ENDMDL
MODEL 3
REMARK VINA RESULT:      -6.6      5.831      7.492
REMARK  Name = ZINC000543478179
REMARK  8 active torsions:
REMARK  status: ('A' for Active; 'I' for Inactive)
REMARK    1  A    between atoms: C_1  and  C_2
REMARK    2  A    between atoms: C_2  and  N_3
REMARK    3  A    between atoms: N_9  and  C_10
REMARK    4  A    between atoms: C_10  and  C_11
REMARK    5  A    between atoms: C_10  and  C_12
REMARK    6  A    between atoms: C_15  and  O_16
REMARK    7  A    between atoms: O_16  and  C_17
REMARK    8  A    between atoms: C_17  and  C_18
REMARK                            x       y       z     vdW  Elec       q    Type
REMARK                         _______ _______ _______ _____ _____    ______ ____
ROOT
ATOM      1  C   UNL     1      31.880  20.473  15.935  0.00  0.00    +0.102 C 
ATOM      2  C   UNL     1      32.993  20.630  16.981  0.00  0.00    +0.033 C 
ENDROOT
BRANCH   1   9
ATOM      3  N   UNL     1      33.519  23.423  10.506  0.00  0.00    -0.299 N 
ATOM      4  C   UNL     1      32.806  24.279  11.456  0.00  0.00    +0.127 C 
ATOM      5  C   UNL     1      31.592  23.570  12.064  0.00  0.00    +0.129 C 
ATOM      6  N   UNL     1      32.032  22.350  12.734  0.00  0.00    -0.275 N 
ATOM      7  C   UNL     1      31.670  22.113  14.053  0.00  0.00    +0.303 C 
ATOM      8  O   UNL     1      30.949  22.865  14.694  0.00  0.00    -0.253 OA
ATOM      9  N   UNL     1      32.216  20.978  14.601  0.00  0.00    -0.293 N 
ATOM     10  C   UNL     1      32.869  21.468  11.918  0.00  0.00    +0.205 C 
ATOM     11  C   UNL     1      33.465  22.036  10.617  0.00  0.00    +0.233 C 
ATOM     12  O   UNL     1      33.989  21.285   9.793  0.00  0.00    -0.274 OA
ATOM     13  H   UNL     1      32.406  20.248  13.937  0.00  0.00    +0.151 HD
BRANCH   3  15
ATOM     14  C   UNL     1      34.077  25.274   8.968  0.00  0.00    +0.024 C 
ATOM     15  C   UNL     1      34.564  24.013   9.671  0.00  0.00    +0.104 C 
ENDBRANCH   3  15
ENDBRANCH   1   9
BRANCH   1  16
ATOM     16  C   UNL     1      31.513  19.001  15.793  0.00  0.00    -0.024 A 
ATOM     17  C   UNL     1      32.390  18.126  15.123  0.00  0.00    +0.009 A 
ATOM     18  C   UNL     1      32.050  16.796  14.900  0.00  0.00    +0.049 A 
ATOM     19  C   UNL     1      30.803  16.315  15.299  0.00  0.00    +0.156 A 
ATOM     20  C   UNL     1      29.953  17.157  16.021  0.00  0.00    +0.165 A 
ATOM     21  F   UNL     1      28.768  16.709  16.460  0.00  0.00    -0.202 F 
ATOM     22  C   UNL     1      30.297  18.491  16.267  0.00  0.00    +0.047 A 
BRANCH  19  23
ATOM     23  O   UNL     1      30.347  15.058  15.002  0.00  0.00    -0.489 OA
BRANCH  23  24
ATOM     24  C   UNL     1      30.460  14.697  13.622  0.00  0.00    +0.232 C 
BRANCH  24  25
ATOM     25  C   UNL     1      29.102  14.724  13.001  0.00  0.00    +0.027 C 
ATOM     26  C   UNL     1      27.939  14.056  13.689  0.00  0.00    +0.007 C 
ATOM     27  C   UNL     1      28.495  13.470  12.419  0.00  0.00    +0.007 C 
ENDBRANCH  24  25
ENDBRANCH  23  24
ENDBRANCH  19  23
ENDBRANCH   1  16
TORSDOF 6
ENDMDL
MODEL 4
REMARK VINA RESULT:      -6.5      6.370      8.587
REMARK  Name = ZINC000543478179
REMARK  8 active torsions:
REMARK  status: ('A' for Active; 'I' for Inactive)
REMARK    1  A    between atoms: C_1  and  C_2
REMARK    2  A    between atoms: C_2  and  N_3
REMARK    3  A    between atoms: N_9  and  C_10
REMARK    4  A    between atoms: C_10  and  C_11
REMARK    5  A    between atoms: C_10  and  C_12
REMARK    6  A    between atoms: C_15  and  O_16
REMARK    7  A    between atoms: O_16  and  C_17
REMARK    8  A    between atoms: C_17  and  C_18
REMARK                            x       y       z     vdW  Elec       q    Type
REMARK                         _______ _______ _______ _____ _____    ______ ____
ROOT
ATOM      1  C   UNL     1      32.421  24.631  11.733  0.00  0.00    +0.102 C 
ATOM      2  C   UNL     1      31.171  25.434  11.345  0.00  0.00    +0.033 C 
ENDROOT
BRANCH   1   9
ATOM      3  N   UNL     1      31.242  20.277  16.263  0.00  0.00    -0.299 N 
ATOM      4  C   UNL     1      32.049  21.409  16.721  0.00  0.00    +0.127 C 
ATOM      5  C   UNL     1      33.154  21.765  15.722  0.00  0.00    +0.129 C 
ATOM      6  N   UNL     1      32.551  22.081  14.430  0.00  0.00    -0.275 N 
ATOM      7  C   UNL     1      32.863  23.273  13.791  0.00  0.00    +0.303 C 
ATOM      8  O   UNL     1      33.669  24.079  14.236  0.00  0.00    -0.253 OA
ATOM      9  N   UNL     1      32.169  23.498  12.627  0.00  0.00    -0.293 N 
ATOM     10  C   UNL     1      31.616  21.074  13.925  0.00  0.00    +0.205 C 
ATOM     11  C   UNL     1      31.114  19.997  14.905  0.00  0.00    +0.233 C 
ATOM     12  O   UNL     1      30.506  19.010  14.486  0.00  0.00    -0.274 OA
ATOM     13  H   UNL     1      31.893  22.662  12.142  0.00  0.00    +0.151 HD
BRANCH   3  15
ATOM     14  C   UNL     1      29.005  20.473  17.293  0.00  0.00    +0.024 C 
ATOM     15  C   UNL     1      30.293  19.665  17.191  0.00  0.00    +0.104 C 
ENDBRANCH   3  15
ENDBRANCH   1   9
BRANCH   1  16
ATOM     16  C   UNL     1      33.092  24.086  10.477  0.00  0.00    -0.024 A 
ATOM     17  C   UNL     1      34.495  23.992  10.422  0.00  0.00    +0.009 A 
ATOM     18  C   UNL     1      35.145  23.580   9.263  0.00  0.00    +0.049 A 
ATOM     19  C   UNL     1      34.411  23.297   8.111  0.00  0.00    +0.156 A 
ATOM     20  C   UNL     1      33.015  23.325   8.175  0.00  0.00    +0.165 A 
ATOM     21  F   UNL     1      32.281  23.011   7.097  0.00  0.00    -0.202 F 
ATOM     22  C   UNL     1      32.354  23.719   9.343  0.00  0.00    +0.047 A 
BRANCH  19  23
ATOM     23  O   UNL     1      34.984  23.010   6.900  0.00  0.00    -0.489 OA
BRANCH  23  24
ATOM     24  C   UNL     1      35.556  21.702   6.811  0.00  0.00    +0.232 C 
BRANCH  24  25
ATOM     25  C   UNL     1      34.567  20.782   6.174  0.00  0.00    +0.027 C 
ATOM     26  C   UNL     1      33.827  19.768   7.007  0.00  0.00    +0.007 C 
ATOM     27  C   UNL     1      34.868  19.311   6.021  0.00  0.00    +0.007 C 
ENDBRANCH  24  25
ENDBRANCH  23  24
ENDBRANCH  19  23
ENDBRANCH   1  16
TORSDOF 6
ENDMDL
MODEL 5
REMARK VINA RESULT:      -6.5      4.610      7.015
REMARK  Name = ZINC000543478179
REMARK  8 active torsions:
REMARK  status: ('A' for Active; 'I' for Inactive)
REMARK    1  A    between atoms: C_1  and  C_2
REMARK    2  A    between atoms: C_2  and  N_3
REMARK    3  A    between atoms: N_9  and  C_10
REMARK    4  A    between atoms: C_10  and  C_11
REMARK    5  A    between atoms: C_10  and  C_12
REMARK    6  A    between atoms: C_15  and  O_16
REMARK    7  A    between atoms: O_16  and  C_17
REMARK    8  A    between atoms: C_17  and  C_18
REMARK                            x       y       z     vdW  Elec       q    Type
REMARK                         _______ _______ _______ _____ _____    ______ ____
ROOT
ATOM      1  C   UNL     1      30.081  20.573  16.212  0.00  0.00    +0.102 C 
ATOM      2  C   UNL     1      28.974  20.673  17.270  0.00  0.00    +0.033 C 
ENDROOT
BRANCH   1   9
ATOM      3  N   UNL     1      35.233  23.726  18.307  0.00  0.00    -0.299 N 
ATOM      4  C   UNL     1      34.163  24.595  17.815  0.00  0.00    +0.127 C 
ATOM      5  C   UNL     1      33.578  24.089  16.493  0.00  0.00    +0.129 C 
ATOM      6  N   UNL     1      33.065  22.735  16.681  0.00  0.00    -0.275 N 
ATOM      7  C   UNL     1      31.764  22.427  16.309  0.00  0.00    +0.303 C 
ATOM      8  O   UNL     1      31.011  23.234  15.779  0.00  0.00    -0.253 OA
ATOM      9  N   UNL     1      31.368  21.148  16.615  0.00  0.00    -0.293 N 
ATOM     10  C   UNL     1      34.011  21.799  17.292  0.00  0.00    +0.205 C 
ATOM     11  C   UNL     1      35.270  22.377  17.963  0.00  0.00    +0.233 C 
ATOM     12  O   UNL     1      36.194  21.635  18.297  0.00  0.00    -0.274 OA
ATOM     13  H   UNL     1      32.116  20.476  16.630  0.00  0.00    +0.151 HD
BRANCH   3  15
ATOM     14  C   UNL     1      35.304  24.052  20.755  0.00  0.00    +0.024 C 
ATOM     15  C   UNL     1      36.049  24.179  19.433  0.00  0.00    +0.104 C 
ENDBRANCH   3  15
ENDBRANCH   1   9
BRANCH   1  16
ATOM     16  C   UNL     1      30.321  19.111  15.856  0.00  0.00    -0.024 A 
ATOM     17  C   UNL     1      31.249  18.782  14.850  0.00  0.00    +0.009 A 
ATOM     18  C   UNL     1      31.431  17.465  14.439  0.00  0.00    +0.049 A 
ATOM     19  C   UNL     1      30.655  16.446  14.991  0.00  0.00    +0.156 A 
ATOM     20  C   UNL     1      29.778  16.753  16.035  0.00  0.00    +0.165 A 
ATOM     21  F   UNL     1      29.053  15.787  16.618  0.00  0.00    -0.202 F 
ATOM     22  C   UNL     1      29.604  18.073  16.467  0.00  0.00    +0.047 A 
BRANCH  19  23
ATOM     23  O   UNL     1      30.685  15.149  14.551  0.00  0.00    -0.489 OA
BRANCH  23  24
ATOM     24  C   UNL     1      30.507  14.999  13.139  0.00  0.00    +0.232 C 
BRANCH  24  25
ATOM     25  C   UNL     1      29.050  14.844  12.848  0.00  0.00    +0.027 C 
ATOM     26  C   UNL     1      28.178  14.018  13.757  0.00  0.00    +0.007 C 
ATOM     27  C   UNL     1      28.495  13.524  12.372  0.00  0.00    +0.007 C 
ENDBRANCH  24  25
ENDBRANCH  23  24
ENDBRANCH  19  23
ENDBRANCH   1  16
TORSDOF 6
ENDMDL
MODEL 6
REMARK VINA RESULT:      -6.5      4.057      9.727
REMARK  Name = ZINC000543478179
REMARK  8 active torsions:
REMARK  status: ('A' for Active; 'I' for Inactive)
REMARK    1  A    between atoms: C_1  and  C_2
REMARK    2  A    between atoms: C_2  and  N_3
REMARK    3  A    between atoms: N_9  and  C_10
REMARK    4  A    between atoms: C_10  and  C_11
REMARK    5  A    between atoms: C_10  and  C_12
REMARK    6  A    between atoms: C_15  and  O_16
REMARK    7  A    between atoms: O_16  and  C_17
REMARK    8  A    between atoms: C_17  and  C_18
REMARK                            x       y       z     vdW  Elec       q    Type
REMARK                         _______ _______ _______ _____ _____    ______ ____
ROOT
ATOM      1  C   UNL     1      25.745  23.355  18.235  0.00  0.00    +0.102 C 
ATOM      2  C   UNL     1      24.883  23.762  17.031  0.00  0.00    +0.033 C 
ENDROOT
BRANCH   1   9
ATOM      3  N   UNL     1      31.833  22.793  16.369  0.00  0.00    -0.299 N 
ATOM      4  C   UNL     1      31.001  21.636  16.038  0.00  0.00    +0.127 C 
ATOM      5  C   UNL     1      30.109  21.218  17.212  0.00  0.00    +0.129 C 
ATOM      6  N   UNL     1      29.260  22.343  17.595  0.00  0.00    -0.275 N 
ATOM      7  C   UNL     1      27.886  22.174  17.693  0.00  0.00    +0.303 C 
ATOM      8  O   UNL     1      27.330  21.098  17.512  0.00  0.00    -0.253 OA
ATOM      9  N   UNL     1      27.186  23.322  17.975  0.00  0.00    -0.293 N 
ATOM     10  C   UNL     1      29.973  23.600  17.829  0.00  0.00    +0.205 C 
ATOM     11  C   UNL     1      31.429  23.708  17.339  0.00  0.00    +0.233 C 
ATOM     12  O   UNL     1      32.138  24.650  17.696  0.00  0.00    -0.274 OA
ATOM     13  H   UNL     1      27.702  24.000  18.508  0.00  0.00    +0.151 HD
BRANCH   3  15
ATOM     14  C   UNL     1      32.448  23.094  13.995  0.00  0.00    +0.024 C 
ATOM     15  C   UNL     1      32.899  23.183  15.448  0.00  0.00    +0.104 C 
ENDBRANCH   3  15
ENDBRANCH   1   9
BRANCH   1  16
ATOM     16  C   UNL     1      25.507  24.324  19.388  0.00  0.00    -0.024 A 
ATOM     17  C   UNL     1      24.621  25.404  19.218  0.00  0.00    +0.009 A 
ATOM     18  C   UNL     1      24.444  26.356  20.218  0.00  0.00    +0.049 A 
ATOM     19  C   UNL     1      25.184  26.278  21.397  0.00  0.00    +0.156 A 
ATOM     20  C   UNL     1      26.017  25.174  21.601  0.00  0.00    +0.165 A 
ATOM     21  F   UNL     1      26.705  25.047  22.745  0.00  0.00    -0.202 F 
ATOM     22  C   UNL     1      26.185  24.203  20.608  0.00  0.00    +0.047 A 
BRANCH  19  23
ATOM     23  O   UNL     1      25.161  27.242  22.370  0.00  0.00    -0.489 OA
BRANCH  23  24
ATOM     24  C   UNL     1      25.294  28.580  21.881  0.00  0.00    +0.232 C 
BRANCH  24  25
ATOM     25  C   UNL     1      26.730  28.839  21.560  0.00  0.00    +0.027 C 
ATOM     26  C   UNL     1      27.368  30.150  21.939  0.00  0.00    +0.007 C 
ATOM     27  C   UNL     1      27.114  29.832  20.490  0.00  0.00    +0.007 C 
ENDBRANCH  24  25
ENDBRANCH  23  24
ENDBRANCH  19  23
ENDBRANCH   1  16
TORSDOF 6
ENDMDL
MODEL 7
REMARK VINA RESULT:      -6.4      4.080      9.768
REMARK  Name = ZINC000543478179
REMARK  8 active torsions:
REMARK  status: ('A' for Active; 'I' for Inactive)
REMARK    1  A    between atoms: C_1  and  C_2
REMARK    2  A    between atoms: C_2  and  N_3
REMARK    3  A    between atoms: N_9  and  C_10
REMARK    4  A    between atoms: C_10  and  C_11
REMARK    5  A    between atoms: C_10  and  C_12
REMARK    6  A    between atoms: C_15  and  O_16
REMARK    7  A    between atoms: O_16  and  C_17
REMARK    8  A    between atoms: C_17  and  C_18
REMARK                            x       y       z     vdW  Elec       q    Type
REMARK                         _______ _______ _______ _____ _____    ______ ____
ROOT
ATOM      1  C   UNL     1      25.755  23.376  18.231  0.00  0.00    +0.102 C 
ATOM      2  C   UNL     1      24.909  23.814  17.027  0.00  0.00    +0.033 C 
ENDROOT
BRANCH   1   9
ATOM      3  N   UNL     1      31.865  22.846  16.426  0.00  0.00    -0.299 N 
ATOM      4  C   UNL     1      31.035  21.698  16.060  0.00  0.00    +0.127 C 
ATOM      5  C   UNL     1      30.129  21.256  17.213  0.00  0.00    +0.129 C 
ATOM      6  N   UNL     1      29.277  22.372  17.611  0.00  0.00    -0.275 N 
ATOM      7  C   UNL     1      27.901  22.204  17.688  0.00  0.00    +0.303 C 
ATOM      8  O   UNL     1      27.346  21.134  17.477  0.00  0.00    -0.253 OA
ATOM      9  N   UNL     1      27.200  23.346  17.987  0.00  0.00    -0.293 N 
ATOM     10  C   UNL     1      29.989  23.623  17.881  0.00  0.00    +0.205 C 
ATOM     11  C   UNL     1      31.451  23.739  17.412  0.00  0.00    +0.233 C 
ATOM     12  O   UNL     1      32.156  24.672  17.798  0.00  0.00    -0.274 OA
ATOM     13  H   UNL     1      27.710  24.011  18.542  0.00  0.00    +0.151 HD
BRANCH   3  15
ATOM     14  C   UNL     1      32.560  23.059  14.065  0.00  0.00    +0.024 C 
ATOM     15  C   UNL     1      32.942  23.255  15.527  0.00  0.00    +0.104 C 
ENDBRANCH   3  15
ENDBRANCH   1   9
BRANCH   1  16
ATOM     16  C   UNL     1      25.505  24.317  19.404  0.00  0.00    -0.024 A 
ATOM     17  C   UNL     1      24.647  25.421  19.240  0.00  0.00    +0.009 A 
ATOM     18  C   UNL     1      24.462  26.348  20.261  0.00  0.00    +0.049 A 
ATOM     19  C   UNL     1      25.167  26.222  21.458  0.00  0.00    +0.156 A 
ATOM     20  C   UNL     1      25.970  25.095  21.654  0.00  0.00    +0.165 A 
ATOM     21  F   UNL     1      26.623  24.922  22.812  0.00  0.00    -0.202 F 
ATOM     22  C   UNL     1      26.146  24.149  20.639  0.00  0.00    +0.047 A 
BRANCH  19  23
ATOM     23  O   UNL     1      25.136  27.159  22.457  0.00  0.00    -0.489 OA
BRANCH  23  24
ATOM     24  C   UNL     1      23.885  27.248  23.146  0.00  0.00    +0.232 C 
BRANCH  24  25
ATOM     25  C   UNL     1      24.004  26.548  24.460  0.00  0.00    +0.027 C 
ATOM     26  C   UNL     1      23.549  25.118  24.601  0.00  0.00    +0.007 C 
ATOM     27  C   UNL     1      22.775  26.220  25.273  0.00  0.00    +0.007 C 
ENDBRANCH  24  25
ENDBRANCH  23  24
ENDBRANCH  19  23
ENDBRANCH   1  16
TORSDOF 6
ENDMDL
MODEL 8
REMARK VINA RESULT:      -6.4      4.021      6.476
REMARK  Name = ZINC000543478179
REMARK  8 active torsions:
REMARK  status: ('A' for Active; 'I' for Inactive)
REMARK    1  A    between atoms: C_1  and  C_2
REMARK    2  A    between atoms: C_2  and  N_3
REMARK    3  A    between atoms: N_9  and  C_10
REMARK    4  A    between atoms: C_10  and  C_11
REMARK    5  A    between atoms: C_10  and  C_12
REMARK    6  A    between atoms: C_15  and  O_16
REMARK    7  A    between atoms: O_16  and  C_17
REMARK    8  A    between atoms: C_17  and  C_18
REMARK                            x       y       z     vdW  Elec       q    Type
REMARK                         _______ _______ _______ _____ _____    ______ ____
ROOT
ATOM      1  C   UNL     1      29.745  21.967  16.148  0.00  0.00    +0.102 C 
ATOM      2  C   UNL     1      28.463  22.097  16.982  0.00  0.00    +0.033 C 
ENDROOT
BRANCH   1   9
ATOM      3  N   UNL     1      34.695  25.449  18.210  0.00  0.00    -0.299 N 
ATOM      4  C   UNL     1      34.382  25.640  16.793  0.00  0.00    +0.127 C 
ATOM      5  C   UNL     1      34.124  24.309  16.079  0.00  0.00    +0.129 C 
ATOM      6  N   UNL     1      33.020  23.616  16.738  0.00  0.00    -0.275 N 
ATOM      7  C   UNL     1      31.939  23.166  15.993  0.00  0.00    +0.303 C 
ATOM      8  O   UNL     1      31.872  23.281  14.776  0.00  0.00    -0.253 OA
ATOM      9  N   UNL     1      30.926  22.609  16.733  0.00  0.00    -0.293 N 
ATOM     10  C   UNL     1      33.160  23.478  18.189  0.00  0.00    +0.205 C 
ATOM     11  C   UNL     1      34.228  24.332  18.898  0.00  0.00    +0.233 C 
ATOM     12  O   UNL     1      34.533  24.100  20.069  0.00  0.00    -0.274 OA
ATOM     13  H   UNL     1      31.228  22.179  17.590  0.00  0.00    +0.151 HD
BRANCH   3  15
ATOM     14  C   UNL     1      35.631  27.731  18.084  0.00  0.00    +0.024 C 
ATOM     15  C   UNL     1      35.185  26.587  18.985  0.00  0.00    +0.104 C 
ENDBRANCH   3  15
ENDBRANCH   1   9
BRANCH   1  16
ATOM     16  C   UNL     1      30.077  20.494  15.942  0.00  0.00    -0.024 A 
ATOM     17  C   UNL     1      29.862  19.578  16.990  0.00  0.00    +0.009 A 
ATOM     18  C   UNL     1      30.232  18.242  16.867  0.00  0.00    +0.049 A 
ATOM     19  C   UNL     1      30.870  17.796  15.710  0.00  0.00    +0.156 A 
ATOM     20  C   UNL     1      31.028  18.681  14.640  0.00  0.00    +0.165 A 
ATOM     21  F   UNL     1      31.594  18.269  13.497  0.00  0.00    -0.202 F 
ATOM     22  C   UNL     1      30.640  20.021  14.749  0.00  0.00    +0.047 A 
BRANCH  19  23
ATOM     23  O   UNL     1      31.377  16.531  15.565  0.00  0.00    -0.489 OA
BRANCH  23  24
ATOM     24  C   UNL     1      30.413  15.486  15.723  0.00  0.00    +0.232 C 
BRANCH  24  25
ATOM     25  C   UNL     1      29.512  15.472  14.531  0.00  0.00    +0.027 C 
ATOM     26  C   UNL     1      28.463  14.401  14.385  0.00  0.00    +0.007 C 
ATOM     27  C   UNL     1      29.656  14.411  13.468  0.00  0.00    +0.007 C 
ENDBRANCH  24  25
ENDBRANCH  23  24
ENDBRANCH  19  23
ENDBRANCH   1  16
TORSDOF 6
ENDMDL
MODEL 9
REMARK VINA RESULT:      -6.4      5.933     12.152
REMARK  Name = ZINC000543478179
REMARK  8 active torsions:
REMARK  status: ('A' for Active; 'I' for Inactive)
REMARK    1  A    between atoms: C_1  and  C_2
REMARK    2  A    between atoms: C_2  and  N_3
REMARK    3  A    between atoms: N_9  and  C_10
REMARK    4  A    between atoms: C_10  and  C_11
REMARK    5  A    between atoms: C_10  and  C_12
REMARK    6  A    between atoms: C_15  and  O_16
REMARK    7  A    between atoms: O_16  and  C_17
REMARK    8  A    between atoms: C_17  and  C_18
REMARK                            x       y       z     vdW  Elec       q    Type
REMARK                         _______ _______ _______ _____ _____    ______ ____
ROOT
ATOM      1  C   UNL     1      30.096  13.852  12.819  0.00  0.00    +0.102 C 
ATOM      2  C   UNL     1      28.751  13.760  12.085  0.00  0.00    +0.033 C 
ENDROOT
BRANCH   1   9
ATOM      3  N   UNL     1      34.997  13.826   8.715  0.00  0.00    -0.299 N 
ATOM      4  C   UNL     1      34.735  12.528   9.336  0.00  0.00    +0.127 C 
ATOM      5  C   UNL     1      34.491  12.653  10.843  0.00  0.00    +0.129 C 
ATOM      6  N   UNL     1      33.361  13.547  11.075  0.00  0.00    -0.275 N 
ATOM      7  C   UNL     1      32.303  13.136  11.874  0.00  0.00    +0.303 C 
ATOM      8  O   UNL     1      32.278  12.055  12.446  0.00  0.00    -0.253 OA
ATOM      9  N   UNL     1      31.260  14.028  11.946  0.00  0.00    -0.293 N 
ATOM     10  C   UNL     1      33.449  14.840  10.393  0.00  0.00    +0.205 C 
ATOM     11  C   UNL     1      34.498  14.999   9.277  0.00  0.00    +0.233 C 
ATOM     12  O   UNL     1      34.761  16.114   8.824  0.00  0.00    -0.274 OA
ATOM     13  H   UNL     1      31.529  14.989  11.832  0.00  0.00    +0.151 HD
BRANCH   3  15
ATOM     14  C   UNL     1      35.552  12.470   6.726  0.00  0.00    +0.024 C 
ATOM     15  C   UNL     1      35.469  13.865   7.331  0.00  0.00    +0.104 C 
ENDBRANCH   3  15
ENDBRANCH   1   9
BRANCH   1  16
ATOM     16  C   UNL     1      30.070  15.024  13.794  0.00  0.00    -0.024 A 
ATOM     17  C   UNL     1      30.954  16.103  13.609  0.00  0.00    +0.009 A 
ATOM     18  C   UNL     1      31.017  17.149  14.525  0.00  0.00    +0.049 A 
ATOM     19  C   UNL     1      30.231  17.119  15.677  0.00  0.00    +0.156 A 
ATOM     20  C   UNL     1      29.304  16.085  15.836  0.00  0.00    +0.165 A 
ATOM     21  F   UNL     1      28.500  16.055  16.909  0.00  0.00    -0.202 F 
ATOM     22  C   UNL     1      29.221  15.041  14.908  0.00  0.00    +0.047 A 
BRANCH  19  23
ATOM     23  O   UNL     1      30.329  18.042  16.684  0.00  0.00    -0.489 OA
BRANCH  23  24
ATOM     24  C   UNL     1      30.279  19.403  16.246  0.00  0.00    +0.232 C 
BRANCH  24  25
ATOM     25  C   UNL     1      29.733  20.248  17.350  0.00  0.00    +0.027 C 
ATOM     26  C   UNL     1      28.363  20.864  17.228  0.00  0.00    +0.007 C 
ATOM     27  C   UNL     1      29.586  21.741  17.179  0.00  0.00    +0.007 C 
ENDBRANCH  24  25
ENDBRANCH  23  24
ENDBRANCH  19  23
ENDBRANCH   1  16
TORSDOF 6
ENDMDL
