MODEL 1
REMARK VINA RESULT:      -6.3      0.000      0.000
REMARK  Name = ZINC000543478179
REMARK  8 active torsions:
REMARK  status: ('A' for Active; 'I' for Inactive)
REMARK    1  A    between atoms: C_1  and  C_2
REMARK    2  A    between atoms: C_2  and  N_3
REMARK    3  A    between atoms: N_9  and  C_10
REMARK    4  A    between atoms: C_10  and  C_11
REMARK    5  A    between atoms: C_10  and  C_12
REMARK    6  A    between atoms: C_15  and  O_16
REMARK    7  A    between atoms: O_16  and  C_17
REMARK    8  A    between atoms: C_17  and  C_18
REMARK                            x       y       z     vdW  Elec       q    Type
REMARK                         _______ _______ _______ _____ _____    ______ ____
ROOT
ATOM      1  C   UNL     1      27.709  23.491  19.074  0.00  0.00    +0.102 C 
ATOM      2  C   UNL     1      26.433  23.295  19.905  0.00  0.00    +0.033 C 
ENDROOT
BRANCH   1   9
ATOM      3  N   UNL     1      32.978  24.708  22.483  0.00  0.00    -0.299 N 
ATOM      4  C   UNL     1      32.702  25.697  21.440  0.00  0.00    +0.127 C 
ATOM      5  C   UNL     1      32.312  25.037  20.114  0.00  0.00    +0.129 C 
ATOM      6  N   UNL     1      31.134  24.200  20.322  0.00  0.00    -0.275 N 
ATOM      7  C   UNL     1      30.019  24.355  19.510  0.00  0.00    +0.303 C 
ATOM      8  O   UNL     1      29.976  25.146  18.577  0.00  0.00    -0.253 OA
ATOM      9  N   UNL     1      28.944  23.574  19.858  0.00  0.00    -0.293 N 
ATOM     10  C   UNL     1      31.243  23.250  21.431  0.00  0.00    +0.205 C 
ATOM     11  C   UNL     1      32.388  23.447  22.442  0.00  0.00    +0.233 C 
ATOM     12  O   UNL     1      32.655  22.565  23.259  0.00  0.00    -0.274 OA
ATOM     13  H   UNL     1      29.190  22.707  20.305  0.00  0.00    +0.151 HD
BRANCH   3  15
ATOM     14  C   UNL     1      34.112  26.576  23.634  0.00  0.00    +0.024 C 
ATOM     15  C   UNL     1      33.579  25.154  23.739  0.00  0.00    +0.104 C 
ENDBRANCH   3  15
ENDBRANCH   1   9
BRANCH   1  16
ATOM     16  C   UNL     1      27.863  22.336  18.091  0.00  0.00    -0.024 A 
ATOM     17  C   UNL     1      27.603  21.020  18.517  0.00  0.00    +0.009 A 
ATOM     18  C   UNL     1      27.815  19.934  17.672  0.00  0.00    +0.049 A 
ATOM     19  C   UNL     1      28.338  20.132  16.395  0.00  0.00    +0.156 A 
ATOM     20  C   UNL     1      28.537  21.439  15.941  0.00  0.00    +0.165 A 
ATOM     21  F   UNL     1      28.994  21.663  14.700  0.00  0.00    -0.202 F 
ATOM     22  C   UNL     1      28.308  22.536  16.777  0.00  0.00    +0.047 A 
BRANCH  19  23
ATOM     23  O   UNL     1      28.693  19.109  15.555  0.00  0.00    -0.489 OA
BRANCH  23  24
ATOM     24  C   UNL     1      29.618  18.175  16.119  0.00  0.00    +0.232 C 
BRANCH  24  25
ATOM     25  C   UNL     1      31.009  18.659  15.871  0.00  0.00    +0.027 C 
ATOM     26  C   UNL     1      32.177  17.993  16.551  0.00  0.00    +0.007 C 
ATOM     27  C   UNL     1      31.776  19.389  16.947  0.00  0.00    +0.007 C 
ENDBRANCH  24  25
ENDBRANCH  23  24
ENDBRANCH  19  23
ENDBRANCH   1  16
TORSDOF 6
ENDMDL
MODEL 2
REMARK VINA RESULT:      -6.3      2.928      4.224
REMARK  Name = ZINC000543478179
REMARK  8 active torsions:
REMARK  status: ('A' for Active; 'I' for Inactive)
REMARK    1  A    between atoms: C_1  and  C_2
REMARK    2  A    between atoms: C_2  and  N_3
REMARK    3  A    between atoms: N_9  and  C_10
REMARK    4  A    between atoms: C_10  and  C_11
REMARK    5  A    between atoms: C_10  and  C_12
REMARK    6  A    between atoms: C_15  and  O_16
REMARK    7  A    between atoms: O_16  and  C_17
REMARK    8  A    between atoms: C_17  and  C_18
REMARK                            x       y       z     vdW  Elec       q    Type
REMARK                         _______ _______ _______ _____ _____    ______ ____
ROOT
ATOM      1  C   UNL     1      28.694  20.269  16.453  0.00  0.00    +0.102 C 
ATOM      2  C   UNL     1      27.562  19.634  17.273  0.00  0.00    +0.033 C 
ENDROOT
BRANCH   1   9
ATOM      3  N   UNL     1      31.814  24.264  20.347  0.00  0.00    -0.299 N 
ATOM      4  C   UNL     1      30.358  24.319  20.482  0.00  0.00    +0.127 C 
ATOM      5  C   UNL     1      29.658  24.346  19.119  0.00  0.00    +0.129 C 
ATOM      6  N   UNL     1      30.039  23.158  18.360  0.00  0.00    -0.275 N 
ATOM      7  C   UNL     1      29.060  22.341  17.812  0.00  0.00    +0.303 C 
ATOM      8  O   UNL     1      27.863  22.585  17.893  0.00  0.00    -0.253 OA
ATOM      9  N   UNL     1      29.536  21.210  17.196  0.00  0.00    -0.293 N 
ATOM     10  C   UNL     1      31.481  22.924  18.266  0.00  0.00    +0.205 C 
ATOM     11  C   UNL     1      32.405  23.711  19.214  0.00  0.00    +0.233 C 
ATOM     12  O   UNL     1      33.623  23.716  19.033  0.00  0.00    -0.274 OA
ATOM     13  H   UNL     1      30.459  21.307  16.810  0.00  0.00    +0.151 HD
BRANCH   3  15
ATOM     14  C   UNL     1      32.126  23.646  22.719  0.00  0.00    +0.024 C 
ATOM     15  C   UNL     1      32.641  24.458  21.537  0.00  0.00    +0.104 C 
ENDBRANCH   3  15
ENDBRANCH   1   9
BRANCH   1  16
ATOM     16  C   UNL     1      29.601  19.176  15.899  0.00  0.00    -0.024 A 
ATOM     17  C   UNL     1      30.991  19.252  16.109  0.00  0.00    +0.009 A 
ATOM     18  C   UNL     1      31.857  18.319  15.547  0.00  0.00    +0.049 A 
ATOM     19  C   UNL     1      31.360  17.313  14.719  0.00  0.00    +0.156 A 
ATOM     20  C   UNL     1      29.977  17.191  14.557  0.00  0.00    +0.165 A 
ATOM     21  F   UNL     1      29.467  16.204  13.806  0.00  0.00    -0.202 F 
ATOM     22  C   UNL     1      29.099  18.113  15.136  0.00  0.00    +0.047 A 
BRANCH  19  23
ATOM     23  O   UNL     1      32.158  16.438  14.028  0.00  0.00    -0.489 OA
BRANCH  23  24
ATOM     24  C   UNL     1      33.389  17.001  13.564  0.00  0.00    +0.232 C 
BRANCH  24  25
ATOM     25  C   UNL     1      33.555  16.676  12.116  0.00  0.00    +0.027 C 
ATOM     26  C   UNL     1      34.930  16.477  11.535  0.00  0.00    +0.007 C 
ATOM     27  C   UNL     1      34.128  17.692  11.158  0.00  0.00    +0.007 C 
ENDBRANCH  24  25
ENDBRANCH  23  24
ENDBRANCH  19  23
ENDBRANCH   1  16
TORSDOF 6
ENDMDL
MODEL 3
REMARK VINA RESULT:      -6.2      4.786      7.748
REMARK  Name = ZINC000543478179
REMARK  8 active torsions:
REMARK  status: ('A' for Active; 'I' for Inactive)
REMARK    1  A    between atoms: C_1  and  C_2
REMARK    2  A    between atoms: C_2  and  N_3
REMARK    3  A    between atoms: N_9  and  C_10
REMARK    4  A    between atoms: C_10  and  C_11
REMARK    5  A    between atoms: C_10  and  C_12
REMARK    6  A    between atoms: C_15  and  O_16
REMARK    7  A    between atoms: O_16  and  C_17
REMARK    8  A    between atoms: C_17  and  C_18
REMARK                            x       y       z     vdW  Elec       q    Type
REMARK                         _______ _______ _______ _____ _____    ______ ____
ROOT
ATOM      1  C   UNL     1      30.208  20.843  15.705  0.00  0.00    +0.102 C 
ATOM      2  C   UNL     1      29.568  19.750  14.838  0.00  0.00    +0.033 C 
ENDROOT
BRANCH   1   9
ATOM      3  N   UNL     1      32.342  25.598  12.003  0.00  0.00    -0.299 N 
ATOM      4  C   UNL     1      33.308  24.515  12.196  0.00  0.00    +0.127 C 
ATOM      5  C   UNL     1      33.382  24.069  13.660  0.00  0.00    +0.129 C 
ATOM      6  N   UNL     1      32.059  23.633  14.097  0.00  0.00    -0.275 N 
ATOM      7  C   UNL     1      31.898  22.388  14.689  0.00  0.00    +0.303 C 
ATOM      8  O   UNL     1      32.832  21.628  14.911  0.00  0.00    -0.253 OA
ATOM      9  N   UNL     1      30.598  22.054  14.977  0.00  0.00    -0.293 N 
ATOM     10  C   UNL     1      30.980  24.588  13.836  0.00  0.00    +0.205 C 
ATOM     11  C   UNL     1      31.260  25.750  12.866  0.00  0.00    +0.233 C 
ATOM     12  O   UNL     1      30.471  26.692  12.779  0.00  0.00    -0.274 OA
ATOM     13  H   UNL     1      30.001  22.841  15.167  0.00  0.00    +0.151 HD
BRANCH   3  15
ATOM     14  C   UNL     1      33.651  26.929  10.385  0.00  0.00    +0.024 C 
ATOM     15  C   UNL     1      32.308  26.292  10.717  0.00  0.00    +0.104 C 
ENDBRANCH   3  15
ENDBRANCH   1   9
BRANCH   1  16
ATOM     16  C   UNL     1      29.239  21.259  16.806  0.00  0.00    -0.024 A 
ATOM     17  C   UNL     1      27.995  21.821  16.463  0.00  0.00    +0.009 A 
ATOM     18  C   UNL     1      27.122  22.290  17.440  0.00  0.00    +0.049 A 
ATOM     19  C   UNL     1      27.490  22.252  18.785  0.00  0.00    +0.156 A 
ATOM     20  C   UNL     1      28.693  21.636  19.139  0.00  0.00    +0.165 A 
ATOM     21  F   UNL     1      29.052  21.542  20.428  0.00  0.00    -0.202 F 
ATOM     22  C   UNL     1      29.567  21.145  18.164  0.00  0.00    +0.047 A 
BRANCH  19  23
ATOM     23  O   UNL     1      26.743  22.808  19.790  0.00  0.00    -0.489 OA
BRANCH  23  24
ATOM     24  C   UNL     1      26.195  24.092  19.478  0.00  0.00    +0.232 C 
BRANCH  24  25
ATOM     25  C   UNL     1      24.716  24.051  19.681  0.00  0.00    +0.027 C 
ATOM     26  C   UNL     1      23.788  24.561  18.608  0.00  0.00    +0.007 C 
ATOM     27  C   UNL     1      23.931  25.322  19.899  0.00  0.00    +0.007 C 
ENDBRANCH  24  25
ENDBRANCH  23  24
ENDBRANCH  19  23
ENDBRANCH   1  16
TORSDOF 6
ENDMDL
MODEL 4
REMARK VINA RESULT:      -6.2      2.877      4.184
REMARK  Name = ZINC000543478179
REMARK  8 active torsions:
REMARK  status: ('A' for Active; 'I' for Inactive)
REMARK    1  A    between atoms: C_1  and  C_2
REMARK    2  A    between atoms: C_2  and  N_3
REMARK    3  A    between atoms: N_9  and  C_10
REMARK    4  A    between atoms: C_10  and  C_11
REMARK    5  A    between atoms: C_10  and  C_12
REMARK    6  A    between atoms: C_15  and  O_16
REMARK    7  A    between atoms: O_16  and  C_17
REMARK    8  A    between atoms: C_17  and  C_18
REMARK                            x       y       z     vdW  Elec       q    Type
REMARK                         _______ _______ _______ _____ _____    ______ ____
ROOT
ATOM      1  C   UNL     1      28.735  20.374  16.148  0.00  0.00    +0.102 C 
ATOM      2  C   UNL     1      27.646  19.619  16.924  0.00  0.00    +0.033 C 
ENDROOT
BRANCH   1   9
ATOM      3  N   UNL     1      31.661  24.252  20.303  0.00  0.00    -0.299 N 
ATOM      4  C   UNL     1      30.200  24.314  20.360  0.00  0.00    +0.127 C 
ATOM      5  C   UNL     1      29.576  24.378  18.963  0.00  0.00    +0.129 C 
ATOM      6  N   UNL     1      29.990  23.207  18.196  0.00  0.00    -0.275 N 
ATOM      7  C   UNL     1      29.038  22.410  17.576  0.00  0.00    +0.303 C 
ATOM      8  O   UNL     1      27.840  22.659  17.598  0.00  0.00    -0.253 OA
ATOM      9  N   UNL     1      29.541  21.291  16.959  0.00  0.00    -0.293 N 
ATOM     10  C   UNL     1      31.434  22.966  18.173  0.00  0.00    +0.205 C 
ATOM     11  C   UNL     1      32.310  23.723  19.190  0.00  0.00    +0.233 C 
ATOM     12  O   UNL     1      33.536  23.724  19.075  0.00  0.00    -0.274 OA
ATOM     13  H   UNL     1      30.484  21.391  16.626  0.00  0.00    +0.151 HD
BRANCH   3  15
ATOM     14  C   UNL     1      32.171  23.264  22.509  0.00  0.00    +0.024 C 
ATOM     15  C   UNL     1      32.424  24.412  21.540  0.00  0.00    +0.104 C 
ENDBRANCH   3  15
ENDBRANCH   1   9
BRANCH   1  16
ATOM     16  C   UNL     1      29.686  19.377  15.497  0.00  0.00    -0.024 A 
ATOM     17  C   UNL     1      29.228  18.084  15.177  0.00  0.00    +0.009 A 
ATOM     18  C   UNL     1      30.090  17.121  14.661  0.00  0.00    +0.049 A 
ATOM     19  C   UNL     1      31.444  17.411  14.494  0.00  0.00    +0.156 A 
ATOM     20  C   UNL     1      31.894  18.710  14.747  0.00  0.00    +0.165 A 
ATOM     21  F   UNL     1      33.182  19.031  14.551  0.00  0.00    -0.202 F 
ATOM     22  C   UNL     1      31.029  19.688  15.248  0.00  0.00    +0.047 A 
BRANCH  19  23
ATOM     23  O   UNL     1      32.375  16.481  14.114  0.00  0.00    -0.489 OA
BRANCH  23  24
ATOM     24  C   UNL     1      32.269  16.061  12.750  0.00  0.00    +0.232 C 
BRANCH  24  25
ATOM     25  C   UNL     1      33.623  16.111  12.120  0.00  0.00    +0.027 C 
ATOM     26  C   UNL     1      34.701  16.984  12.707  0.00  0.00    +0.007 C 
ATOM     27  C   UNL     1      34.085  17.343  11.382  0.00  0.00    +0.007 C 
ENDBRANCH  24  25
ENDBRANCH  23  24
ENDBRANCH  19  23
ENDBRANCH   1  16
TORSDOF 6
ENDMDL
MODEL 5
REMARK VINA RESULT:      -6.2      6.849      8.692
REMARK  Name = ZINC000543478179
REMARK  8 active torsions:
REMARK  status: ('A' for Active; 'I' for Inactive)
REMARK    1  A    between atoms: C_1  and  C_2
REMARK    2  A    between atoms: C_2  and  N_3
REMARK    3  A    between atoms: N_9  and  C_10
REMARK    4  A    between atoms: C_10  and  C_11
REMARK    5  A    between atoms: C_10  and  C_12
REMARK    6  A    between atoms: C_15  and  O_16
REMARK    7  A    between atoms: O_16  and  C_17
REMARK    8  A    between atoms: C_17  and  C_18
REMARK                            x       y       z     vdW  Elec       q    Type
REMARK                         _______ _______ _______ _____ _____    ______ ____
ROOT
ATOM      1  C   UNL     1      31.380  25.826  12.955  0.00  0.00    +0.102 C 
ATOM      2  C   UNL     1      30.209  26.725  12.533  0.00  0.00    +0.033 C 
ENDROOT
BRANCH   1   9
ATOM      3  N   UNL     1      29.392  20.875  16.477  0.00  0.00    -0.299 N 
ATOM      4  C   UNL     1      29.972  21.967  17.260  0.00  0.00    +0.127 C 
ATOM      5  C   UNL     1      31.267  22.494  16.635  0.00  0.00    +0.129 C 
ATOM      6  N   UNL     1      30.995  22.953  15.277  0.00  0.00    -0.275 N 
ATOM      7  C   UNL     1      31.375  24.228  14.885  0.00  0.00    +0.303 C 
ATOM      8  O   UNL     1      31.981  25.000  15.617  0.00  0.00    -0.253 OA
ATOM      9  N   UNL     1      30.988  24.577  13.614  0.00  0.00    -0.293 N 
ATOM     10  C   UNL     1      30.295  21.985  14.430  0.00  0.00    +0.205 C 
ATOM     11  C   UNL     1      29.636  20.770  15.110  0.00  0.00    +0.233 C 
ATOM     12  O   UNL     1      29.228  19.825  14.435  0.00  0.00    -0.274 OA
ATOM     13  H   UNL     1      30.906  23.802  12.979  0.00  0.00    +0.151 HD
BRANCH   3  15
ATOM     14  C   UNL     1      27.749  20.755  18.318  0.00  0.00    +0.024 C 
ATOM     15  C   UNL     1      28.282  20.111  17.045  0.00  0.00    +0.104 C 
ENDBRANCH   3  15
ENDBRANCH   1   9
BRANCH   1  16
ATOM     16  C   UNL     1      32.213  25.461  11.733  0.00  0.00    -0.024 A 
ATOM     17  C   UNL     1      32.277  26.349  10.643  0.00  0.00    +0.009 A 
ATOM     18  C   UNL     1      32.958  26.012   9.477  0.00  0.00    +0.049 A 
ATOM     19  C   UNL     1      33.554  24.757   9.352  0.00  0.00    +0.156 A 
ATOM     20  C   UNL     1      33.551  23.894  10.451  0.00  0.00    +0.165 A 
ATOM     21  F   UNL     1      34.157  22.700  10.378  0.00  0.00    -0.202 F 
ATOM     22  C   UNL     1      32.885  24.235  11.634  0.00  0.00    +0.047 A 
BRANCH  19  23
ATOM     23  O   UNL     1      34.129  24.304   8.194  0.00  0.00    -0.489 OA
BRANCH  23  24
ATOM     24  C   UNL     1      35.439  24.823   7.942  0.00  0.00    +0.232 C 
BRANCH  24  25
ATOM     25  C   UNL     1      36.283  23.742   7.351  0.00  0.00    +0.027 C 
ATOM     26  C   UNL     1      35.892  22.296   7.517  0.00  0.00    +0.007 C 
ATOM     27  C   UNL     1      37.101  22.831   8.235  0.00  0.00    +0.007 C 
ENDBRANCH  24  25
ENDBRANCH  23  24
ENDBRANCH  19  23
ENDBRANCH   1  16
TORSDOF 6
ENDMDL
MODEL 6
REMARK VINA RESULT:      -6.2      4.332      6.568
REMARK  Name = ZINC000543478179
REMARK  8 active torsions:
REMARK  status: ('A' for Active; 'I' for Inactive)
REMARK    1  A    between atoms: C_1  and  C_2
REMARK    2  A    between atoms: C_2  and  N_3
REMARK    3  A    between atoms: N_9  and  C_10
REMARK    4  A    between atoms: C_10  and  C_11
REMARK    5  A    between atoms: C_10  and  C_12
REMARK    6  A    between atoms: C_15  and  O_16
REMARK    7  A    between atoms: O_16  and  C_17
REMARK    8  A    between atoms: C_17  and  C_18
REMARK                            x       y       z     vdW  Elec       q    Type
REMARK                         _______ _______ _______ _____ _____    ______ ____
ROOT
ATOM      1  C   UNL     1      27.692  22.769  19.347  0.00  0.00    +0.102 C 
ATOM      2  C   UNL     1      28.409  21.839  20.335  0.00  0.00    +0.033 C 
ENDROOT
BRANCH   1   9
ATOM      3  N   UNL     1      24.231  27.231  22.343  0.00  0.00    -0.299 N 
ATOM      4  C   UNL     1      23.434  26.144  21.773  0.00  0.00    +0.127 C 
ATOM      5  C   UNL     1      23.882  25.791  20.351  0.00  0.00    +0.129 C 
ATOM      6  N   UNL     1      25.292  25.411  20.371  0.00  0.00    -0.275 N 
ATOM      7  C   UNL     1      25.695  24.210  19.804  0.00  0.00    +0.303 C 
ATOM      8  O   UNL     1      24.925  23.447  19.236  0.00  0.00    -0.253 OA
ATOM      9  N   UNL     1      27.029  23.922  19.961  0.00  0.00    -0.293 N 
ATOM     10  C   UNL     1      26.177  26.369  21.036  0.00  0.00    +0.205 C 
ATOM     11  C   UNL     1      25.535  27.461  21.912  0.00  0.00    +0.233 C 
ATOM     12  O   UNL     1      26.208  28.411  22.314  0.00  0.00    -0.274 OA
ATOM     13  H   UNL     1      27.621  24.732  20.030  0.00  0.00    +0.151 HD
BRANCH   3  15
ATOM     14  C   UNL     1      23.283  26.799  24.584  0.00  0.00    +0.024 C 
ATOM     15  C   UNL     1      23.797  27.842  23.599  0.00  0.00    +0.104 C 
ENDBRANCH   3  15
ENDBRANCH   1   9
BRANCH   1  16
ATOM     16  C   UNL     1      28.692  23.302  18.327  0.00  0.00    -0.024 A 
ATOM     17  C   UNL     1      28.721  22.755  17.030  0.00  0.00    +0.009 A 
ATOM     18  C   UNL     1      29.675  23.156  16.099  0.00  0.00    +0.049 A 
ATOM     19  C   UNL     1      30.655  24.082  16.457  0.00  0.00    +0.156 A 
ATOM     20  C   UNL     1      30.594  24.678  17.719  0.00  0.00    +0.165 A 
ATOM     21  F   UNL     1      31.494  25.607  18.074  0.00  0.00    -0.202 F 
ATOM     22  C   UNL     1      29.626  24.294  18.653  0.00  0.00    +0.047 A 
BRANCH  19  23
ATOM     23  O   UNL     1      31.700  24.431  15.642  0.00  0.00    -0.489 OA
BRANCH  23  24
ATOM     24  C   UNL     1      31.426  24.306  14.243  0.00  0.00    +0.232 C 
BRANCH  24  25
ATOM     25  C   UNL     1      31.706  25.612  13.575  0.00  0.00    +0.027 C 
ATOM     26  C   UNL     1      30.614  26.332  12.827  0.00  0.00    +0.007 C 
ATOM     27  C   UNL     1      31.758  25.714  12.070  0.00  0.00    +0.007 C 
ENDBRANCH  24  25
ENDBRANCH  23  24
ENDBRANCH  19  23
ENDBRANCH   1  16
TORSDOF 6
ENDMDL
MODEL 7
REMARK VINA RESULT:      -6.1      3.274      7.882
REMARK  Name = ZINC000543478179
REMARK  8 active torsions:
REMARK  status: ('A' for Active; 'I' for Inactive)
REMARK    1  A    between atoms: C_1  and  C_2
REMARK    2  A    between atoms: C_2  and  N_3
REMARK    3  A    between atoms: N_9  and  C_10
REMARK    4  A    between atoms: C_10  and  C_11
REMARK    5  A    between atoms: C_10  and  C_12
REMARK    6  A    between atoms: C_15  and  O_16
REMARK    7  A    between atoms: O_16  and  C_17
REMARK    8  A    between atoms: C_17  and  C_18
REMARK                            x       y       z     vdW  Elec       q    Type
REMARK                         _______ _______ _______ _____ _____    ______ ____
ROOT
ATOM      1  C   UNL     1      28.524  21.423  17.339  0.00  0.00    +0.102 C 
ATOM      2  C   UNL     1      28.003  22.325  16.212  0.00  0.00    +0.033 C 
ENDROOT
BRANCH   1   9
ATOM      3  N   UNL     1      32.336  17.027  14.691  0.00  0.00    -0.299 N 
ATOM      4  C   UNL     1      30.967  17.015  14.175  0.00  0.00    +0.127 C 
ATOM      5  C   UNL     1      29.931  17.120  15.298  0.00  0.00    +0.129 C 
ATOM      6  N   UNL     1      30.162  18.347  16.054  0.00  0.00    -0.275 N 
ATOM      7  C   UNL     1      29.120  19.240  16.265  0.00  0.00    +0.303 C 
ATOM      8  O   UNL     1      27.976  19.035  15.881  0.00  0.00    -0.253 OA
ATOM      9  N   UNL     1      29.479  20.397  16.912  0.00  0.00    -0.293 N 
ATOM     10  C   UNL     1      31.538  18.534  16.516  0.00  0.00    +0.205 C 
ATOM     11  C   UNL     1      32.635  17.644  15.903  0.00  0.00    +0.233 C 
ATOM     12  O   UNL     1      33.760  17.608  16.405  0.00  0.00    -0.274 OA
ATOM     13  H   UNL     1      30.260  20.296  17.537  0.00  0.00    +0.151 HD
BRANCH   3  15
ATOM     14  C   UNL     1      32.932  16.359  12.389  0.00  0.00    +0.024 C 
ATOM     15  C   UNL     1      33.436  16.712  13.782  0.00  0.00    +0.104 C 
ENDBRANCH   3  15
ENDBRANCH   1   9
BRANCH   1  16
ATOM     16  C   UNL     1      29.207  22.274  18.404  0.00  0.00    -0.024 A 
ATOM     17  C   UNL     1      29.151  21.877  19.753  0.00  0.00    +0.009 A 
ATOM     18  C   UNL     1      29.689  22.672  20.761  0.00  0.00    +0.049 A 
ATOM     19  C   UNL     1      30.256  23.908  20.450  0.00  0.00    +0.156 A 
ATOM     20  C   UNL     1      30.374  24.280  19.108  0.00  0.00    +0.165 A 
ATOM     21  F   UNL     1      30.957  25.441  18.775  0.00  0.00    -0.202 F 
ATOM     22  C   UNL     1      29.853  23.477  18.088  0.00  0.00    +0.047 A 
BRANCH  19  23
ATOM     23  O   UNL     1      30.689  24.801  21.395  0.00  0.00    -0.489 OA
BRANCH  23  24
ATOM     24  C   UNL     1      32.083  24.704  21.705  0.00  0.00    +0.232 C 
BRANCH  24  25
ATOM     25  C   UNL     1      32.244  23.953  22.986  0.00  0.00    +0.027 C 
ATOM     26  C   UNL     1      33.583  23.906  23.675  0.00  0.00    +0.007 C 
ATOM     27  C   UNL     1      33.028  22.664  23.032  0.00  0.00    +0.007 C 
ENDBRANCH  24  25
ENDBRANCH  23  24
ENDBRANCH  19  23
ENDBRANCH   1  16
TORSDOF 6
ENDMDL
MODEL 8
REMARK VINA RESULT:      -6.0      7.694      9.523
REMARK  Name = ZINC000543478179
REMARK  8 active torsions:
REMARK  status: ('A' for Active; 'I' for Inactive)
REMARK    1  A    between atoms: C_1  and  C_2
REMARK    2  A    between atoms: C_2  and  N_3
REMARK    3  A    between atoms: N_9  and  C_10
REMARK    4  A    between atoms: C_10  and  C_11
REMARK    5  A    between atoms: C_10  and  C_12
REMARK    6  A    between atoms: C_15  and  O_16
REMARK    7  A    between atoms: O_16  and  C_17
REMARK    8  A    between atoms: C_17  and  C_18
REMARK                            x       y       z     vdW  Elec       q    Type
REMARK                         _______ _______ _______ _____ _____    ______ ____
ROOT
ATOM      1  C   UNL     1      32.564  25.309  11.753  0.00  0.00    +0.102 C 
ATOM      2  C   UNL     1      31.708  26.428  11.142  0.00  0.00    +0.033 C 
ENDROOT
BRANCH   1   9
ATOM      3  N   UNL     1      29.021  21.970  15.895  0.00  0.00    -0.299 N 
ATOM      4  C   UNL     1      29.547  23.223  16.438  0.00  0.00    +0.127 C 
ATOM      5  C   UNL     1      31.023  23.426  16.082  0.00  0.00    +0.129 C 
ATOM      6  N   UNL     1      31.173  23.416  14.630  0.00  0.00    -0.275 N 
ATOM      7  C   UNL     1      31.831  24.459  13.993  0.00  0.00    +0.303 C 
ATOM      8  O   UNL     1      32.344  25.393  14.594  0.00  0.00    -0.253 OA
ATOM      9  N   UNL     1      31.832  24.382  12.621  0.00  0.00    -0.293 N 
ATOM     10  C   UNL     1      30.568  22.265  13.957  0.00  0.00    +0.205 C 
ATOM     11  C   UNL     1      29.582  21.395  14.758  0.00  0.00    +0.233 C 
ATOM     12  O   UNL     1      29.215  20.304  14.317  0.00  0.00    -0.274 OA
ATOM     13  H   UNL     1      31.795  23.445  12.259  0.00  0.00    +0.151 HD
BRANCH   3  15
ATOM     14  C   UNL     1      27.800  20.461  17.424  0.00  0.00    +0.024 C 
ATOM     15  C   UNL     1      27.701  21.512  16.326  0.00  0.00    +0.104 C 
ENDBRANCH   3  15
ENDBRANCH   1   9
BRANCH   1  16
ATOM     16  C   UNL     1      33.207  24.489  10.640  0.00  0.00    -0.024 A 
ATOM     17  C   UNL     1      33.726  23.213  10.927  0.00  0.00    +0.009 A 
ATOM     18  C   UNL     1      34.394  22.471   9.958  0.00  0.00    +0.049 A 
ATOM     19  C   UNL     1      34.603  23.008   8.687  0.00  0.00    +0.156 A 
ATOM     20  C   UNL     1      34.036  24.246   8.374  0.00  0.00    +0.165 A 
ATOM     21  F   UNL     1      34.179  24.766   7.146  0.00  0.00    -0.202 F 
ATOM     22  C   UNL     1      33.345  24.988   9.338  0.00  0.00    +0.047 A 
BRANCH  19  23
ATOM     23  O   UNL     1      35.360  22.396   7.723  0.00  0.00    -0.489 OA
BRANCH  23  24
ATOM     24  C   UNL     1      36.756  22.707   7.780  0.00  0.00    +0.232 C 
BRANCH  24  25
ATOM     25  C   UNL     1      37.192  23.223   6.448  0.00  0.00    +0.027 C 
ATOM     26  C   UNL     1      38.595  23.738   6.257  0.00  0.00    +0.007 C 
ATOM     27  C   UNL     1      37.435  24.697   6.234  0.00  0.00    +0.007 C 
ENDBRANCH  24  25
ENDBRANCH  23  24
ENDBRANCH  19  23
ENDBRANCH   1  16
TORSDOF 6
ENDMDL
MODEL 9
REMARK VINA RESULT:      -6.0      2.133      2.676
REMARK  Name = ZINC000543478179
REMARK  8 active torsions:
REMARK  status: ('A' for Active; 'I' for Inactive)
REMARK    1  A    between atoms: C_1  and  C_2
REMARK    2  A    between atoms: C_2  and  N_3
REMARK    3  A    between atoms: N_9  and  C_10
REMARK    4  A    between atoms: C_10  and  C_11
REMARK    5  A    between atoms: C_10  and  C_12
REMARK    6  A    between atoms: C_15  and  O_16
REMARK    7  A    between atoms: O_16  and  C_17
REMARK    8  A    between atoms: C_17  and  C_18
REMARK                            x       y       z     vdW  Elec       q    Type
REMARK                         _______ _______ _______ _____ _____    ______ ____
ROOT
ATOM      1  C   UNL     1      28.628  22.497  17.431  0.00  0.00    +0.102 C 
ATOM      2  C   UNL     1      27.354  22.280  18.261  0.00  0.00    +0.033 C 
ENDROOT
BRANCH   1   9
ATOM      3  N   UNL     1      33.125  25.982  20.346  0.00  0.00    -0.299 N 
ATOM      4  C   UNL     1      32.693  26.526  19.058  0.00  0.00    +0.127 C 
ATOM      5  C   UNL     1      32.590  25.440  17.983  0.00  0.00    +0.129 C 
ATOM      6  N   UNL     1      31.650  24.414  18.425  0.00  0.00    -0.275 N 
ATOM      7  C   UNL     1      30.601  24.031  17.600  0.00  0.00    +0.303 C 
ATOM      8  O   UNL     1      30.434  24.485  16.476  0.00  0.00    -0.253 OA
ATOM      9  N   UNL     1      29.735  23.123  18.159  0.00  0.00    -0.293 N 
ATOM     10  C   UNL     1      31.907  23.880  19.764  0.00  0.00    +0.205 C 
ATOM     11  C   UNL     1      32.880  24.651  20.676  0.00  0.00    +0.233 C 
ATOM     12  O   UNL     1      33.295  24.140  21.716  0.00  0.00    -0.274 OA
ATOM     13  H   UNL     1      30.156  22.516  18.841  0.00  0.00    +0.151 HD
BRANCH   3  15
ATOM     14  C   UNL     1      34.003  28.232  20.866  0.00  0.00    +0.024 C 
ATOM     15  C   UNL     1      33.491  26.907  21.417  0.00  0.00    +0.104 C 
ENDBRANCH   3  15
ENDBRANCH   1   9
BRANCH   1  16
ATOM     16  C   UNL     1      29.126  21.160  16.896  0.00  0.00    -0.024 A 
ATOM     17  C   UNL     1      28.276  20.367  16.102  0.00  0.00    +0.009 A 
ATOM     18  C   UNL     1      28.665  19.104  15.667  0.00  0.00    +0.049 A 
ATOM     19  C   UNL     1      29.898  18.580  16.054  0.00  0.00    +0.156 A 
ATOM     20  C   UNL     1      30.775  19.384  16.788  0.00  0.00    +0.165 A 
ATOM     21  F   UNL     1      31.986  18.925  17.135  0.00  0.00    -0.202 F 
ATOM     22  C   UNL     1      30.397  20.663  17.212  0.00  0.00    +0.047 A 
BRANCH  19  23
ATOM     23  O   UNL     1      30.298  17.299  15.774  0.00  0.00    -0.489 OA
BRANCH  23  24
ATOM     24  C   UNL     1      30.765  17.105  14.436  0.00  0.00    +0.232 C 
BRANCH  24  25
ATOM     25  C   UNL     1      32.253  16.977  14.456  0.00  0.00    +0.027 C 
ATOM     26  C   UNL     1      33.116  18.062  13.866  0.00  0.00    +0.007 C 
ATOM     27  C   UNL     1      33.024  16.725  13.183  0.00  0.00    +0.007 C 
ENDBRANCH  24  25
ENDBRANCH  23  24
ENDBRANCH  19  23
ENDBRANCH   1  16
TORSDOF 6
ENDMDL
