MODEL 1
REMARK VINA RESULT:      -7.6      0.000      0.000
REMARK  Name = ZINC000329563636
REMARK  3 active torsions:
REMARK  status: ('A' for Active; 'I' for Inactive)
REMARK    1  A    between atoms: C_1  and  C_2
REMARK    2  A    between atoms: C_2  and  N_3
REMARK    3  A    between atoms: N_9  and  C_10
REMARK                            x       y       z     vdW  Elec       q    Type
REMARK                         _______ _______ _______ _____ _____    ______ ____
ROOT
ATOM      1  C   UNL     1      28.022  22.049  18.298  0.00  0.00    +0.112 C 
ATOM      2  C   UNL     1      27.825  20.696  17.606  0.00  0.00    +0.075 C 
ATOM      3  C   UNL     1      28.836  20.385  16.493  0.00  0.00    +0.113 C 
ATOM      4  C   UNL     1      30.178  19.780  16.983  0.00  0.00    +0.048 C 
ATOM      5  C   UNL     1      30.201  18.337  16.491  0.00  0.00    +0.004 C 
ATOM      6  C   UNL     1      29.389  18.375  15.211  0.00  0.00    +0.004 C 
ATOM      7  C   UNL     1      28.233  19.292  15.572  0.00  0.00    +0.048 C 
ATOM      8  O   UNL     1      29.095  21.536  15.665  0.00  0.00    -0.485 OA
ATOM      9  C   UNL     1      29.543  22.618  16.378  0.00  0.00    +0.126 A 
ATOM     10  C   UNL     1      30.485  23.443  15.766  0.00  0.00    +0.046 A 
ATOM     11  C   UNL     1      31.010  24.536  16.458  0.00  0.00    +0.004 A 
ATOM     12  C   UNL     1      30.573  24.816  17.751  0.00  0.00    +0.001 A 
ATOM     13  C   UNL     1      29.606  24.007  18.347  0.00  0.00    +0.009 A 
ATOM     14  C   UNL     1      29.083  22.898  17.663  0.00  0.00    +0.015 A 
ENDROOT
BRANCH   1  21
ATOM     15  N   UNL     1      23.395  26.276  19.093  0.00  0.00    -0.299 N 
ATOM     16  C   UNL     1      24.237  26.026  20.263  0.00  0.00    +0.127 C 
ATOM     17  C   UNL     1      24.418  24.533  20.515  0.00  0.00    +0.129 C 
ATOM     18  N   UNL     1      25.016  23.928  19.334  0.00  0.00    -0.275 N 
ATOM     19  C   UNL     1      26.242  23.311  19.450  0.00  0.00    +0.303 C 
ATOM     20  O   UNL     1      26.854  23.255  20.515  0.00  0.00    -0.253 OA
ATOM     21  N   UNL     1      26.759  22.789  18.301  0.00  0.00    -0.292 N 
ATOM     22  C   UNL     1      24.247  24.122  18.101  0.00  0.00    +0.205 C 
ATOM     23  C   UNL     1      23.427  25.426  17.990  0.00  0.00    +0.233 C 
ATOM     24  O   UNL     1      22.800  25.668  16.956  0.00  0.00    -0.274 OA
ATOM     25  H   UNL     1      26.119  22.535  17.566  0.00  0.00    +0.151 HD
BRANCH  15  27
ATOM     26  C   UNL     1      21.382  27.660  19.516  0.00  0.00    +0.024 C 
ATOM     27  C   UNL     1      22.793  27.597  18.949  0.00  0.00    +0.104 C 
ENDBRANCH  15  27
ENDBRANCH   1  21
TORSDOF 2
ENDMDL
MODEL 2
REMARK VINA RESULT:      -7.3      4.076      7.888
REMARK  Name = ZINC000329563636
REMARK  3 active torsions:
REMARK  status: ('A' for Active; 'I' for Inactive)
REMARK    1  A    between atoms: C_1  and  C_2
REMARK    2  A    between atoms: C_2  and  N_3
REMARK    3  A    between atoms: N_9  and  C_10
REMARK                            x       y       z     vdW  Elec       q    Type
REMARK                         _______ _______ _______ _____ _____    ______ ____
ROOT
ATOM      1  C   UNL     1      30.813  22.759  16.716  0.00  0.00    +0.112 C 
ATOM      2  C   UNL     1      29.833  23.338  17.742  0.00  0.00    +0.075 C 
ATOM      3  C   UNL     1      28.645  22.428  18.088  0.00  0.00    +0.113 C 
ATOM      4  C   UNL     1      28.937  21.364  19.178  0.00  0.00    +0.048 C 
ATOM      5  C   UNL     1      28.123  21.771  20.401  0.00  0.00    +0.004 C 
ATOM      6  C   UNL     1      26.914  22.476  19.818  0.00  0.00    +0.004 C 
ATOM      7  C   UNL     1      27.517  23.303  18.694  0.00  0.00    +0.048 C 
ATOM      8  O   UNL     1      28.099  21.789  16.917  0.00  0.00    -0.485 OA
ATOM      9  C   UNL     1      29.028  21.057  16.225  0.00  0.00    +0.126 A 
ATOM     10  C   UNL     1      28.593  19.880  15.619  0.00  0.00    +0.046 A 
ATOM     11  C   UNL     1      29.502  19.070  14.935  0.00  0.00    +0.004 A 
ATOM     12  C   UNL     1      30.838  19.452  14.838  0.00  0.00    +0.001 A 
ATOM     13  C   UNL     1      31.262  20.648  15.418  0.00  0.00    +0.009 A 
ATOM     14  C   UNL     1      30.357  21.461  16.119  0.00  0.00    +0.015 A 
ENDROOT
BRANCH   1  21
ATOM     15  N   UNL     1      32.700  25.857  11.544  0.00  0.00    -0.299 N 
ATOM     16  C   UNL     1      33.752  25.171  12.295  0.00  0.00    +0.127 C 
ATOM     17  C   UNL     1      33.664  25.473  13.787  0.00  0.00    +0.129 C 
ATOM     18  N   UNL     1      32.356  25.058  14.272  0.00  0.00    -0.275 N 
ATOM     19  C   UNL     1      32.284  24.090  15.249  0.00  0.00    +0.303 C 
ATOM     20  O   UNL     1      33.285  23.558  15.726  0.00  0.00    -0.253 OA
ATOM     21  N   UNL     1      31.029  23.727  15.639  0.00  0.00    -0.292 N 
ATOM     22  C   UNL     1      31.228  25.690  13.582  0.00  0.00    +0.205 C 
ATOM     23  C   UNL     1      31.437  26.058  12.097  0.00  0.00    +0.233 C 
ATOM     24  O   UNL     1      30.508  26.547  11.450  0.00  0.00    -0.274 OA
ATOM     25  H   UNL     1      30.283  24.392  15.514  0.00  0.00    +0.151 HD
BRANCH  15  27
ATOM     26  C   UNL     1      33.494  24.783   9.455  0.00  0.00    +0.024 C 
ATOM     27  C   UNL     1      32.873  26.012  10.104  0.00  0.00    +0.104 C 
ENDBRANCH  15  27
ENDBRANCH   1  21
TORSDOF 2
ENDMDL
MODEL 3
REMARK VINA RESULT:      -6.8      5.641      9.025
REMARK  Name = ZINC000329563636
REMARK  3 active torsions:
REMARK  status: ('A' for Active; 'I' for Inactive)
REMARK    1  A    between atoms: C_1  and  C_2
REMARK    2  A    between atoms: C_2  and  N_3
REMARK    3  A    between atoms: N_9  and  C_10
REMARK                            x       y       z     vdW  Elec       q    Type
REMARK                         _______ _______ _______ _____ _____    ______ ____
ROOT
ATOM      1  C   UNL     1      30.711  23.234  14.332  0.00  0.00    +0.112 C 
ATOM      2  C   UNL     1      29.985  21.911  14.065  0.00  0.00    +0.075 C 
ATOM      3  C   UNL     1      29.998  20.918  15.235  0.00  0.00    +0.113 C 
ATOM      4  C   UNL     1      28.890  21.148  16.296  0.00  0.00    +0.048 C 
ATOM      5  C   UNL     1      27.931  19.969  16.177  0.00  0.00    +0.004 C 
ATOM      6  C   UNL     1      28.812  18.829  15.705  0.00  0.00    +0.004 C 
ATOM      7  C   UNL     1      29.710  19.499  14.678  0.00  0.00    +0.048 C 
ATOM      8  O   UNL     1      31.286  20.863  15.880  0.00  0.00    -0.485 OA
ATOM      9  C   UNL     1      31.708  22.085  16.334  0.00  0.00    +0.126 A 
ATOM     10  C   UNL     1      32.434  22.110  17.524  0.00  0.00    +0.046 A 
ATOM     11  C   UNL     1      32.856  23.328  18.059  0.00  0.00    +0.004 A 
ATOM     12  C   UNL     1      32.573  24.517  17.391  0.00  0.00    +0.001 A 
ATOM     13  C   UNL     1      31.875  24.485  16.183  0.00  0.00    +0.009 A 
ATOM     14  C   UNL     1      31.436  23.264  15.645  0.00  0.00    +0.015 A 
ENDROOT
BRANCH   1  21
ATOM     15  N   UNL     1      34.969  25.730  10.389  0.00  0.00    -0.299 N 
ATOM     16  C   UNL     1      33.881  26.618  10.796  0.00  0.00    +0.127 C 
ATOM     17  C   UNL     1      32.522  25.940  10.661  0.00  0.00    +0.129 C 
ATOM     18  N   UNL     1      32.516  24.738  11.482  0.00  0.00    -0.275 N 
ATOM     19  C   UNL     1      31.603  24.636  12.508  0.00  0.00    +0.303 C 
ATOM     20  O   UNL     1      30.792  25.526  12.760  0.00  0.00    -0.253 OA
ATOM     21  N   UNL     1      31.667  23.498  13.255  0.00  0.00    -0.292 N 
ATOM     22  C   UNL     1      33.573  23.777  11.153  0.00  0.00    +0.205 C 
ATOM     23  C   UNL     1      34.898  24.357  10.615  0.00  0.00    +0.233 C 
ATOM     24  O   UNL     1      35.842  23.602  10.368  0.00  0.00    -0.274 OA
ATOM     25  H   UNL     1      32.063  22.674  12.831  0.00  0.00    +0.151 HD
BRANCH  15  27
ATOM     26  C   UNL     1      36.130  27.741   9.519  0.00  0.00    +0.024 C 
ATOM     27  C   UNL     1      36.260  26.327  10.068  0.00  0.00    +0.104 C 
ENDBRANCH  15  27
ENDBRANCH   1  21
TORSDOF 2
ENDMDL
MODEL 4
REMARK VINA RESULT:      -6.8      2.275      8.194
REMARK  Name = ZINC000329563636
REMARK  3 active torsions:
REMARK  status: ('A' for Active; 'I' for Inactive)
REMARK    1  A    between atoms: C_1  and  C_2
REMARK    2  A    between atoms: C_2  and  N_3
REMARK    3  A    between atoms: N_9  and  C_10
REMARK                            x       y       z     vdW  Elec       q    Type
REMARK                         _______ _______ _______ _____ _____    ______ ____
ROOT
ATOM      1  C   UNL     1      25.073  24.640  20.475  0.00  0.00    +0.112 C 
ATOM      2  C   UNL     1      25.085  25.465  21.766  0.00  0.00    +0.075 C 
ATOM      3  C   UNL     1      24.139  26.674  21.771  0.00  0.00    +0.113 C 
ATOM      4  C   UNL     1      22.672  26.351  22.160  0.00  0.00    +0.048 C 
ATOM      5  C   UNL     1      22.436  27.004  23.517  0.00  0.00    +0.004 C 
ATOM      6  C   UNL     1      23.353  28.211  23.506  0.00  0.00    +0.004 C 
ATOM      7  C   UNL     1      24.617  27.668  22.862  0.00  0.00    +0.048 C 
ATOM      8  O   UNL     1      24.166  27.383  20.516  0.00  0.00    -0.485 OA
ATOM      9  C   UNL     1      23.856  26.585  19.445  0.00  0.00    +0.126 A 
ATOM     10  C   UNL     1      23.135  27.164  18.403  0.00  0.00    +0.046 A 
ATOM     11  C   UNL     1      22.754  26.391  17.303  0.00  0.00    +0.004 A 
ATOM     12  C   UNL     1      23.117  25.048  17.239  0.00  0.00    +0.001 A 
ATOM     13  C   UNL     1      23.867  24.481  18.270  0.00  0.00    +0.009 A 
ATOM     14  C   UNL     1      24.242  25.248  19.384  0.00  0.00    +0.015 A 
ENDROOT
BRANCH   1  21
ATOM     15  N   UNL     1      30.283  23.122  17.242  0.00  0.00    -0.299 N 
ATOM     16  C   UNL     1      29.288  22.060  17.380  0.00  0.00    +0.127 C 
ATOM     17  C   UNL     1      28.809  21.924  18.821  0.00  0.00    +0.129 C 
ATOM     18  N   UNL     1      28.242  23.194  19.248  0.00  0.00    -0.275 N 
ATOM     19  C   UNL     1      26.919  23.240  19.626  0.00  0.00    +0.303 C 
ATOM     20  O   UNL     1      26.194  22.246  19.613  0.00  0.00    -0.253 OA
ATOM     21  N   UNL     1      26.442  24.465  19.988  0.00  0.00    -0.292 N 
ATOM     22  C   UNL     1      29.163  24.331  19.148  0.00  0.00    +0.205 C 
ATOM     23  C   UNL     1      30.216  24.277  18.020  0.00  0.00    +0.233 C 
ATOM     24  O   UNL     1      30.986  25.226  17.854  0.00  0.00    -0.274 OA
ATOM     25  H   UNL     1      27.100  25.149  20.326  0.00  0.00    +0.151 HD
BRANCH  15  27
ATOM     26  C   UNL     1      30.545  22.289  14.921  0.00  0.00    +0.024 C 
ATOM     27  C   UNL     1      31.129  23.121  16.054  0.00  0.00    +0.104 C 
ENDBRANCH  15  27
ENDBRANCH   1  21
TORSDOF 2
ENDMDL
MODEL 5
REMARK VINA RESULT:      -6.6      4.337      7.086
REMARK  Name = ZINC000329563636
REMARK  3 active torsions:
REMARK  status: ('A' for Active; 'I' for Inactive)
REMARK    1  A    between atoms: C_1  and  C_2
REMARK    2  A    between atoms: C_2  and  N_3
REMARK    3  A    between atoms: N_9  and  C_10
REMARK                            x       y       z     vdW  Elec       q    Type
REMARK                         _______ _______ _______ _____ _____    ______ ____
ROOT
ATOM      1  C   UNL     1      32.343  17.651  15.499  0.00  0.00    +0.112 C 
ATOM      2  C   UNL     1      32.527  17.399  13.998  0.00  0.00    +0.075 C 
ATOM      3  C   UNL     1      33.987  17.353  13.525  0.00  0.00    +0.113 C 
ATOM      4  C   UNL     1      34.684  15.978  13.697  0.00  0.00    +0.048 C 
ATOM      5  C   UNL     1      34.909  15.433  12.291  0.00  0.00    +0.004 C 
ATOM      6  C   UNL     1      35.077  16.676  11.440  0.00  0.00    +0.004 C 
ATOM      7  C   UNL     1      34.015  17.611  11.995  0.00  0.00    +0.048 C 
ATOM      8  O   UNL     1      34.784  18.384  14.140  0.00  0.00    -0.485 OA
ATOM      9  C   UNL     1      34.763  18.330  15.509  0.00  0.00    +0.126 A 
ATOM     10  C   UNL     1      35.936  18.671  16.181  0.00  0.00    +0.046 A 
ATOM     11  C   UNL     1      35.989  18.596  17.574  0.00  0.00    +0.004 A 
ATOM     12  C   UNL     1      34.862  18.205  18.293  0.00  0.00    +0.001 A 
ATOM     13  C   UNL     1      33.681  17.896  17.618  0.00  0.00    +0.009 A 
ATOM     14  C   UNL     1      33.623  17.956  16.216  0.00  0.00    +0.015 A 
ENDROOT
BRANCH   1  21
ATOM     15  N   UNL     1      27.884  21.607  17.590  0.00  0.00    -0.299 N 
ATOM     16  C   UNL     1      27.533  20.188  17.607  0.00  0.00    +0.127 C 
ATOM     17  C   UNL     1      27.870  19.510  16.283  0.00  0.00    +0.129 C 
ATOM     18  N   UNL     1      29.293  19.668  16.025  0.00  0.00    -0.275 N 
ATOM     19  C   UNL     1      30.080  18.543  15.915  0.00  0.00    +0.303 C 
ATOM     20  O   UNL     1      29.624  17.406  16.031  0.00  0.00    -0.253 OA
ATOM     21  N   UNL     1      31.408  18.760  15.701  0.00  0.00    -0.292 N 
ATOM     22  C   UNL     1      29.750  21.061  15.987  0.00  0.00    +0.205 C 
ATOM     23  C   UNL     1      28.995  22.065  16.885  0.00  0.00    +0.233 C 
ATOM     24  O   UNL     1      29.365  23.241  16.934  0.00  0.00    -0.274 OA
ATOM     25  H   UNL     1      31.683  19.627  15.268  0.00  0.00    +0.151 HD
BRANCH  15  27
ATOM     26  C   UNL     1      27.476  21.970  20.008  0.00  0.00    +0.024 C 
ATOM     27  C   UNL     1      27.273  22.478  18.588  0.00  0.00    +0.104 C 
ENDBRANCH  15  27
ENDBRANCH   1  21
TORSDOF 2
ENDMDL
MODEL 6
REMARK VINA RESULT:      -6.5      4.363      7.165
REMARK  Name = ZINC000329563636
REMARK  3 active torsions:
REMARK  status: ('A' for Active; 'I' for Inactive)
REMARK    1  A    between atoms: C_1  and  C_2
REMARK    2  A    between atoms: C_2  and  N_3
REMARK    3  A    between atoms: N_9  and  C_10
REMARK                            x       y       z     vdW  Elec       q    Type
REMARK                         _______ _______ _______ _____ _____    ______ ____
ROOT
ATOM      1  C   UNL     1      30.485  23.410  17.908  0.00  0.00    +0.112 C 
ATOM      2  C   UNL     1      31.073  22.462  16.857  0.00  0.00    +0.075 C 
ATOM      3  C   UNL     1      30.185  21.261  16.500  0.00  0.00    +0.113 C 
ATOM      4  C   UNL     1      29.101  21.549  15.428  0.00  0.00    +0.048 C 
ATOM      5  C   UNL     1      29.511  20.766  14.186  0.00  0.00    +0.004 C 
ATOM      6  C   UNL     1      30.250  19.563  14.738  0.00  0.00    +0.004 C 
ATOM      7  C   UNL     1      31.077  20.164  15.863  0.00  0.00    +0.048 C 
ATOM      8  O   UNL     1      29.573  20.679  17.668  0.00  0.00    -0.485 OA
ATOM      9  C   UNL     1      28.829  21.579  18.386  0.00  0.00    +0.126 A 
ATOM     10  C   UNL     1      27.670  21.107  18.999  0.00  0.00    +0.046 A 
ATOM     11  C   UNL     1      26.848  21.984  19.709  0.00  0.00    +0.004 A 
ATOM     12  C   UNL     1      27.201  23.327  19.826  0.00  0.00    +0.001 A 
ATOM     13  C   UNL     1      28.380  23.788  19.239  0.00  0.00    +0.009 A 
ATOM     14  C   UNL     1      29.204  22.914  18.512  0.00  0.00    +0.015 A 
ENDROOT
BRANCH   1  21
ATOM     15  N   UNL     1      33.826  25.580  22.810  0.00  0.00    -0.299 N 
ATOM     16  C   UNL     1      33.378  26.588  21.849  0.00  0.00    +0.127 C 
ATOM     17  C   UNL     1      33.677  26.167  20.415  0.00  0.00    +0.129 C 
ATOM     18  N   UNL     1      33.013  24.899  20.151  0.00  0.00    -0.275 N 
ATOM     19  C   UNL     1      32.064  24.838  19.155  0.00  0.00    +0.303 C 
ATOM     20  O   UNL     1      31.753  25.818  18.479  0.00  0.00    -0.253 OA
ATOM     21  N   UNL     1      31.461  23.629  18.977  0.00  0.00    -0.292 N 
ATOM     22  C   UNL     1      33.394  23.817  21.063  0.00  0.00    +0.205 C 
ATOM     23  C   UNL     1      33.776  24.222  22.503  0.00  0.00    +0.233 C 
ATOM     24  O   UNL     1      34.058  23.351  23.331  0.00  0.00    -0.274 OA
ATOM     25  H   UNL     1      31.960  22.803  19.268  0.00  0.00    +0.151 HD
BRANCH  15  27
ATOM     26  C   UNL     1      33.993  27.496  24.376  0.00  0.00    +0.024 C 
ATOM     27  C   UNL     1      33.992  25.984  24.202  0.00  0.00    +0.104 C 
ENDBRANCH  15  27
ENDBRANCH   1  21
TORSDOF 2
ENDMDL
MODEL 7
REMARK VINA RESULT:      -6.5      4.895      9.843
REMARK  Name = ZINC000329563636
REMARK  3 active torsions:
REMARK  status: ('A' for Active; 'I' for Inactive)
REMARK    1  A    between atoms: C_1  and  C_2
REMARK    2  A    between atoms: C_2  and  N_3
REMARK    3  A    between atoms: N_9  and  C_10
REMARK                            x       y       z     vdW  Elec       q    Type
REMARK                         _______ _______ _______ _____ _____    ______ ____
ROOT
ATOM      1  C   UNL     1      31.581  20.819  16.887  0.00  0.00    +0.112 C 
ATOM      2  C   UNL     1      31.725  22.228  17.472  0.00  0.00    +0.075 C 
ATOM      3  C   UNL     1      30.399  22.931  17.798  0.00  0.00    +0.113 C 
ATOM      4  C   UNL     1      29.796  22.572  19.182  0.00  0.00    +0.048 C 
ATOM      5  C   UNL     1      29.904  23.830  20.035  0.00  0.00    +0.004 C 
ATOM      6  C   UNL     1      29.811  24.962  19.031  0.00  0.00    +0.004 C 
ATOM      7  C   UNL     1      30.660  24.458  17.875  0.00  0.00    +0.048 C 
ATOM      8  O   UNL     1      29.413  22.724  16.768  0.00  0.00    -0.485 OA
ATOM      9  C   UNL     1      29.161  21.398  16.528  0.00  0.00    +0.126 A 
ATOM     10  C   UNL     1      27.854  21.044  16.201  0.00  0.00    +0.046 A 
ATOM     11  C   UNL     1      27.527  19.703  15.985  0.00  0.00    +0.004 A 
ATOM     12  C   UNL     1      28.513  18.724  16.073  0.00  0.00    +0.001 A 
ATOM     13  C   UNL     1      29.828  19.087  16.368  0.00  0.00    +0.009 A 
ATOM     14  C   UNL     1      30.162  20.431  16.599  0.00  0.00    +0.015 A 
ENDROOT
BRANCH   1  21
ATOM     15  N   UNL     1      34.851  18.868  11.847  0.00  0.00    -0.299 N 
ATOM     16  C   UNL     1      35.157  18.189  13.105  0.00  0.00    +0.127 C 
ATOM     17  C   UNL     1      35.375  19.183  14.240  0.00  0.00    +0.129 C 
ATOM     18  N   UNL     1      34.175  19.992  14.391  0.00  0.00    -0.275 N 
ATOM     19  C   UNL     1      33.493  19.956  15.587  0.00  0.00    +0.303 C 
ATOM     20  O   UNL     1      33.857  19.261  16.534  0.00  0.00    -0.253 OA
ATOM     21  N   UNL     1      32.362  20.715  15.653  0.00  0.00    -0.292 N 
ATOM     22  C   UNL     1      33.780  20.718  13.180  0.00  0.00    +0.205 C 
ATOM     23  C   UNL     1      34.117  20.052  11.828  0.00  0.00    +0.233 C 
ATOM     24  O   UNL     1      33.766  20.591  10.776  0.00  0.00    -0.274 OA
ATOM     25  H   UNL     1      32.289  21.511  15.040  0.00  0.00    +0.151 HD
BRANCH  15  27
ATOM     26  C   UNL     1      36.392  18.312   9.985  0.00  0.00    +0.024 C 
ATOM     27  C   UNL     1      35.015  18.120  10.605  0.00  0.00    +0.104 C 
ENDBRANCH  15  27
ENDBRANCH   1  21
TORSDOF 2
ENDMDL
MODEL 8
REMARK VINA RESULT:      -6.4      5.636     10.393
REMARK  Name = ZINC000329563636
REMARK  3 active torsions:
REMARK  status: ('A' for Active; 'I' for Inactive)
REMARK    1  A    between atoms: C_1  and  C_2
REMARK    2  A    between atoms: C_2  and  N_3
REMARK    3  A    between atoms: N_9  and  C_10
REMARK                            x       y       z     vdW  Elec       q    Type
REMARK                         _______ _______ _______ _____ _____    ______ ____
ROOT
ATOM      1  C   UNL     1      31.871  19.982  16.834  0.00  0.00    +0.112 C 
ATOM      2  C   UNL     1      32.646  21.279  17.090  0.00  0.00    +0.075 C 
ATOM      3  C   UNL     1      31.787  22.551  17.115  0.00  0.00    +0.113 C 
ATOM      4  C   UNL     1      31.112  22.853  18.479  0.00  0.00    +0.048 C 
ATOM      5  C   UNL     1      31.792  24.102  19.026  0.00  0.00    +0.004 C 
ATOM      6  C   UNL     1      32.202  24.869  17.784  0.00  0.00    +0.004 C 
ATOM      7  C   UNL     1      32.711  23.772  16.864  0.00  0.00    +0.048 C 
ATOM      8  O   UNL     1      30.796  22.552  16.069  0.00  0.00    -0.485 OA
ATOM      9  C   UNL     1      29.968  21.461  16.117  0.00  0.00    +0.126 A 
ATOM     10  C   UNL     1      28.636  21.651  15.755  0.00  0.00    +0.046 A 
ATOM     11  C   UNL     1      27.734  20.587  15.823  0.00  0.00    +0.004 A 
ATOM     12  C   UNL     1      28.173  19.329  16.229  0.00  0.00    +0.001 A 
ATOM     13  C   UNL     1      29.515  19.135  16.559  0.00  0.00    +0.009 A 
ATOM     14  C   UNL     1      30.425  20.203  16.506  0.00  0.00    +0.015 A 
ENDROOT
BRANCH   1  21
ATOM     15  N   UNL     1      34.299  15.576  13.012  0.00  0.00    -0.299 N 
ATOM     16  C   UNL     1      34.635  15.444  14.429  0.00  0.00    +0.127 C 
ATOM     17  C   UNL     1      35.106  16.769  15.020  0.00  0.00    +0.129 C 
ATOM     18  N   UNL     1      34.053  17.759  14.849  0.00  0.00    -0.275 N 
ATOM     19  C   UNL     1      33.499  18.342  15.966  0.00  0.00    +0.303 C 
ATOM     20  O   UNL     1      33.858  18.056  17.107  0.00  0.00    -0.253 OA
ATOM     21  N   UNL     1      32.499  19.240  15.738  0.00  0.00    -0.292 N 
ATOM     22  C   UNL     1      33.641  17.967  13.457  0.00  0.00    +0.205 C 
ATOM     23  C   UNL     1      33.740  16.751  12.512  0.00  0.00    +0.233 C 
ATOM     24  O   UNL     1      33.361  16.851  11.342  0.00  0.00    -0.274 OA
ATOM     25  H   UNL     1      32.475  19.707  14.845  0.00  0.00    +0.151 HD
BRANCH  15  27
ATOM     26  C   UNL     1      35.589  13.929  11.682  0.00  0.00    +0.024 C 
ATOM     27  C   UNL     1      34.228  14.362  12.207  0.00  0.00    +0.104 C 
ENDBRANCH  15  27
ENDBRANCH   1  21
TORSDOF 2
ENDMDL
MODEL 9
REMARK VINA RESULT:      -6.4      5.333      8.513
REMARK  Name = ZINC000329563636
REMARK  3 active torsions:
REMARK  status: ('A' for Active; 'I' for Inactive)
REMARK    1  A    between atoms: C_1  and  C_2
REMARK    2  A    between atoms: C_2  and  N_3
REMARK    3  A    between atoms: N_9  and  C_10
REMARK                            x       y       z     vdW  Elec       q    Type
REMARK                         _______ _______ _______ _____ _____    ______ ____
ROOT
ATOM      1  C   UNL     1      33.439  25.071  14.784  0.00  0.00    +0.112 C 
ATOM      2  C   UNL     1      34.971  25.025  14.763  0.00  0.00    +0.075 C 
ATOM      3  C   UNL     1      35.618  25.604  13.497  0.00  0.00    +0.113 C 
ATOM      4  C   UNL     1      35.805  27.144  13.508  0.00  0.00    +0.048 C 
ATOM      5  C   UNL     1      37.307  27.392  13.584  0.00  0.00    +0.004 C 
ATOM      6  C   UNL     1      37.911  26.194  12.878  0.00  0.00    +0.004 C 
ATOM      7  C   UNL     1      37.059  25.041  13.381  0.00  0.00    +0.048 C 
ATOM      8  O   UNL     1      34.914  25.207  12.304  0.00  0.00    -0.485 OA
ATOM      9  C   UNL     1      33.590  25.560  12.322  0.00  0.00    +0.126 A 
ATOM     10  C   UNL     1      33.011  25.940  11.113  0.00  0.00    +0.046 A 
ATOM     11  C   UNL     1      31.677  26.349  11.075  0.00  0.00    +0.004 A 
ATOM     12  C   UNL     1      30.918  26.354  12.242  0.00  0.00    +0.001 A 
ATOM     13  C   UNL     1      31.492  25.941  13.445  0.00  0.00    +0.009 A 
ATOM     14  C   UNL     1      32.836  25.541  13.494  0.00  0.00    +0.015 A 
ENDROOT
BRANCH   1  21
ATOM     15  N   UNL     1      29.821  20.087  16.193  0.00  0.00    -0.299 N 
ATOM     16  C   UNL     1      29.527  21.315  16.930  0.00  0.00    +0.127 C 
ATOM     17  C   UNL     1      30.795  21.949  17.493  0.00  0.00    +0.129 C 
ATOM     18  N   UNL     1      31.704  22.235  16.393  0.00  0.00    -0.275 N 
ATOM     19  C   UNL     1      32.080  23.539  16.161  0.00  0.00    +0.303 C 
ATOM     20  O   UNL     1      31.673  24.475  16.848  0.00  0.00    -0.253 OA
ATOM     21  N   UNL     1      32.910  23.742  15.100  0.00  0.00    -0.292 N 
ATOM     22  C   UNL     1      32.063  21.064  15.587  0.00  0.00    +0.205 C 
ATOM     23  C   UNL     1      31.000  19.952  15.462  0.00  0.00    +0.233 C 
ATOM     24  O   UNL     1      31.226  18.965  14.756  0.00  0.00    -0.274 OA
ATOM     25  H   UNL     1      33.490  22.975  14.798  0.00  0.00    +0.151 HD
BRANCH  15  27
ATOM     26  C   UNL     1      27.371  19.735  16.322  0.00  0.00    +0.024 C 
ATOM     27  C   UNL     1      28.727  19.155  15.945  0.00  0.00    +0.104 C 
ENDBRANCH  15  27
ENDBRANCH   1  21
TORSDOF 2
ENDMDL
