MODEL 1
REMARK VINA RESULT:      -8.6      0.000      0.000
REMARK  Name = ZINC000870248439
REMARK  2 active torsions:
REMARK  status: ('A' for Active; 'I' for Inactive)
REMARK    1  A    between atoms: C_2  and  C_4
REMARK    2  A    between atoms: C_7  and  C_8
REMARK                            x       y       z     vdW  Elec       q    Type
REMARK                         _______ _______ _______ _____ _____    ______ ____
ROOT
ATOM      1  C   UNL     1      12.513   5.982  10.742  0.00  0.00    +0.247 C 
ATOM      2  O   UNL     1      11.859   7.023  10.798  0.00  0.00    -0.270 OA
ATOM      3  N   UNL     1      13.020   5.458   9.545  0.00  0.00    -0.297 N 
ATOM      4  C   UNL     1      13.773   4.208   9.415  0.00  0.00    +0.108 C 
ATOM      5  C   UNL     1      14.896   4.285   8.388  0.00  0.00    +0.026 C 
ATOM      6  C   UNL     1      14.448   4.849   7.022  0.00  0.00    -0.025 C 
ATOM      7  C   UNL     1      15.724   5.071   6.171  0.00  0.00    +0.017 C 
ATOM      8  C   UNL     1      15.477   5.594   4.763  0.00  0.00    +0.069 C 
ATOM      9  S   UNL     1      14.455   4.466   3.777  0.00  0.00    -0.161 S 
ATOM     10  C   UNL     1      13.063   4.248   4.919  0.00  0.00    +0.069 C 
ATOM     11  C   UNL     1      13.528   3.825   6.308  0.00  0.00    +0.017 C 
ATOM     12  C   UNL     1      13.736   6.199   7.297  0.00  0.00    +0.026 C 
ATOM     13  C   UNL     1      12.585   6.075   8.295  0.00  0.00    +0.108 C 
ENDROOT
BRANCH   1  17
ATOM     14  C   UNL     1      13.498   4.278  14.531  0.00  0.00    +0.037 A 
ATOM     15  C   UNL     1      14.244   3.917  13.403  0.00  0.00    +0.014 A 
ATOM     16  C   UNL     1      13.870   4.392  12.146  0.00  0.00    +0.014 A 
ATOM     17  C   UNL     1      12.813   5.302  12.026  0.00  0.00    +0.037 A 
ATOM     18  C   UNL     1      12.014   5.590  13.139  0.00  0.00    +0.014 A 
ATOM     19  C   UNL     1      12.351   5.069  14.391  0.00  0.00    +0.014 A 
BRANCH  14  21
ATOM     20  N   UNL     1      12.981   3.119  16.604  0.00  0.00    -0.325 N 
ATOM     21  C   UNL     1      13.902   3.832  15.888  0.00  0.00    +0.242 C 
ATOM     22  O   UNL     1      15.022   4.044  16.325  0.00  0.00    -0.270 OA
ATOM     23  H   UNL     1      13.309   2.717  17.473  0.00  0.00    +0.145 HD
ATOM     24  H   UNL     1      12.164   2.707  16.176  0.00  0.00    +0.145 HD
ENDBRANCH  14  21
ENDBRANCH   1  17
TORSDOF 2
ENDMDL
MODEL 2
REMARK VINA RESULT:      -8.1      2.551      3.253
REMARK  Name = ZINC000870248439
REMARK  2 active torsions:
REMARK  status: ('A' for Active; 'I' for Inactive)
REMARK    1  A    between atoms: C_2  and  C_4
REMARK    2  A    between atoms: C_7  and  C_8
REMARK                            x       y       z     vdW  Elec       q    Type
REMARK                         _______ _______ _______ _____ _____    ______ ____
ROOT
ATOM      1  C   UNL     1      14.968   5.242   9.272  0.00  0.00    +0.247 C 
ATOM      2  O   UNL     1      15.709   6.225   9.280  0.00  0.00    -0.270 OA
ATOM      3  N   UNL     1      14.997   4.267   8.265  0.00  0.00    -0.297 N 
ATOM      4  C   UNL     1      14.117   3.099   8.186  0.00  0.00    +0.108 C 
ATOM      5  C   UNL     1      14.820   1.850   7.668  0.00  0.00    +0.026 C 
ATOM      6  C   UNL     1      15.612   2.080   6.363  0.00  0.00    -0.025 C 
ATOM      7  C   UNL     1      16.438   0.798   6.089  0.00  0.00    +0.017 C 
ATOM      8  C   UNL     1      17.264   0.824   4.811  0.00  0.00    +0.069 C 
ATOM      9  S   UNL     1      16.238   1.038   3.331  0.00  0.00    -0.161 S 
ATOM     10  C   UNL     1      15.295   2.505   3.830  0.00  0.00    +0.069 C 
ATOM     11  C   UNL     1      14.629   2.318   5.188  0.00  0.00    +0.017 C 
ATOM     12  C   UNL     1      16.551   3.290   6.608  0.00  0.00    +0.026 C 
ATOM     13  C   UNL     1      15.807   4.539   7.080  0.00  0.00    +0.108 C 
ENDROOT
BRANCH   1  17
ATOM     14  C   UNL     1      12.400   5.039  12.676  0.00  0.00    +0.037 A 
ATOM     15  C   UNL     1      13.616   4.348  12.694  0.00  0.00    +0.014 A 
ATOM     16  C   UNL     1      14.417   4.328  11.552  0.00  0.00    +0.014 A 
ATOM     17  C   UNL     1      14.052   5.075  10.427  0.00  0.00    +0.037 A 
ATOM     18  C   UNL     1      12.795   5.691  10.379  0.00  0.00    +0.014 A 
ATOM     19  C   UNL     1      11.963   5.664  11.501  0.00  0.00    +0.014 A 
BRANCH  14  21
ATOM     20  N   UNL     1      12.188   5.039  15.098  0.00  0.00    -0.325 N 
ATOM     21  C   UNL     1      11.551   5.124  13.891  0.00  0.00    +0.242 C 
ATOM     22  O   UNL     1      10.347   5.314  13.820  0.00  0.00    -0.270 OA
ATOM     23  H   UNL     1      11.619   5.220  15.915  0.00  0.00    +0.145 HD
ATOM     24  H   UNL     1      13.188   5.147  15.191  0.00  0.00    +0.145 HD
ENDBRANCH  14  21
ENDBRANCH   1  17
TORSDOF 2
ENDMDL
MODEL 3
REMARK VINA RESULT:      -7.9      1.621      2.415
REMARK  Name = ZINC000870248439
REMARK  2 active torsions:
REMARK  status: ('A' for Active; 'I' for Inactive)
REMARK    1  A    between atoms: C_2  and  C_4
REMARK    2  A    between atoms: C_7  and  C_8
REMARK                            x       y       z     vdW  Elec       q    Type
REMARK                         _______ _______ _______ _____ _____    ______ ____
ROOT
ATOM      1  C   UNL     1      11.972   4.649   8.674  0.00  0.00    +0.247 C 
ATOM      2  O   UNL     1      10.784   4.517   8.383  0.00  0.00    -0.270 OA
ATOM      3  N   UNL     1      12.997   4.692   7.719  0.00  0.00    -0.297 N 
ATOM      4  C   UNL     1      14.427   4.811   8.009  0.00  0.00    +0.108 C 
ATOM      5  C   UNL     1      15.174   5.685   7.010  0.00  0.00    +0.026 C 
ATOM      6  C   UNL     1      14.902   5.313   5.536  0.00  0.00    -0.025 C 
ATOM      7  C   UNL     1      15.545   6.413   4.654  0.00  0.00    +0.017 C 
ATOM      8  C   UNL     1      15.409   6.195   3.153  0.00  0.00    +0.069 C 
ATOM      9  S   UNL     1      16.186   4.651   2.606  0.00  0.00    -0.161 S 
ATOM     10  C   UNL     1      15.401   3.495   3.762  0.00  0.00    +0.069 C 
ATOM     11  C   UNL     1      15.557   3.946   5.211  0.00  0.00    +0.017 C 
ATOM     12  C   UNL     1      13.362   5.295   5.348  0.00  0.00    +0.026 C 
ATOM     13  C   UNL     1      12.650   4.372   6.337  0.00  0.00    +0.108 C 
ENDROOT
BRANCH   1  17
ATOM     14  C   UNL     1      12.812   4.891  12.853  0.00  0.00    +0.037 A 
ATOM     15  C   UNL     1      11.734   5.612  12.329  0.00  0.00    +0.014 A 
ATOM     16  C   UNL     1      11.510   5.617  10.952  0.00  0.00    +0.014 A 
ATOM     17  C   UNL     1      12.301   4.827  10.110  0.00  0.00    +0.037 A 
ATOM     18  C   UNL     1      13.432   4.180  10.623  0.00  0.00    +0.014 A 
ATOM     19  C   UNL     1      13.694   4.221  11.995  0.00  0.00    +0.014 A 
BRANCH  14  21
ATOM     20  N   UNL     1      11.966   5.040  15.126  0.00  0.00    -0.325 N 
ATOM     21  C   UNL     1      13.046   4.823  14.317  0.00  0.00    +0.242 C 
ATOM     22  O   UNL     1      14.138   4.533  14.780  0.00  0.00    -0.270 OA
ATOM     23  H   UNL     1      12.108   4.870  16.114  0.00  0.00    +0.145 HD
ATOM     24  H   UNL     1      11.016   5.017  14.780  0.00  0.00    +0.145 HD
ENDBRANCH  14  21
ENDBRANCH   1  17
TORSDOF 2
ENDMDL
MODEL 4
REMARK VINA RESULT:      -7.7     24.600     25.506
REMARK  Name = ZINC000870248439
REMARK  2 active torsions:
REMARK  status: ('A' for Active; 'I' for Inactive)
REMARK    1  A    between atoms: C_2  and  C_4
REMARK    2  A    between atoms: C_7  and  C_8
REMARK                            x       y       z     vdW  Elec       q    Type
REMARK                         _______ _______ _______ _____ _____    ______ ____
ROOT
ATOM      1  C   UNL     1      29.570  20.986  17.277  0.00  0.00    +0.247 C 
ATOM      2  O   UNL     1      28.479  21.516  17.483  0.00  0.00    -0.270 OA
ATOM      3  N   UNL     1      30.785  21.540  17.704  0.00  0.00    -0.297 N 
ATOM      4  C   UNL     1      32.113  20.974  17.457  0.00  0.00    +0.108 C 
ATOM      5  C   UNL     1      33.069  21.146  18.631  0.00  0.00    +0.026 C 
ATOM      6  C   UNL     1      33.136  22.592  19.168  0.00  0.00    -0.025 C 
ATOM      7  C   UNL     1      33.965  22.563  20.477  0.00  0.00    +0.017 C 
ATOM      8  C   UNL     1      34.172  23.918  21.139  0.00  0.00    +0.069 C 
ATOM      9  S   UNL     1      35.049  25.085  20.062  0.00  0.00    -0.161 S 
ATOM     10  C   UNL     1      34.020  24.952  18.576  0.00  0.00    +0.069 C 
ATOM     11  C   UNL     1      33.844  23.504  18.132  0.00  0.00    +0.017 C 
ATOM     12  C   UNL     1      31.679  23.039  19.456  0.00  0.00    +0.026 C 
ATOM     13  C   UNL     1      30.759  22.897  18.244  0.00  0.00    +0.108 C 
ENDROOT
BRANCH   1  17
ATOM     14  C   UNL     1      29.780  17.116  15.487  0.00  0.00    +0.037 A 
ATOM     15  C   UNL     1      30.253  18.225  14.777  0.00  0.00    +0.014 A 
ATOM     16  C   UNL     1      30.100  19.505  15.312  0.00  0.00    +0.014 A 
ATOM     17  C   UNL     1      29.565  19.669  16.594  0.00  0.00    +0.037 A 
ATOM     18  C   UNL     1      29.011  18.570  17.263  0.00  0.00    +0.014 A 
ATOM     19  C   UNL     1      29.109  17.293  16.703  0.00  0.00    +0.014 A 
BRANCH  14  21
ATOM     20  N   UNL     1      28.988  14.832  15.238  0.00  0.00    -0.325 N 
ATOM     21  C   UNL     1      29.974  15.739  14.969  0.00  0.00    +0.242 C 
ATOM     22  O   UNL     1      30.944  15.441  14.288  0.00  0.00    -0.270 OA
ATOM     23  H   UNL     1      29.072  13.934  14.778  0.00  0.00    +0.145 HD
ATOM     24  H   UNL     1      28.071  15.108  15.560  0.00  0.00    +0.145 HD
ENDBRANCH  14  21
ENDBRANCH   1  17
TORSDOF 2
ENDMDL
MODEL 5
REMARK VINA RESULT:      -7.4      4.641      5.831
REMARK  Name = ZINC000870248439
REMARK  2 active torsions:
REMARK  status: ('A' for Active; 'I' for Inactive)
REMARK    1  A    between atoms: C_2  and  C_4
REMARK    2  A    between atoms: C_7  and  C_8
REMARK                            x       y       z     vdW  Elec       q    Type
REMARK                         _______ _______ _______ _____ _____    ______ ____
ROOT
ATOM      1  C   UNL     1      13.139   6.680   7.422  0.00  0.00    +0.247 C 
ATOM      2  O   UNL     1      13.901   7.541   7.862  0.00  0.00    -0.270 OA
ATOM      3  N   UNL     1      13.577   5.574   6.680  0.00  0.00    -0.297 N 
ATOM      4  C   UNL     1      12.714   4.541   6.103  0.00  0.00    +0.108 C 
ATOM      5  C   UNL     1      13.318   3.144   6.172  0.00  0.00    +0.026 C 
ATOM      6  C   UNL     1      14.766   3.068   5.639  0.00  0.00    -0.025 C 
ATOM      7  C   UNL     1      15.310   1.657   5.976  0.00  0.00    +0.017 C 
ATOM      8  C   UNL     1      16.727   1.380   5.492  0.00  0.00    +0.069 C 
ATOM      9  S   UNL     1      16.878   1.516   3.689  0.00  0.00    -0.161 S 
ATOM     10  C   UNL     1      16.144   3.157   3.450  0.00  0.00    +0.069 C 
ATOM     11  C   UNL     1      14.770   3.266   4.101  0.00  0.00    +0.017 C 
ATOM     12  C   UNL     1      15.582   4.158   6.382  0.00  0.00    +0.026 C 
ATOM     13  C   UNL     1      14.973   5.554   6.252  0.00  0.00    +0.108 C 
ENDROOT
BRANCH   1  17
ATOM     14  C   UNL     1       8.966   6.781   8.320  0.00  0.00    +0.037 A 
ATOM     15  C   UNL     1       9.429   7.392   7.149  0.00  0.00    +0.014 A 
ATOM     16  C   UNL     1      10.800   7.449   6.895  0.00  0.00    +0.014 A 
ATOM     17  C   UNL     1      11.700   6.815   7.758  0.00  0.00    +0.037 A 
ATOM     18  C   UNL     1      11.244   6.284   8.972  0.00  0.00    +0.014 A 
ATOM     19  C   UNL     1       9.876   6.278   9.258  0.00  0.00    +0.014 A 
BRANCH  14  21
ATOM     20  N   UNL     1       6.945   5.433   8.376  0.00  0.00    -0.325 N 
ATOM     21  C   UNL     1       7.513   6.658   8.593  0.00  0.00    +0.242 C 
ATOM     22  O   UNL     1       6.863   7.590   9.042  0.00  0.00    -0.270 OA
ATOM     23  H   UNL     1       5.985   5.328   8.681  0.00  0.00    +0.145 HD
ATOM     24  H   UNL     1       7.495   4.593   8.264  0.00  0.00    +0.145 HD
ENDBRANCH  14  21
ENDBRANCH   1  17
TORSDOF 2
ENDMDL
MODEL 6
REMARK VINA RESULT:      -7.4      3.947      7.005
REMARK  Name = ZINC000870248439
REMARK  2 active torsions:
REMARK  status: ('A' for Active; 'I' for Inactive)
REMARK    1  A    between atoms: C_2  and  C_4
REMARK    2  A    between atoms: C_7  and  C_8
REMARK                            x       y       z     vdW  Elec       q    Type
REMARK                         _______ _______ _______ _____ _____    ______ ____
ROOT
ATOM      1  C   UNL     1      12.310   6.326   8.963  0.00  0.00    +0.247 C 
ATOM      2  O   UNL     1      12.196   6.706  10.128  0.00  0.00    -0.270 OA
ATOM      3  N   UNL     1      13.273   5.395   8.550  0.00  0.00    -0.297 N 
ATOM      4  C   UNL     1      13.478   4.935   7.175  0.00  0.00    +0.108 C 
ATOM      5  C   UNL     1      13.835   3.456   7.081  0.00  0.00    +0.026 C 
ATOM      6  C   UNL     1      14.986   3.036   8.020  0.00  0.00    -0.025 C 
ATOM      7  C   UNL     1      15.081   1.490   7.975  0.00  0.00    +0.017 C 
ATOM      8  C   UNL     1      16.196   0.888   8.819  0.00  0.00    +0.069 C 
ATOM      9  S   UNL     1      17.837   1.467   8.310  0.00  0.00    -0.161 S 
ATOM     10  C   UNL     1      17.545   3.257   8.340  0.00  0.00    +0.069 C 
ATOM     11  C   UNL     1      16.320   3.648   7.520  0.00  0.00    +0.017 C 
ATOM     12  C   UNL     1      14.609   3.516   9.446  0.00  0.00    +0.026 C 
ATOM     13  C   UNL     1      14.304   5.013   9.512  0.00  0.00    +0.108 C 
ENDROOT
BRANCH   1  17
ATOM     14  C   UNL     1       9.451   8.069   6.314  0.00  0.00    +0.037 A 
ATOM     15  C   UNL     1       9.082   6.963   7.088  0.00  0.00    +0.014 A 
ATOM     16  C   UNL     1      10.036   6.326   7.882  0.00  0.00    +0.014 A 
ATOM     17  C   UNL     1      11.329   6.851   7.981  0.00  0.00    +0.037 A 
ATOM     18  C   UNL     1      11.721   7.900   7.140  0.00  0.00    +0.014 A 
ATOM     19  C   UNL     1      10.783   8.503   6.297  0.00  0.00    +0.014 A 
BRANCH  14  21
ATOM     20  N   UNL     1       7.365   8.086   5.066  0.00  0.00    -0.325 N 
ATOM     21  C   UNL     1       8.448   8.799   5.499  0.00  0.00    +0.242 C 
ATOM     22  O   UNL     1       8.555   9.995   5.271  0.00  0.00    -0.270 OA
ATOM     23  H   UNL     1       6.631   8.620   4.619  0.00  0.00    +0.145 HD
ATOM     24  H   UNL     1       7.119   7.186   5.454  0.00  0.00    +0.145 HD
ENDBRANCH  14  21
ENDBRANCH   1  17
TORSDOF 2
ENDMDL
MODEL 7
REMARK VINA RESULT:      -7.3      4.331      8.845
REMARK  Name = ZINC000870248439
REMARK  2 active torsions:
REMARK  status: ('A' for Active; 'I' for Inactive)
REMARK    1  A    between atoms: C_2  and  C_4
REMARK    2  A    between atoms: C_7  and  C_8
REMARK                            x       y       z     vdW  Elec       q    Type
REMARK                         _______ _______ _______ _____ _____    ______ ____
ROOT
ATOM      1  C   UNL     1      13.511   3.931   5.639  0.00  0.00    +0.247 C 
ATOM      2  O   UNL     1      12.911   2.905   5.322  0.00  0.00    -0.270 OA
ATOM      3  N   UNL     1      13.423   4.510   6.912  0.00  0.00    -0.297 N 
ATOM      4  C   UNL     1      14.085   5.747   7.333  0.00  0.00    +0.108 C 
ATOM      5  C   UNL     1      14.590   5.702   8.770  0.00  0.00    +0.026 C 
ATOM      6  C   UNL     1      13.527   5.228   9.785  0.00  0.00    -0.025 C 
ATOM      7  C   UNL     1      14.243   5.024  11.144  0.00  0.00    +0.017 C 
ATOM      8  C   UNL     1      13.339   4.588  12.289  0.00  0.00    +0.069 C 
ATOM      9  S   UNL     1      12.029   5.795  12.632  0.00  0.00    -0.161 S 
ATOM     10  C   UNL     1      11.348   5.980  10.962  0.00  0.00    +0.069 C 
ATOM     11  C   UNL     1      12.430   6.312   9.940  0.00  0.00    +0.017 C 
ATOM     12  C   UNL     1      12.964   3.882   9.260  0.00  0.00    +0.026 C 
ATOM     13  C   UNL     1      12.423   3.976   7.833  0.00  0.00    +0.108 C 
ENDROOT
BRANCH   1  17
ATOM     14  C   UNL     1      15.901   5.581   2.509  0.00  0.00    +0.037 A 
ATOM     15  C   UNL     1      16.279   4.366   3.090  0.00  0.00    +0.014 A 
ATOM     16  C   UNL     1      15.561   3.867   4.178  0.00  0.00    +0.014 A 
ATOM     17  C   UNL     1      14.412   4.530   4.622  0.00  0.00    +0.037 A 
ATOM     18  C   UNL     1      14.088   5.788   4.100  0.00  0.00    +0.014 A 
ATOM     19  C   UNL     1      14.841   6.320   3.050  0.00  0.00    +0.014 A 
BRANCH  14  21
ATOM     20  N   UNL     1      17.948   6.361   1.457  0.00  0.00    -0.325 N 
ATOM     21  C   UNL     1      16.612   6.112   1.319  0.00  0.00    +0.242 C 
ATOM     22  O   UNL     1      16.043   6.267   0.249  0.00  0.00    -0.270 OA
ATOM     23  H   UNL     1      18.445   6.604   0.609  0.00  0.00    +0.145 HD
ATOM     24  H   UNL     1      18.490   5.999   2.229  0.00  0.00    +0.145 HD
ENDBRANCH  14  21
ENDBRANCH   1  17
TORSDOF 2
ENDMDL
MODEL 8
REMARK VINA RESULT:      -7.3      2.782      4.463
REMARK  Name = ZINC000870248439
REMARK  2 active torsions:
REMARK  status: ('A' for Active; 'I' for Inactive)
REMARK    1  A    between atoms: C_2  and  C_4
REMARK    2  A    between atoms: C_7  and  C_8
REMARK                            x       y       z     vdW  Elec       q    Type
REMARK                         _______ _______ _______ _____ _____    ______ ____
ROOT
ATOM      1  C   UNL     1      13.018   3.545   6.799  0.00  0.00    +0.247 C 
ATOM      2  O   UNL     1      12.642   2.409   6.515  0.00  0.00    -0.270 OA
ATOM      3  N   UNL     1      13.678   4.385   5.891  0.00  0.00    -0.297 N 
ATOM      4  C   UNL     1      14.178   5.730   6.185  0.00  0.00    +0.108 C 
ATOM      5  C   UNL     1      14.009   6.702   5.024  0.00  0.00    +0.026 C 
ATOM      6  C   UNL     1      14.536   6.159   3.679  0.00  0.00    -0.025 C 
ATOM      7  C   UNL     1      14.099   7.153   2.573  0.00  0.00    +0.017 C 
ATOM      8  C   UNL     1      14.564   6.798   1.168  0.00  0.00    +0.069 C 
ATOM      9  S   UNL     1      16.372   6.727   1.037  0.00  0.00    -0.161 S 
ATOM     10  C   UNL     1      16.728   5.607   2.417  0.00  0.00    +0.069 C 
ATOM     11  C   UNL     1      16.085   6.080   3.716  0.00  0.00    +0.017 C 
ATOM     12  C   UNL     1      13.875   4.773   3.457  0.00  0.00    +0.026 C 
ATOM     13  C   UNL     1      14.106   3.808   4.620  0.00  0.00    +0.108 C 
ENDROOT
BRANCH   1  17
ATOM     14  C   UNL     1      12.125   5.260  10.606  0.00  0.00    +0.037 A 
ATOM     15  C   UNL     1      13.335   4.582  10.428  0.00  0.00    +0.014 A 
ATOM     16  C   UNL     1      13.594   3.935   9.219  0.00  0.00    +0.014 A 
ATOM     17  C   UNL     1      12.690   4.046   8.157  0.00  0.00    +0.037 A 
ATOM     18  C   UNL     1      11.442   4.647   8.365  0.00  0.00    +0.014 A 
ATOM     19  C   UNL     1      11.155   5.245   9.595  0.00  0.00    +0.014 A 
BRANCH  14  21
ATOM     20  N   UNL     1      12.118   5.359  13.034  0.00  0.00    -0.325 N 
ATOM     21  C   UNL     1      11.842   6.002  11.860  0.00  0.00    +0.242 C 
ATOM     22  O   UNL     1      11.434   7.153  11.846  0.00  0.00    -0.270 OA
ATOM     23  H   UNL     1      12.039   5.916  13.876  0.00  0.00    +0.145 HD
ATOM     24  H   UNL     1      12.694   4.530  13.075  0.00  0.00    +0.145 HD
ENDBRANCH  14  21
ENDBRANCH   1  17
TORSDOF 2
ENDMDL
MODEL 9
REMARK VINA RESULT:      -7.2     24.998     25.637
REMARK  Name = ZINC000870248439
REMARK  2 active torsions:
REMARK  status: ('A' for Active; 'I' for Inactive)
REMARK    1  A    between atoms: C_2  and  C_4
REMARK    2  A    between atoms: C_7  and  C_8
REMARK                            x       y       z     vdW  Elec       q    Type
REMARK                         _______ _______ _______ _____ _____    ______ ____
ROOT
ATOM      1  C   UNL     1      32.071  20.735  13.860  0.00  0.00    +0.247 C 
ATOM      2  O   UNL     1      32.348  19.543  13.730  0.00  0.00    -0.270 OA
ATOM      3  N   UNL     1      32.574  21.737  13.018  0.00  0.00    -0.297 N 
ATOM      4  C   UNL     1      32.308  23.171  13.147  0.00  0.00    +0.108 C 
ATOM      5  C   UNL     1      32.150  23.878  11.807  0.00  0.00    +0.026 C 
ATOM      6  C   UNL     1      33.292  23.579  10.811  0.00  0.00    -0.025 C 
ATOM      7  C   UNL     1      32.883  24.180   9.443  0.00  0.00    +0.017 C 
ATOM      8  C   UNL     1      33.911  24.014   8.333  0.00  0.00    +0.069 C 
ATOM      9  S   UNL     1      35.492  24.808   8.733  0.00  0.00    -0.161 S 
ATOM     10  C   UNL     1      35.793  24.072  10.362  0.00  0.00    +0.069 C 
ATOM     11  C   UNL     1      34.601  24.252  11.297  0.00  0.00    +0.017 C 
ATOM     12  C   UNL     1      33.416  22.036  10.712  0.00  0.00    +0.026 C 
ATOM     13  C   UNL     1      33.621  21.364  12.070  0.00  0.00    +0.108 C 
ENDROOT
BRANCH   1  17
ATOM     14  C   UNL     1      29.325  21.487  17.042  0.00  0.00    +0.037 A 
ATOM     15  C   UNL     1      28.845  21.392  15.731  0.00  0.00    +0.014 A 
ATOM     16  C   UNL     1      29.744  21.244  14.674  0.00  0.00    +0.014 A 
ATOM     17  C   UNL     1      31.111  21.093  14.933  0.00  0.00    +0.037 A 
ATOM     18  C   UNL     1      31.598  21.278  16.233  0.00  0.00    +0.014 A 
ATOM     19  C   UNL     1      30.704  21.486  17.287  0.00  0.00    +0.014 A 
BRANCH  14  21
ATOM     20  N   UNL     1      28.386  22.773  18.878  0.00  0.00    -0.325 N 
ATOM     21  C   UNL     1      28.392  21.591  18.191  0.00  0.00    +0.242 C 
ATOM     22  O   UNL     1      27.625  20.685  18.479  0.00  0.00    -0.270 OA
ATOM     23  H   UNL     1      27.663  22.877  19.578  0.00  0.00    +0.145 HD
ATOM     24  H   UNL     1      28.805  23.616  18.509  0.00  0.00    +0.145 HD
ENDBRANCH  14  21
ENDBRANCH   1  17
TORSDOF 2
ENDMDL
