MODEL 1
REMARK VINA RESULT:      -7.0      0.000      0.000
REMARK  Name = ZINC000826139982
REMARK  4 active torsions:
REMARK  status: ('A' for Active; 'I' for Inactive)
REMARK    1  A    between atoms: C_2  and  C_4
REMARK    2  A    between atoms: C_8  and  C_10
REMARK    3  A    between atoms: C_14  and  S_15
REMARK    4  A    between atoms: S_15  and  C_16
REMARK                            x       y       z     vdW  Elec       q    Type
REMARK                         _______ _______ _______ _____ _____    ______ ____
ROOT
ATOM      1  C   UNL     1      30.658  23.602  19.447  0.00  0.00    +0.093 C 
ATOM      2  C   UNL     1      29.152  23.803  19.644  0.00  0.00    +0.033 C 
ATOM      3  C   UNL     1      28.488  22.668  18.876  0.00  0.00    +0.109 C 
ATOM      4  N   UNL     1      29.436  22.344  17.831  0.00  0.00    -0.297 N 
ATOM      5  C   UNL     1      29.030  21.765  16.635  0.00  0.00    +0.247 C 
ATOM      6  O   UNL     1      27.840  21.579  16.383  0.00  0.00    -0.270 OA
ATOM      7  C   UNL     1      30.785  22.592  18.313  0.00  0.00    +0.120 C 
ENDROOT
BRANCH   5   8
ATOM      8  C   UNL     1      30.028  21.410  15.573  0.00  0.00    +0.038 A 
ATOM      9  C   UNL     1      30.289  20.097  15.167  0.00  0.00    +0.013 A 
ATOM     10  C   UNL     1      31.314  19.815  14.265  0.00  0.00    +0.002 A 
ATOM     11  C   UNL     1      32.024  20.854  13.675  0.00  0.00    +0.015 A 
ATOM     12  C   UNL     1      31.690  22.182  13.959  0.00  0.00    +0.017 A 
ATOM     13  C   UNL     1      30.719  22.453  14.934  0.00  0.00    +0.028 A 
BRANCH  12  14
ATOM     14  S   UNL     1      32.512  23.525  13.128  0.00  0.00    -0.016 S 
BRANCH  14  15
ATOM     15  C   UNL     1      31.165  24.197  12.132  0.00  0.00    +0.448 C 
ATOM     16  F   UNL     1      30.792  25.451  12.482  0.00  0.00    -0.160 F 
ATOM     17  F   UNL     1      31.506  24.237  10.822  0.00  0.00    -0.160 F 
ATOM     18  F   UNL     1      30.061  23.415  12.232  0.00  0.00    -0.160 F 
ENDBRANCH  14  15
ENDBRANCH  12  14
ENDBRANCH   5   8
BRANCH   1  20
ATOM     19  N   UNL     1      30.896  23.642  21.864  0.00  0.00    -0.329 N 
ATOM     20  C   UNL     1      31.400  23.158  20.693  0.00  0.00    +0.215 C 
ATOM     21  O   UNL     1      32.412  22.473  20.697  0.00  0.00    -0.276 OA
ATOM     22  H   UNL     1      31.402  23.427  22.714  0.00  0.00    +0.145 HD
ATOM     23  H   UNL     1      30.106  24.270  21.914  0.00  0.00    +0.145 HD
ENDBRANCH   1  20
TORSDOF 4
ENDMDL
MODEL 2
REMARK VINA RESULT:      -6.9      2.950      3.814
REMARK  Name = ZINC000826139982
REMARK  4 active torsions:
REMARK  status: ('A' for Active; 'I' for Inactive)
REMARK    1  A    between atoms: C_2  and  C_4
REMARK    2  A    between atoms: C_8  and  C_10
REMARK    3  A    between atoms: C_14  and  S_15
REMARK    4  A    between atoms: S_15  and  C_16
REMARK                            x       y       z     vdW  Elec       q    Type
REMARK                         _______ _______ _______ _____ _____    ______ ____
ROOT
ATOM      1  C   UNL     1      30.729  23.590  19.378  0.00  0.00    +0.093 C 
ATOM      2  C   UNL     1      29.206  23.724  19.496  0.00  0.00    +0.033 C 
ATOM      3  C   UNL     1      28.635  22.573  18.680  0.00  0.00    +0.109 C 
ATOM      4  N   UNL     1      29.651  22.304  17.684  0.00  0.00    -0.297 N 
ATOM      5  C   UNL     1      29.335  21.723  16.462  0.00  0.00    +0.247 C 
ATOM      6  O   UNL     1      28.169  21.491  16.143  0.00  0.00    -0.270 OA
ATOM      7  C   UNL     1      30.960  22.602  18.242  0.00  0.00    +0.120 C 
ENDROOT
BRANCH   5   8
ATOM      8  C   UNL     1      30.404  21.426  15.452  0.00  0.00    +0.038 A 
ATOM      9  C   UNL     1      30.904  22.375  14.556  0.00  0.00    +0.013 A 
ATOM     10  C   UNL     1      31.807  22.014  13.557  0.00  0.00    +0.002 A 
ATOM     11  C   UNL     1      32.304  20.716  13.507  0.00  0.00    +0.015 A 
ATOM     12  C   UNL     1      31.925  19.783  14.477  0.00  0.00    +0.017 A 
ATOM     13  C   UNL     1      30.950  20.131  15.423  0.00  0.00    +0.028 A 
BRANCH  12  14
ATOM     14  S   UNL     1      32.638  18.151  14.497  0.00  0.00    -0.016 S 
BRANCH  14  15
ATOM     15  C   UNL     1      31.223  17.145  14.003  0.00  0.00    +0.448 C 
ATOM     16  F   UNL     1      31.558  15.951  13.460  0.00  0.00    -0.160 F 
ATOM     17  F   UNL     1      30.420  16.887  15.063  0.00  0.00    -0.160 F 
ATOM     18  F   UNL     1      30.471  17.799  13.084  0.00  0.00    -0.160 F 
ENDBRANCH  14  15
ENDBRANCH  12  14
ENDBRANCH   5   8
BRANCH   1  20
ATOM     19  N   UNL     1      30.847  23.628  21.804  0.00  0.00    -0.329 N 
ATOM     20  C   UNL     1      31.420  23.161  20.659  0.00  0.00    +0.215 C 
ATOM     21  O   UNL     1      32.448  22.503  20.709  0.00  0.00    -0.276 OA
ATOM     22  H   UNL     1      31.317  23.423  22.678  0.00  0.00    +0.145 HD
ATOM     23  H   UNL     1      30.040  24.234  21.817  0.00  0.00    +0.145 HD
ENDBRANCH   1  20
TORSDOF 4
ENDMDL
MODEL 3
REMARK VINA RESULT:      -6.8      4.763      6.910
REMARK  Name = ZINC000826139982
REMARK  4 active torsions:
REMARK  status: ('A' for Active; 'I' for Inactive)
REMARK    1  A    between atoms: C_2  and  C_4
REMARK    2  A    between atoms: C_8  and  C_10
REMARK    3  A    between atoms: C_14  and  S_15
REMARK    4  A    between atoms: S_15  and  C_16
REMARK                            x       y       z     vdW  Elec       q    Type
REMARK                         _______ _______ _______ _____ _____    ______ ____
ROOT
ATOM      1  C   UNL     1      31.027  17.782  14.533  0.00  0.00    +0.093 C 
ATOM      2  C   UNL     1      31.486  18.283  13.159  0.00  0.00    +0.033 C 
ATOM      3  C   UNL     1      32.160  19.623  13.423  0.00  0.00    +0.109 C 
ATOM      4  N   UNL     1      31.519  20.114  14.625  0.00  0.00    -0.297 N 
ATOM      5  C   UNL     1      31.447  21.472  14.908  0.00  0.00    +0.247 C 
ATOM      6  O   UNL     1      31.851  22.317  14.109  0.00  0.00    -0.270 OA
ATOM      7  C   UNL     1      31.140  18.985  15.461  0.00  0.00    +0.120 C 
ENDROOT
BRANCH   5   8
ATOM      8  C   UNL     1      30.804  21.962  16.172  0.00  0.00    +0.038 A 
ATOM      9  C   UNL     1      29.468  21.717  16.503  0.00  0.00    +0.013 A 
ATOM     10  C   UNL     1      28.888  22.300  17.629  0.00  0.00    +0.002 A 
ATOM     11  C   UNL     1      29.668  23.053  18.499  0.00  0.00    +0.015 A 
ATOM     12  C   UNL     1      31.039  23.198  18.265  0.00  0.00    +0.017 A 
ATOM     13  C   UNL     1      31.594  22.683  17.084  0.00  0.00    +0.028 A 
BRANCH  12  14
ATOM     14  S   UNL     1      32.075  24.062  19.428  0.00  0.00    -0.016 S 
BRANCH  14  15
ATOM     15  C   UNL     1      32.372  22.773  20.656  0.00  0.00    +0.448 C 
ATOM     16  F   UNL     1      31.317  22.530  21.468  0.00  0.00    -0.160 F 
ATOM     17  F   UNL     1      32.691  21.600  20.058  0.00  0.00    -0.160 F 
ATOM     18  F   UNL     1      33.415  23.109  21.456  0.00  0.00    -0.160 F 
ENDBRANCH  14  15
ENDBRANCH  12  14
ENDBRANCH   5   8
BRANCH   1  20
ATOM     19  N   UNL     1      32.156  15.674  14.104  0.00  0.00    -0.329 N 
ATOM     20  C   UNL     1      31.801  16.585  15.054  0.00  0.00    +0.215 C 
ATOM     21  O   UNL     1      32.054  16.377  16.231  0.00  0.00    -0.276 OA
ATOM     22  H   UNL     1      32.613  14.827  14.417  0.00  0.00    +0.145 HD
ATOM     23  H   UNL     1      31.909  15.761  13.128  0.00  0.00    +0.145 HD
ENDBRANCH   1  20
TORSDOF 4
ENDMDL
MODEL 4
REMARK VINA RESULT:      -6.6      4.750      7.133
REMARK  Name = ZINC000826139982
REMARK  4 active torsions:
REMARK  status: ('A' for Active; 'I' for Inactive)
REMARK    1  A    between atoms: C_2  and  C_4
REMARK    2  A    between atoms: C_8  and  C_10
REMARK    3  A    between atoms: C_14  and  S_15
REMARK    4  A    between atoms: S_15  and  C_16
REMARK                            x       y       z     vdW  Elec       q    Type
REMARK                         _______ _______ _______ _____ _____    ______ ____
ROOT
ATOM      1  C   UNL     1      32.596  23.124  12.768  0.00  0.00    +0.093 C 
ATOM      2  C   UNL     1      33.368  21.810  12.601  0.00  0.00    +0.033 C 
ATOM      3  C   UNL     1      32.568  20.770  13.373  0.00  0.00    +0.109 C 
ATOM      4  N   UNL     1      31.887  21.534  14.398  0.00  0.00    -0.297 N 
ATOM      5  C   UNL     1      31.493  20.952  15.597  0.00  0.00    +0.247 C 
ATOM      6  O   UNL     1      31.780  19.787  15.871  0.00  0.00    -0.270 OA
ATOM      7  C   UNL     1      31.599  22.866  13.891  0.00  0.00    +0.120 C 
ENDROOT
BRANCH   5   8
ATOM      8  C   UNL     1      30.764  21.750  16.637  0.00  0.00    +0.038 A 
ATOM      9  C   UNL     1      29.372  21.749  16.775  0.00  0.00    +0.013 A 
ATOM     10  C   UNL     1      28.739  22.603  17.676  0.00  0.00    +0.002 A 
ATOM     11  C   UNL     1      29.498  23.397  18.529  0.00  0.00    +0.015 A 
ATOM     12  C   UNL     1      30.894  23.314  18.507  0.00  0.00    +0.017 A 
ATOM     13  C   UNL     1      31.521  22.519  17.537  0.00  0.00    +0.028 A 
BRANCH  12  14
ATOM     14  S   UNL     1      31.878  24.237  19.669  0.00  0.00    -0.016 S 
BRANCH  14  15
ATOM     15  C   UNL     1      32.088  23.026  20.991  0.00  0.00    +0.448 C 
ATOM     16  F   UNL     1      32.512  21.813  20.566  0.00  0.00    -0.160 F 
ATOM     17  F   UNL     1      32.986  23.461  21.907  0.00  0.00    -0.160 F 
ATOM     18  F   UNL     1      30.917  22.827  21.646  0.00  0.00    -0.160 F 
ENDBRANCH  14  15
ENDBRANCH  12  14
ENDBRANCH   5   8
BRANCH   1  20
ATOM     19  N   UNL     1      32.187  22.885  10.386  0.00  0.00    -0.329 N 
ATOM     20  C   UNL     1      31.916  23.616  11.504  0.00  0.00    +0.215 C 
ATOM     21  O   UNL     1      31.224  24.620  11.430  0.00  0.00    -0.276 OA
ATOM     22  H   UNL     1      31.810  23.219   9.507  0.00  0.00    +0.145 HD
ATOM     23  H   UNL     1      32.809  22.089  10.376  0.00  0.00    +0.145 HD
ENDBRANCH   1  20
TORSDOF 4
ENDMDL
MODEL 5
REMARK VINA RESULT:      -6.6      4.662      6.564
REMARK  Name = ZINC000826139982
REMARK  4 active torsions:
REMARK  status: ('A' for Active; 'I' for Inactive)
REMARK    1  A    between atoms: C_2  and  C_4
REMARK    2  A    between atoms: C_8  and  C_10
REMARK    3  A    between atoms: C_14  and  S_15
REMARK    4  A    between atoms: S_15  and  C_16
REMARK                            x       y       z     vdW  Elec       q    Type
REMARK                         _______ _______ _______ _____ _____    ______ ____
ROOT
ATOM      1  C   UNL     1      31.871  17.417  15.299  0.00  0.00    +0.093 C 
ATOM      2  C   UNL     1      31.168  17.312  13.941  0.00  0.00    +0.033 C 
ATOM      3  C   UNL     1      30.930  18.749  13.496  0.00  0.00    +0.109 C 
ATOM      4  N   UNL     1      30.844  19.494  14.735  0.00  0.00    -0.297 N 
ATOM      5  C   UNL     1      30.137  20.687  14.818  0.00  0.00    +0.247 C 
ATOM      6  O   UNL     1      29.486  21.116  13.865  0.00  0.00    -0.270 OA
ATOM      7  C   UNL     1      31.697  18.867  15.732  0.00  0.00    +0.120 C 
ENDROOT
BRANCH   5   8
ATOM      8  C   UNL     1      30.081  21.462  16.102  0.00  0.00    +0.038 A 
ATOM      9  C   UNL     1      28.904  21.670  16.827  0.00  0.00    +0.013 A 
ATOM     10  C   UNL     1      28.887  22.500  17.946  0.00  0.00    +0.002 A 
ATOM     11  C   UNL     1      30.073  23.051  18.419  0.00  0.00    +0.015 A 
ATOM     12  C   UNL     1      31.286  22.746  17.793  0.00  0.00    +0.017 A 
ATOM     13  C   UNL     1      31.280  21.983  16.617  0.00  0.00    +0.028 A 
BRANCH  12  14
ATOM     14  S   UNL     1      32.826  23.350  18.452  0.00  0.00    -0.016 S 
BRANCH  14  15
ATOM     15  C   UNL     1      33.104  22.193  19.809  0.00  0.00    +0.448 C 
ATOM     16  F   UNL     1      32.125  22.195  20.745  0.00  0.00    -0.160 F 
ATOM     17  F   UNL     1      33.209  20.924  19.348  0.00  0.00    -0.160 F 
ATOM     18  F   UNL     1      34.263  22.481  20.451  0.00  0.00    -0.160 F 
ENDBRANCH  14  15
ENDBRANCH  12  14
ENDBRANCH   5   8
BRANCH   1  20
ATOM     19  N   UNL     1      33.845  16.675  16.504  0.00  0.00    -0.329 N 
ATOM     20  C   UNL     1      33.329  16.996  15.284  0.00  0.00    +0.215 C 
ATOM     21  O   UNL     1      34.044  16.991  14.293  0.00  0.00    -0.276 OA
ATOM     22  H   UNL     1      34.833  16.456  16.550  0.00  0.00    +0.145 HD
ATOM     23  H   UNL     1      33.320  16.732  17.365  0.00  0.00    +0.145 HD
ENDBRANCH   1  20
TORSDOF 4
ENDMDL
MODEL 6
REMARK VINA RESULT:      -6.4      3.513      5.749
REMARK  Name = ZINC000826139982
REMARK  4 active torsions:
REMARK  status: ('A' for Active; 'I' for Inactive)
REMARK    1  A    between atoms: C_2  and  C_4
REMARK    2  A    between atoms: C_8  and  C_10
REMARK    3  A    between atoms: C_14  and  S_15
REMARK    4  A    between atoms: S_15  and  C_16
REMARK                            x       y       z     vdW  Elec       q    Type
REMARK                         _______ _______ _______ _____ _____    ______ ____
ROOT
ATOM      1  C   UNL     1      29.940  21.531  16.193  0.00  0.00    +0.093 C 
ATOM      2  C   UNL     1      28.608  21.626  16.945  0.00  0.00    +0.033 C 
ATOM      3  C   UNL     1      28.794  22.746  17.960  0.00  0.00    +0.109 C 
ATOM      4  N   UNL     1      30.219  22.754  18.221  0.00  0.00    -0.297 N 
ATOM      5  C   UNL     1      30.734  23.230  19.421  0.00  0.00    +0.247 C 
ATOM      6  O   UNL     1      29.998  23.585  20.341  0.00  0.00    -0.270 OA
ATOM      7  C   UNL     1      30.929  22.342  17.022  0.00  0.00    +0.120 C 
ENDROOT
BRANCH   5   8
ATOM      8  C   UNL     1      32.214  23.258  19.665  0.00  0.00    +0.038 A 
ATOM      9  C   UNL     1      32.932  22.173  20.176  0.00  0.00    +0.013 A 
ATOM     10  C   UNL     1      34.283  22.294  20.500  0.00  0.00    +0.002 A 
ATOM     11  C   UNL     1      34.961  23.474  20.218  0.00  0.00    +0.015 A 
ATOM     12  C   UNL     1      34.298  24.527  19.579  0.00  0.00    +0.017 A 
ATOM     13  C   UNL     1      32.920  24.429  19.339  0.00  0.00    +0.028 A 
BRANCH  12  14
ATOM     14  S   UNL     1      35.178  26.002  19.106  0.00  0.00    -0.016 S 
BRANCH  14  15
ATOM     15  C   UNL     1      34.352  26.421  17.556  0.00  0.00    +0.448 C 
ATOM     16  F   UNL     1      35.010  27.341  16.812  0.00  0.00    -0.160 F 
ATOM     17  F   UNL     1      34.196  25.321  16.780  0.00  0.00    -0.160 F 
ATOM     18  F   UNL     1      33.114  26.918  17.795  0.00  0.00    -0.160 F 
ENDBRANCH  14  15
ENDBRANCH  12  14
ENDBRANCH   5   8
BRANCH   1  20
ATOM     19  N   UNL     1      30.206  23.314  14.564  0.00  0.00    -0.329 N 
ATOM     20  C   UNL     1      29.882  22.003  14.752  0.00  0.00    +0.215 C 
ATOM     21  O   UNL     1      29.518  21.318  13.808  0.00  0.00    -0.276 OA
ATOM     22  H   UNL     1      30.113  23.688  13.628  0.00  0.00    +0.145 HD
ATOM     23  H   UNL     1      30.444  23.943  15.318  0.00  0.00    +0.145 HD
ENDBRANCH   1  20
TORSDOF 4
ENDMDL
MODEL 7
REMARK VINA RESULT:      -6.1      2.815      3.859
REMARK  Name = ZINC000826139982
REMARK  4 active torsions:
REMARK  status: ('A' for Active; 'I' for Inactive)
REMARK    1  A    between atoms: C_2  and  C_4
REMARK    2  A    between atoms: C_8  and  C_10
REMARK    3  A    between atoms: C_14  and  S_15
REMARK    4  A    between atoms: S_15  and  C_16
REMARK                            x       y       z     vdW  Elec       q    Type
REMARK                         _______ _______ _______ _____ _____    ______ ____
ROOT
ATOM      1  C   UNL     1      31.973  23.145  17.378  0.00  0.00    +0.093 C 
ATOM      2  C   UNL     1      30.758  22.268  17.702  0.00  0.00    +0.033 C 
ATOM      3  C   UNL     1      30.494  21.460  16.439  0.00  0.00    +0.109 C 
ATOM      4  N   UNL     1      31.009  22.291  15.371  0.00  0.00    -0.297 N 
ATOM      5  C   UNL     1      30.520  22.194  14.074  0.00  0.00    +0.247 C 
ATOM      6  O   UNL     1      29.573  21.457  13.798  0.00  0.00    -0.270 OA
ATOM      7  C   UNL     1      32.137  23.064  15.865  0.00  0.00    +0.120 C 
ENDROOT
BRANCH   5   8
ATOM      8  C   UNL     1      31.083  23.043  12.973  0.00  0.00    +0.038 A 
ATOM      9  C   UNL     1      30.642  24.341  12.698  0.00  0.00    +0.013 A 
ATOM     10  C   UNL     1      31.113  25.039  11.586  0.00  0.00    +0.002 A 
ATOM     11  C   UNL     1      32.111  24.486  10.792  0.00  0.00    +0.015 A 
ATOM     12  C   UNL     1      32.668  23.248  11.127  0.00  0.00    +0.017 A 
ATOM     13  C   UNL     1      32.126  22.515  12.193  0.00  0.00    +0.028 A 
BRANCH  12  14
ATOM     14  S   UNL     1      34.025  22.577  10.189  0.00  0.00    -0.016 S 
BRANCH  14  15
ATOM     15  C   UNL     1      33.205  22.159   8.636  0.00  0.00    +0.448 C 
ATOM     16  F   UNL     1      32.603  23.209   8.030  0.00  0.00    -0.160 F 
ATOM     17  F   UNL     1      34.088  21.642   7.748  0.00  0.00    -0.160 F 
ATOM     18  F   UNL     1      32.249  21.220   8.840  0.00  0.00    -0.160 F 
ENDBRANCH  14  15
ENDBRANCH  12  14
ENDBRANCH   5   8
BRANCH   1  20
ATOM     19  N   UNL     1      33.629  23.621  19.090  0.00  0.00    -0.329 N 
ATOM     20  C   UNL     1      33.242  22.754  18.112  0.00  0.00    +0.215 C 
ATOM     21  O   UNL     1      33.933  21.783  17.842  0.00  0.00    -0.276 OA
ATOM     22  H   UNL     1      34.507  23.435  19.558  0.00  0.00    +0.145 HD
ATOM     23  H   UNL     1      33.135  24.475  19.306  0.00  0.00    +0.145 HD
ENDBRANCH   1  20
TORSDOF 4
ENDMDL
MODEL 8
REMARK VINA RESULT:      -6.1      5.114      6.690
REMARK  Name = ZINC000826139982
REMARK  4 active torsions:
REMARK  status: ('A' for Active; 'I' for Inactive)
REMARK    1  A    between atoms: C_2  and  C_4
REMARK    2  A    between atoms: C_8  and  C_10
REMARK    3  A    between atoms: C_14  and  S_15
REMARK    4  A    between atoms: S_15  and  C_16
REMARK                            x       y       z     vdW  Elec       q    Type
REMARK                         _______ _______ _______ _____ _____    ______ ____
ROOT
ATOM      1  C   UNL     1      33.745  17.508  16.667  0.00  0.00    +0.093 C 
ATOM      2  C   UNL     1      34.047  17.430  15.166  0.00  0.00    +0.033 C 
ATOM      3  C   UNL     1      34.027  18.871  14.675  0.00  0.00    +0.109 C 
ATOM      4  N   UNL     1      33.136  19.548  15.593  0.00  0.00    -0.297 N 
ATOM      5  C   UNL     1      32.441  20.692  15.222  0.00  0.00    +0.247 C 
ATOM      6  O   UNL     1      32.492  21.129  14.072  0.00  0.00    -0.270 OA
ATOM      7  C   UNL     1      33.231  18.922  16.902  0.00  0.00    +0.120 C 
ENDROOT
BRANCH   5   8
ATOM      8  C   UNL     1      31.543  21.397  16.194  0.00  0.00    +0.038 A 
ATOM      9  C   UNL     1      30.155  21.232  16.222  0.00  0.00    +0.013 A 
ATOM     10  C   UNL     1      29.355  22.004  17.063  0.00  0.00    +0.002 A 
ATOM     11  C   UNL     1      29.946  22.881  17.967  0.00  0.00    +0.015 A 
ATOM     12  C   UNL     1      31.338  22.964  18.056  0.00  0.00    +0.017 A 
ATOM     13  C   UNL     1      32.130  22.249  17.145  0.00  0.00    +0.028 A 
BRANCH  12  14
ATOM     14  S   UNL     1      32.112  23.995  19.284  0.00  0.00    -0.016 S 
BRANCH  14  15
ATOM     15  C   UNL     1      32.243  22.849  20.673  0.00  0.00    +0.448 C 
ATOM     16  F   UNL     1      32.719  21.627  20.336  0.00  0.00    -0.160 F 
ATOM     17  F   UNL     1      33.062  23.344  21.631  0.00  0.00    -0.160 F 
ATOM     18  F   UNL     1      31.030  22.655  21.247  0.00  0.00    -0.160 F 
ENDBRANCH  14  15
ENDBRANCH  12  14
ENDBRANCH   5   8
BRANCH   1  20
ATOM     19  N   UNL     1      35.039  17.952  18.675  0.00  0.00    -0.329 N 
ATOM     20  C   UNL     1      34.925  17.173  17.561  0.00  0.00    +0.215 C 
ATOM     21  O   UNL     1      35.769  16.324  17.315  0.00  0.00    -0.276 OA
ATOM     22  H   UNL     1      35.851  17.808  19.263  0.00  0.00    +0.145 HD
ATOM     23  H   UNL     1      34.412  18.713  18.889  0.00  0.00    +0.145 HD
ENDBRANCH   1  20
TORSDOF 4
ENDMDL
MODEL 9
REMARK VINA RESULT:      -6.1      5.636      8.260
REMARK  Name = ZINC000826139982
REMARK  4 active torsions:
REMARK  status: ('A' for Active; 'I' for Inactive)
REMARK    1  A    between atoms: C_2  and  C_4
REMARK    2  A    between atoms: C_8  and  C_10
REMARK    3  A    between atoms: C_14  and  S_15
REMARK    4  A    between atoms: S_15  and  C_16
REMARK                            x       y       z     vdW  Elec       q    Type
REMARK                         _______ _______ _______ _____ _____    ______ ____
ROOT
ATOM      1  C   UNL     1      35.958  25.491  10.391  0.00  0.00    +0.093 C 
ATOM      2  C   UNL     1      36.189  24.563   9.193  0.00  0.00    +0.033 C 
ATOM      3  C   UNL     1      34.806  24.063   8.797  0.00  0.00    +0.109 C 
ATOM      4  N   UNL     1      34.042  24.119  10.026  0.00  0.00    -0.297 N 
ATOM      5  C   UNL     1      32.945  23.294  10.238  0.00  0.00    +0.247 C 
ATOM      6  O   UNL     1      32.628  22.425   9.426  0.00  0.00    -0.270 OA
ATOM      7  C   UNL     1      34.529  25.219  10.843  0.00  0.00    +0.120 C 
ENDROOT
BRANCH   5   8
ATOM      8  C   UNL     1      32.147  23.384  11.506  0.00  0.00    +0.038 A 
ATOM      9  C   UNL     1      31.188  24.374  11.745  0.00  0.00    +0.013 A 
ATOM     10  C   UNL     1      30.565  24.485  12.987  0.00  0.00    +0.002 A 
ATOM     11  C   UNL     1      30.816  23.540  13.975  0.00  0.00    +0.015 A 
ATOM     12  C   UNL     1      31.665  22.460  13.714  0.00  0.00    +0.017 A 
ATOM     13  C   UNL     1      32.355  22.407  12.494  0.00  0.00    +0.028 A 
BRANCH  12  14
ATOM     14  S   UNL     1      31.909  21.180  14.927  0.00  0.00    -0.016 S 
BRANCH  14  15
ATOM     15  C   UNL     1      30.262  20.443  14.994  0.00  0.00    +0.448 C 
ATOM     16  F   UNL     1      29.546  20.588  13.855  0.00  0.00    -0.160 F 
ATOM     17  F   UNL     1      30.338  19.115  15.249  0.00  0.00    -0.160 F 
ATOM     18  F   UNL     1      29.532  20.999  15.993  0.00  0.00    -0.160 F 
ENDBRANCH  14  15
ENDBRANCH  12  14
ENDBRANCH   5   8
BRANCH   1  20
ATOM     19  N   UNL     1      37.494  27.297   9.862  0.00  0.00    -0.329 N 
ATOM     20  C   UNL     1      36.194  26.961  10.098  0.00  0.00    +0.215 C 
ATOM     21  O   UNL     1      35.331  27.825  10.124  0.00  0.00    -0.276 OA
ATOM     22  H   UNL     1      37.706  28.279   9.731  0.00  0.00    +0.145 HD
ATOM     23  H   UNL     1      38.257  26.636   9.899  0.00  0.00    +0.145 HD
ENDBRANCH   1  20
TORSDOF 4
ENDMDL
