MODEL 1
REMARK VINA RESULT:      -7.0      0.000      0.000
REMARK  Name = ZINC000826139982
REMARK  4 active torsions:
REMARK  status: ('A' for Active; 'I' for Inactive)
REMARK    1  A    between atoms: C_2  and  C_4
REMARK    2  A    between atoms: C_8  and  C_10
REMARK    3  A    between atoms: C_14  and  S_15
REMARK    4  A    between atoms: S_15  and  C_16
REMARK                            x       y       z     vdW  Elec       q    Type
REMARK                         _______ _______ _______ _____ _____    ______ ____
ROOT
ATOM      1  C   UNL     1      27.566  21.394  16.216  0.00  0.00    +0.093 C 
ATOM      2  C   UNL     1      28.621  20.575  16.968  0.00  0.00    +0.033 C 
ATOM      3  C   UNL     1      29.879  21.433  16.962  0.00  0.00    +0.109 C 
ATOM      4  N   UNL     1      29.749  22.247  15.772  0.00  0.00    -0.297 N 
ATOM      5  C   UNL     1      30.861  22.763  15.118  0.00  0.00    +0.247 C 
ATOM      6  O   UNL     1      32.004  22.480  15.476  0.00  0.00    -0.270 OA
ATOM      7  C   UNL     1      28.340  22.508  15.521  0.00  0.00    +0.120 C 
ENDROOT
BRANCH   5   8
ATOM      8  C   UNL     1      30.707  23.628  13.902  0.00  0.00    +0.038 A 
ATOM      9  C   UNL     1      29.824  24.709  13.831  0.00  0.00    +0.013 A 
ATOM     10  C   UNL     1      29.631  25.402  12.636  0.00  0.00    +0.002 A 
ATOM     11  C   UNL     1      30.401  25.089  11.522  0.00  0.00    +0.015 A 
ATOM     12  C   UNL     1      31.390  24.104  11.607  0.00  0.00    +0.017 A 
ATOM     13  C   UNL     1      31.514  23.353  12.784  0.00  0.00    +0.028 A 
BRANCH  12  14
ATOM     14  S   UNL     1      32.461  23.769  10.224  0.00  0.00    -0.016 S 
BRANCH  14  15
ATOM     15  C   UNL     1      33.845  24.872  10.578  0.00  0.00    +0.448 C 
ATOM     16  F   UNL     1      34.496  24.589  11.731  0.00  0.00    -0.160 F 
ATOM     17  F   UNL     1      34.764  24.828   9.583  0.00  0.00    -0.160 F 
ATOM     18  F   UNL     1      33.420  26.156  10.671  0.00  0.00    -0.160 F 
ENDBRANCH  14  15
ENDBRANCH  12  14
ENDBRANCH   5   8
BRANCH   1  20
ATOM     19  N   UNL     1      26.445  23.290  17.241  0.00  0.00    -0.329 N 
ATOM     20  C   UNL     1      26.451  21.935  17.091  0.00  0.00    +0.215 C 
ATOM     21  O   UNL     1      25.636  21.246  17.688  0.00  0.00    -0.276 OA
ATOM     22  H   UNL     1      25.760  23.686  17.873  0.00  0.00    +0.145 HD
ATOM     23  H   UNL     1      27.137  23.899  16.830  0.00  0.00    +0.145 HD
ENDBRANCH   1  20
TORSDOF 4
ENDMDL
MODEL 2
REMARK VINA RESULT:      -6.9      1.428      1.587
REMARK  Name = ZINC000826139982
REMARK  4 active torsions:
REMARK  status: ('A' for Active; 'I' for Inactive)
REMARK    1  A    between atoms: C_2  and  C_4
REMARK    2  A    between atoms: C_8  and  C_10
REMARK    3  A    between atoms: C_14  and  S_15
REMARK    4  A    between atoms: S_15  and  C_16
REMARK                            x       y       z     vdW  Elec       q    Type
REMARK                         _______ _______ _______ _____ _____    ______ ____
ROOT
ATOM      1  C   UNL     1      27.826  21.648  16.250  0.00  0.00    +0.093 C 
ATOM      2  C   UNL     1      28.823  20.721  16.954  0.00  0.00    +0.033 C 
ATOM      3  C   UNL     1      30.160  21.448  16.899  0.00  0.00    +0.109 C 
ATOM      4  N   UNL     1      30.063  22.281  15.718  0.00  0.00    -0.297 N 
ATOM      5  C   UNL     1      31.193  22.688  15.020  0.00  0.00    +0.247 C 
ATOM      6  O   UNL     1      32.316  22.289  15.329  0.00  0.00    -0.270 OA
ATOM      7  C   UNL     1      28.678  22.683  15.528  0.00  0.00    +0.120 C 
ENDROOT
BRANCH   5   8
ATOM      8  C   UNL     1      31.077  23.573  13.815  0.00  0.00    +0.038 A 
ATOM      9  C   UNL     1      29.991  24.423  13.584  0.00  0.00    +0.013 A 
ATOM     10  C   UNL     1      29.875  25.131  12.389  0.00  0.00    +0.002 A 
ATOM     11  C   UNL     1      30.900  25.080  11.450  0.00  0.00    +0.015 A 
ATOM     12  C   UNL     1      32.060  24.348  11.719  0.00  0.00    +0.017 A 
ATOM     13  C   UNL     1      32.128  23.569  12.882  0.00  0.00    +0.028 A 
BRANCH  12  14
ATOM     14  S   UNL     1      33.429  24.363  10.580  0.00  0.00    -0.016 S 
BRANCH  14  15
ATOM     15  C   UNL     1      32.961  23.034   9.451  0.00  0.00    +0.448 C 
ATOM     16  F   UNL     1      31.759  23.214   8.855  0.00  0.00    -0.160 F 
ATOM     17  F   UNL     1      33.877  22.896   8.463  0.00  0.00    -0.160 F 
ATOM     18  F   UNL     1      32.902  21.850  10.109  0.00  0.00    -0.160 F 
ENDBRANCH  14  15
ENDBRANCH  12  14
ENDBRANCH   5   8
BRANCH   1  20
ATOM     19  N   UNL     1      26.882  23.649  17.252  0.00  0.00    -0.329 N 
ATOM     20  C   UNL     1      26.808  22.290  17.174  0.00  0.00    +0.215 C 
ATOM     21  O   UNL     1      26.006  21.677  17.863  0.00  0.00    -0.276 OA
ATOM     22  H   UNL     1      26.267  24.113  17.909  0.00  0.00    +0.145 HD
ATOM     23  H   UNL     1      27.571  24.199  16.760  0.00  0.00    +0.145 HD
ENDBRANCH   1  20
TORSDOF 4
ENDMDL
MODEL 3
REMARK VINA RESULT:      -6.6      2.902      3.971
REMARK  Name = ZINC000826139982
REMARK  4 active torsions:
REMARK  status: ('A' for Active; 'I' for Inactive)
REMARK    1  A    between atoms: C_2  and  C_4
REMARK    2  A    between atoms: C_8  and  C_10
REMARK    3  A    between atoms: C_14  and  S_15
REMARK    4  A    between atoms: S_15  and  C_16
REMARK                            x       y       z     vdW  Elec       q    Type
REMARK                         _______ _______ _______ _____ _____    ______ ____
ROOT
ATOM      1  C   UNL     1      31.530  25.175  18.354  0.00  0.00    +0.093 C 
ATOM      2  C   UNL     1      30.997  23.858  18.929  0.00  0.00    +0.033 C 
ATOM      3  C   UNL     1      31.192  22.827  17.826  0.00  0.00    +0.109 C 
ATOM      4  N   UNL     1      31.148  23.602  16.603  0.00  0.00    -0.297 N 
ATOM      5  C   UNL     1      30.766  23.032  15.395  0.00  0.00    +0.247 C 
ATOM      6  O   UNL     1      30.370  21.868  15.330  0.00  0.00    -0.270 OA
ATOM      7  C   UNL     1      31.681  24.930  16.857  0.00  0.00    +0.120 C 
ENDROOT
BRANCH   5   8
ATOM      8  C   UNL     1      30.752  23.841  14.132  0.00  0.00    +0.038 A 
ATOM      9  C   UNL     1      29.683  24.658  13.751  0.00  0.00    +0.013 A 
ATOM     10  C   UNL     1      29.670  25.291  12.509  0.00  0.00    +0.002 A 
ATOM     11  C   UNL     1      30.777  25.200  11.673  0.00  0.00    +0.015 A 
ATOM     12  C   UNL     1      31.915  24.503  12.090  0.00  0.00    +0.017 A 
ATOM     13  C   UNL     1      31.884  23.797  13.301  0.00  0.00    +0.028 A 
BRANCH  12  14
ATOM     14  S   UNL     1      33.383  24.471  11.081  0.00  0.00    -0.016 S 
BRANCH  14  15
ATOM     15  C   UNL     1      33.001  23.117   9.950  0.00  0.00    +0.448 C 
ATOM     16  F   UNL     1      31.807  23.241   9.324  0.00  0.00    -0.160 F 
ATOM     17  F   UNL     1      33.946  23.014   8.985  0.00  0.00    -0.160 F 
ATOM     18  F   UNL     1      32.978  21.935  10.613  0.00  0.00    -0.160 F 
ENDBRANCH  14  15
ENDBRANCH  12  14
ENDBRANCH   5   8
BRANCH   1  20
ATOM     19  N   UNL     1      32.752  26.896  19.556  0.00  0.00    -0.329 N 
ATOM     20  C   UNL     1      32.821  25.659  18.987  0.00  0.00    +0.215 C 
ATOM     21  O   UNL     1      33.882  25.053  18.959  0.00  0.00    -0.276 OA
ATOM     22  H   UNL     1      33.609  27.286  19.929  0.00  0.00    +0.145 HD
ATOM     23  H   UNL     1      31.921  27.470  19.545  0.00  0.00    +0.145 HD
ENDBRANCH   1  20
TORSDOF 4
ENDMDL
MODEL 4
REMARK VINA RESULT:      -6.3      4.825      7.693
REMARK  Name = ZINC000826139982
REMARK  4 active torsions:
REMARK  status: ('A' for Active; 'I' for Inactive)
REMARK    1  A    between atoms: C_2  and  C_4
REMARK    2  A    between atoms: C_8  and  C_10
REMARK    3  A    between atoms: C_14  and  S_15
REMARK    4  A    between atoms: S_15  and  C_16
REMARK                            x       y       z     vdW  Elec       q    Type
REMARK                         _______ _______ _______ _____ _____    ______ ____
ROOT
ATOM      1  C   UNL     1      34.273  22.831   8.390  0.00  0.00    +0.093 C 
ATOM      2  C   UNL     1      35.577  23.536   8.779  0.00  0.00    +0.033 C 
ATOM      3  C   UNL     1      35.532  23.661  10.296  0.00  0.00    +0.109 C 
ATOM      4  N   UNL     1      34.118  23.692  10.608  0.00  0.00    -0.297 N 
ATOM      5  C   UNL     1      33.641  24.305  11.761  0.00  0.00    +0.247 C 
ATOM      6  O   UNL     1      34.392  24.918  12.520  0.00  0.00    -0.270 OA
ATOM      7  C   UNL     1      33.394  22.893   9.633  0.00  0.00    +0.120 C 
ENDROOT
BRANCH   5   8
ATOM      8  C   UNL     1      32.176  24.304  12.083  0.00  0.00    +0.038 A 
ATOM      9  C   UNL     1      31.273  25.241  11.573  0.00  0.00    +0.013 A 
ATOM     10  C   UNL     1      29.947  25.269  12.003  0.00  0.00    +0.002 A 
ATOM     11  C   UNL     1      29.480  24.290  12.872  0.00  0.00    +0.015 A 
ATOM     12  C   UNL     1      30.327  23.259  13.288  0.00  0.00    +0.017 A 
ATOM     13  C   UNL     1      31.681  23.291  12.922  0.00  0.00    +0.028 A 
BRANCH  12  14
ATOM     14  S   UNL     1      29.715  21.934  14.309  0.00  0.00    -0.016 S 
BRANCH  14  15
ATOM     15  C   UNL     1      29.744  22.707  15.940  0.00  0.00    +0.448 C 
ATOM     16  F   UNL     1      28.530  23.118  16.377  0.00  0.00    -0.160 F 
ATOM     17  F   UNL     1      30.232  21.852  16.870  0.00  0.00    -0.160 F 
ATOM     18  F   UNL     1      30.551  23.797  15.937  0.00  0.00    -0.160 F 
ENDBRANCH  14  15
ENDBRANCH  12  14
ENDBRANCH   5   8
BRANCH   1  20
ATOM     19  N   UNL     1      35.183  21.296   6.742  0.00  0.00    -0.329 N 
ATOM     20  C   UNL     1      34.455  21.411   7.889  0.00  0.00    +0.215 C 
ATOM     21  O   UNL     1      33.955  20.421   8.402  0.00  0.00    -0.276 OA
ATOM     22  H   UNL     1      35.269  20.373   6.335  0.00  0.00    +0.145 HD
ATOM     23  H   UNL     1      35.558  22.086   6.238  0.00  0.00    +0.145 HD
ENDBRANCH   1  20
TORSDOF 4
ENDMDL
MODEL 5
REMARK VINA RESULT:      -6.3      5.085      7.472
REMARK  Name = ZINC000826139982
REMARK  4 active torsions:
REMARK  status: ('A' for Active; 'I' for Inactive)
REMARK    1  A    between atoms: C_2  and  C_4
REMARK    2  A    between atoms: C_8  and  C_10
REMARK    3  A    between atoms: C_14  and  S_15
REMARK    4  A    between atoms: S_15  and  C_16
REMARK                            x       y       z     vdW  Elec       q    Type
REMARK                         _______ _______ _______ _____ _____    ______ ____
ROOT
ATOM      1  C   UNL     1      33.519  21.469   8.878  0.00  0.00    +0.093 C 
ATOM      2  C   UNL     1      34.285  22.514   8.059  0.00  0.00    +0.033 C 
ATOM      3  C   UNL     1      34.553  23.664   9.020  0.00  0.00    +0.109 C 
ATOM      4  N   UNL     1      33.474  23.582   9.982  0.00  0.00    -0.297 N 
ATOM      5  C   UNL     1      33.042  24.699  10.687  0.00  0.00    +0.247 C 
ATOM      6  O   UNL     1      33.501  25.818  10.462  0.00  0.00    -0.270 OA
ATOM      7  C   UNL     1      33.082  22.191  10.146  0.00  0.00    +0.120 C 
ENDROOT
BRANCH   5   8
ATOM      8  C   UNL     1      31.941  24.591  11.701  0.00  0.00    +0.038 A 
ATOM      9  C   UNL     1      30.608  24.916  11.430  0.00  0.00    +0.013 A 
ATOM     10  C   UNL     1      29.649  24.916  12.442  0.00  0.00    +0.002 A 
ATOM     11  C   UNL     1      29.990  24.488  13.720  0.00  0.00    +0.015 A 
ATOM     12  C   UNL     1      31.283  24.025  13.983  0.00  0.00    +0.017 A 
ATOM     13  C   UNL     1      32.262  24.113  12.983  0.00  0.00    +0.028 A 
BRANCH  12  14
ATOM     14  S   UNL     1      31.706  23.367  15.583  0.00  0.00    -0.016 S 
BRANCH  14  15
ATOM     15  C   UNL     1      30.378  22.168  15.830  0.00  0.00    +0.448 C 
ATOM     16  F   UNL     1      30.040  21.482  14.713  0.00  0.00    -0.160 F 
ATOM     17  F   UNL     1      30.722  21.254  16.769  0.00  0.00    -0.160 F 
ATOM     18  F   UNL     1      29.254  22.786  16.269  0.00  0.00    -0.160 F 
ENDBRANCH  14  15
ENDBRANCH  12  14
ENDBRANCH   5   8
BRANCH   1  20
ATOM     19  N   UNL     1      35.400  20.012   8.388  0.00  0.00    -0.329 N 
ATOM     20  C   UNL     1      34.309  20.209   9.182  0.00  0.00    +0.215 C 
ATOM     21  O   UNL     1      33.997  19.374  10.017  0.00  0.00    -0.276 OA
ATOM     22  H   UNL     1      35.916  19.149   8.511  0.00  0.00    +0.145 HD
ATOM     23  H   UNL     1      35.663  20.632   7.636  0.00  0.00    +0.145 HD
ENDBRANCH   1  20
TORSDOF 4
ENDMDL
MODEL 6
REMARK VINA RESULT:      -6.2      4.973      7.721
REMARK  Name = ZINC000826139982
REMARK  4 active torsions:
REMARK  status: ('A' for Active; 'I' for Inactive)
REMARK    1  A    between atoms: C_2  and  C_4
REMARK    2  A    between atoms: C_8  and  C_10
REMARK    3  A    between atoms: C_14  and  S_15
REMARK    4  A    between atoms: S_15  and  C_16
REMARK                            x       y       z     vdW  Elec       q    Type
REMARK                         _______ _______ _______ _____ _____    ______ ____
ROOT
ATOM      1  C   UNL     1      32.839  22.881  10.948  0.00  0.00    +0.093 C 
ATOM      2  C   UNL     1      31.970  23.903  10.206  0.00  0.00    +0.033 C 
ATOM      3  C   UNL     1      31.431  24.834  11.284  0.00  0.00    +0.109 C 
ATOM      4  N   UNL     1      31.405  24.017  12.479  0.00  0.00    -0.297 N 
ATOM      5  C   UNL     1      30.528  24.283  13.523  0.00  0.00    +0.247 C 
ATOM      6  O   UNL     1      29.680  25.171  13.439  0.00  0.00    -0.270 OA
ATOM      7  C   UNL     1      32.490  23.050  12.422  0.00  0.00    +0.120 C 
ENDROOT
BRANCH   5   8
ATOM      8  C   UNL     1      30.533  23.443  14.766  0.00  0.00    +0.038 A 
ATOM      9  C   UNL     1      31.702  22.994  15.389  0.00  0.00    +0.013 A 
ATOM     10  C   UNL     1      31.648  22.115  16.469  0.00  0.00    +0.002 A 
ATOM     11  C   UNL     1      30.419  21.756  17.010  0.00  0.00    +0.015 A 
ATOM     12  C   UNL     1      29.240  22.302  16.494  0.00  0.00    +0.017 A 
ATOM     13  C   UNL     1      29.299  23.113  15.352  0.00  0.00    +0.028 A 
BRANCH  12  14
ATOM     14  S   UNL     1      27.666  21.943  17.246  0.00  0.00    -0.016 S 
BRANCH  14  15
ATOM     15  C   UNL     1      27.391  20.247  16.692  0.00  0.00    +0.448 C 
ATOM     16  F   UNL     1      27.963  19.956  15.500  0.00  0.00    -0.160 F 
ATOM     17  F   UNL     1      27.879  19.360  17.592  0.00  0.00    -0.160 F 
ATOM     18  F   UNL     1      26.065  19.996  16.564  0.00  0.00    -0.160 F 
ENDBRANCH  14  15
ENDBRANCH  12  14
ENDBRANCH   5   8
BRANCH   1  20
ATOM     19  N   UNL     1      34.980  21.853  10.440  0.00  0.00    -0.329 N 
ATOM     20  C   UNL     1      34.328  23.023  10.694  0.00  0.00    +0.215 C 
ATOM     21  O   UNL     1      34.951  24.072  10.764  0.00  0.00    -0.276 OA
ATOM     22  H   UNL     1      35.986  21.893  10.334  0.00  0.00    +0.145 HD
ATOM     23  H   UNL     1      34.527  20.950  10.442  0.00  0.00    +0.145 HD
ENDBRANCH   1  20
TORSDOF 4
ENDMDL
MODEL 7
REMARK VINA RESULT:      -6.2      4.966      7.867
REMARK  Name = ZINC000826139982
REMARK  4 active torsions:
REMARK  status: ('A' for Active; 'I' for Inactive)
REMARK    1  A    between atoms: C_2  and  C_4
REMARK    2  A    between atoms: C_8  and  C_10
REMARK    3  A    between atoms: C_14  and  S_15
REMARK    4  A    between atoms: S_15  and  C_16
REMARK                            x       y       z     vdW  Elec       q    Type
REMARK                         _______ _______ _______ _____ _____    ______ ____
ROOT
ATOM      1  C   UNL     1      35.524  26.089  11.617  0.00  0.00    +0.093 C 
ATOM      2  C   UNL     1      35.980  25.131  10.510  0.00  0.00    +0.033 C 
ATOM      3  C   UNL     1      34.703  24.681   9.814  0.00  0.00    +0.109 C 
ATOM      4  N   UNL     1      33.684  24.789  10.836  0.00  0.00    -0.297 N 
ATOM      5  C   UNL     1      32.532  24.013  10.799  0.00  0.00    +0.247 C 
ATOM      6  O   UNL     1      32.371  23.144   9.943  0.00  0.00    -0.270 OA
ATOM      7  C   UNL     1      34.019  25.882  11.735  0.00  0.00    +0.120 C 
ENDROOT
BRANCH   5   8
ATOM      8  C   UNL     1      31.472  24.157  11.851  0.00  0.00    +0.038 A 
ATOM      9  C   UNL     1      30.352  24.982  11.710  0.00  0.00    +0.013 A 
ATOM     10  C   UNL     1      29.463  25.174  12.767  0.00  0.00    +0.002 A 
ATOM     11  C   UNL     1      29.626  24.458  13.948  0.00  0.00    +0.015 A 
ATOM     12  C   UNL     1      30.658  23.522  14.064  0.00  0.00    +0.017 A 
ATOM     13  C   UNL     1      31.598  23.402  13.030  0.00  0.00    +0.028 A 
BRANCH  12  14
ATOM     14  S   UNL     1      30.812  22.515  15.524  0.00  0.00    -0.016 S 
BRANCH  14  15
ATOM     15  C   UNL     1      29.154  21.810  15.640  0.00  0.00    +0.448 C 
ATOM     16  F   UNL     1      29.081  20.694  16.403  0.00  0.00    -0.160 F 
ATOM     17  F   UNL     1      28.284  22.706  16.164  0.00  0.00    -0.160 F 
ATOM     18  F   UNL     1      28.691  21.477  14.410  0.00  0.00    -0.160 F 
ENDBRANCH  14  15
ENDBRANCH  12  14
ENDBRANCH   5   8
BRANCH   1  20
ATOM     19  N   UNL     1      37.147  27.892  11.753  0.00  0.00    -0.329 N 
ATOM     20  C   UNL     1      35.884  27.543  11.375  0.00  0.00    +0.215 C 
ATOM     21  O   UNL     1      35.117  28.388  10.939  0.00  0.00    -0.276 OA
ATOM     22  H   UNL     1      37.405  28.868  11.673  0.00  0.00    +0.145 HD
ATOM     23  H   UNL     1      37.797  27.251  12.185  0.00  0.00    +0.145 HD
ENDBRANCH   1  20
TORSDOF 4
ENDMDL
MODEL 8
REMARK VINA RESULT:      -6.1      4.493      7.266
REMARK  Name = ZINC000826139982
REMARK  4 active torsions:
REMARK  status: ('A' for Active; 'I' for Inactive)
REMARK    1  A    between atoms: C_2  and  C_4
REMARK    2  A    between atoms: C_8  and  C_10
REMARK    3  A    between atoms: C_14  and  S_15
REMARK    4  A    between atoms: S_15  and  C_16
REMARK                            x       y       z     vdW  Elec       q    Type
REMARK                         _______ _______ _______ _____ _____    ______ ____
ROOT
ATOM      1  C   UNL     1      32.837  22.908  10.927  0.00  0.00    +0.093 C 
ATOM      2  C   UNL     1      32.134  24.062  10.202  0.00  0.00    +0.033 C 
ATOM      3  C   UNL     1      31.516  24.914  11.302  0.00  0.00    +0.109 C 
ATOM      4  N   UNL     1      31.288  23.982  12.387  0.00  0.00    -0.297 N 
ATOM      5  C   UNL     1      30.300  24.203  13.339  0.00  0.00    +0.247 C 
ATOM      6  O   UNL     1      29.525  25.155  13.251  0.00  0.00    -0.270 OA
ATOM      7  C   UNL     1      32.310  22.949  12.356  0.00  0.00    +0.120 C 
ENDROOT
BRANCH   5   8
ATOM      8  C   UNL     1      30.094  23.242  14.472  0.00  0.00    +0.038 A 
ATOM      9  C   UNL     1      29.191  22.176  14.426  0.00  0.00    +0.013 A 
ATOM     10  C   UNL     1      28.949  21.389  15.551  0.00  0.00    +0.002 A 
ATOM     11  C   UNL     1      29.689  21.593  16.711  0.00  0.00    +0.015 A 
ATOM     12  C   UNL     1      30.696  22.562  16.739  0.00  0.00    +0.017 A 
ATOM     13  C   UNL     1      30.870  23.407  15.633  0.00  0.00    +0.028 A 
BRANCH  12  14
ATOM     14  S   UNL     1      31.729  22.759  18.176  0.00  0.00    -0.016 S 
BRANCH  14  15
ATOM     15  C   UNL     1      31.079  24.295  18.866  0.00  0.00    +0.448 C 
ATOM     16  F   UNL     1      29.736  24.301  19.032  0.00  0.00    -0.160 F 
ATOM     17  F   UNL     1      31.629  24.551  20.078  0.00  0.00    -0.160 F 
ATOM     18  F   UNL     1      31.381  25.345  18.062  0.00  0.00    -0.160 F 
ENDBRANCH  14  15
ENDBRANCH  12  14
ENDBRANCH   5   8
BRANCH   1  20
ATOM     19  N   UNL     1      34.923  22.175   9.921  0.00  0.00    -0.329 N 
ATOM     20  C   UNL     1      34.352  22.966  10.874  0.00  0.00    +0.215 C 
ATOM     21  O   UNL     1      35.053  23.604  11.644  0.00  0.00    -0.276 OA
ATOM     22  H   UNL     1      35.934  22.130   9.897  0.00  0.00    +0.145 HD
ATOM     23  H   UNL     1      34.395  21.572   9.307  0.00  0.00    +0.145 HD
ENDBRANCH   1  20
TORSDOF 4
ENDMDL
MODEL 9
REMARK VINA RESULT:      -6.0      4.221      6.997
REMARK  Name = ZINC000826139982
REMARK  4 active torsions:
REMARK  status: ('A' for Active; 'I' for Inactive)
REMARK    1  A    between atoms: C_2  and  C_4
REMARK    2  A    between atoms: C_8  and  C_10
REMARK    3  A    between atoms: C_14  and  S_15
REMARK    4  A    between atoms: S_15  and  C_16
REMARK                            x       y       z     vdW  Elec       q    Type
REMARK                         _______ _______ _______ _____ _____    ______ ____
ROOT
ATOM      1  C   UNL     1      33.290  24.140  11.461  0.00  0.00    +0.093 C 
ATOM      2  C   UNL     1      32.124  24.041  10.471  0.00  0.00    +0.033 C 
ATOM      3  C   UNL     1      30.876  24.360  11.283  0.00  0.00    +0.109 C 
ATOM      4  N   UNL     1      31.221  23.966  12.634  0.00  0.00    -0.297 N 
ATOM      5  C   UNL     1      30.248  23.599  13.555  0.00  0.00    +0.247 C 
ATOM      6  O   UNL     1      29.062  23.513  13.236  0.00  0.00    -0.270 OA
ATOM      7  C   UNL     1      32.646  24.165  12.842  0.00  0.00    +0.120 C 
ENDROOT
BRANCH   5   8
ATOM      8  C   UNL     1      30.619  23.221  14.958  0.00  0.00    +0.038 A 
ATOM      9  C   UNL     1      30.755  21.899  15.390  0.00  0.00    +0.013 A 
ATOM     10  C   UNL     1      30.980  21.601  16.734  0.00  0.00    +0.002 A 
ATOM     11  C   UNL     1      31.178  22.630  17.647  0.00  0.00    +0.015 A 
ATOM     12  C   UNL     1      31.186  23.960  17.215  0.00  0.00    +0.017 A 
ATOM     13  C   UNL     1      30.870  24.252  15.880  0.00  0.00    +0.028 A 
BRANCH  12  14
ATOM     14  S   UNL     1      31.550  25.283  18.350  0.00  0.00    -0.016 S 
BRANCH  14  15
ATOM     15  C   UNL     1      33.347  25.380  18.209  0.00  0.00    +0.448 C 
ATOM     16  F   UNL     1      34.001  24.322  18.743  0.00  0.00    -0.160 F 
ATOM     17  F   UNL     1      33.726  25.466  16.911  0.00  0.00    -0.160 F 
ATOM     18  F   UNL     1      33.815  26.489  18.834  0.00  0.00    -0.160 F 
ENDBRANCH  14  15
ENDBRANCH  12  14
ENDBRANCH   5   8
BRANCH   1  20
ATOM     19  N   UNL     1      35.444  25.213  11.793  0.00  0.00    -0.329 N 
ATOM     20  C   UNL     1      34.205  25.329  11.236  0.00  0.00    +0.215 C 
ATOM     21  O   UNL     1      33.882  26.359  10.663  0.00  0.00    -0.276 OA
ATOM     22  H   UNL     1      36.062  26.013  11.726  0.00  0.00    +0.145 HD
ATOM     23  H   UNL     1      35.738  24.416  12.337  0.00  0.00    +0.145 HD
ENDBRANCH   1  20
TORSDOF 4
ENDMDL
