MODEL 1
REMARK VINA RESULT:      -7.6      0.000      0.000
REMARK  Name = ZINC000329563636
REMARK  3 active torsions:
REMARK  status: ('A' for Active; 'I' for Inactive)
REMARK    1  A    between atoms: C_1  and  C_2
REMARK    2  A    between atoms: C_2  and  N_3
REMARK    3  A    between atoms: N_9  and  C_10
REMARK                            x       y       z     vdW  Elec       q    Type
REMARK                         _______ _______ _______ _____ _____    ______ ____
ROOT
ATOM      1  C   UNL     1      28.019  22.052  18.302  0.00  0.00    +0.112 C 
ATOM      2  C   UNL     1      27.822  20.700  17.608  0.00  0.00    +0.075 C 
ATOM      3  C   UNL     1      28.833  20.391  16.495  0.00  0.00    +0.113 C 
ATOM      4  C   UNL     1      30.174  19.783  16.985  0.00  0.00    +0.048 C 
ATOM      5  C   UNL     1      30.196  18.342  16.490  0.00  0.00    +0.004 C 
ATOM      6  C   UNL     1      29.386  18.382  15.210  0.00  0.00    +0.004 C 
ATOM      7  C   UNL     1      28.230  19.300  15.572  0.00  0.00    +0.048 C 
ATOM      8  O   UNL     1      29.093  21.543  15.670  0.00  0.00    -0.485 OA
ATOM      9  C   UNL     1      29.541  22.623  16.385  0.00  0.00    +0.126 A 
ATOM     10  C   UNL     1      30.485  23.448  15.775  0.00  0.00    +0.046 A 
ATOM     11  C   UNL     1      31.010  24.540  16.469  0.00  0.00    +0.004 A 
ATOM     12  C   UNL     1      30.572  24.819  17.762  0.00  0.00    +0.001 A 
ATOM     13  C   UNL     1      29.603  24.009  18.356  0.00  0.00    +0.009 A 
ATOM     14  C   UNL     1      29.080  22.901  17.669  0.00  0.00    +0.015 A 
ENDROOT
BRANCH   1  21
ATOM     15  N   UNL     1      23.394  26.280  19.103  0.00  0.00    -0.299 N 
ATOM     16  C   UNL     1      24.233  26.026  20.273  0.00  0.00    +0.127 C 
ATOM     17  C   UNL     1      24.413  24.533  20.521  0.00  0.00    +0.129 C 
ATOM     18  N   UNL     1      25.012  23.930  19.339  0.00  0.00    -0.275 N 
ATOM     19  C   UNL     1      26.238  23.313  19.455  0.00  0.00    +0.303 C 
ATOM     20  O   UNL     1      26.849  23.253  20.521  0.00  0.00    -0.253 OA
ATOM     21  N   UNL     1      26.756  22.793  18.306  0.00  0.00    -0.292 N 
ATOM     22  C   UNL     1      24.245  24.129  18.106  0.00  0.00    +0.205 C 
ATOM     23  C   UNL     1      23.427  25.433  17.997  0.00  0.00    +0.233 C 
ATOM     24  O   UNL     1      22.801  25.679  16.962  0.00  0.00    -0.274 OA
ATOM     25  H   UNL     1      26.117  22.541  17.569  0.00  0.00    +0.151 HD
BRANCH  15  27
ATOM     26  C   UNL     1      21.371  27.657  19.501  0.00  0.00    +0.024 C 
ATOM     27  C   UNL     1      22.793  27.602  18.961  0.00  0.00    +0.104 C 
ENDBRANCH  15  27
ENDBRANCH   1  21
TORSDOF 2
ENDMDL
MODEL 2
REMARK VINA RESULT:      -7.3      4.077      7.892
REMARK  Name = ZINC000329563636
REMARK  3 active torsions:
REMARK  status: ('A' for Active; 'I' for Inactive)
REMARK    1  A    between atoms: C_1  and  C_2
REMARK    2  A    between atoms: C_2  and  N_3
REMARK    3  A    between atoms: N_9  and  C_10
REMARK                            x       y       z     vdW  Elec       q    Type
REMARK                         _______ _______ _______ _____ _____    ______ ____
ROOT
ATOM      1  C   UNL     1      30.812  22.758  16.717  0.00  0.00    +0.112 C 
ATOM      2  C   UNL     1      29.833  23.339  17.743  0.00  0.00    +0.075 C 
ATOM      3  C   UNL     1      28.644  22.432  18.089  0.00  0.00    +0.113 C 
ATOM      4  C   UNL     1      28.934  21.367  19.179  0.00  0.00    +0.048 C 
ATOM      5  C   UNL     1      28.121  21.776  20.402  0.00  0.00    +0.004 C 
ATOM      6  C   UNL     1      26.913  22.483  19.819  0.00  0.00    +0.004 C 
ATOM      7  C   UNL     1      27.517  23.309  18.695  0.00  0.00    +0.048 C 
ATOM      8  O   UNL     1      28.097  21.794  16.918  0.00  0.00    -0.485 OA
ATOM      9  C   UNL     1      29.024  21.060  16.226  0.00  0.00    +0.126 A 
ATOM     10  C   UNL     1      28.588  19.883  15.620  0.00  0.00    +0.046 A 
ATOM     11  C   UNL     1      29.495  19.072  14.935  0.00  0.00    +0.004 A 
ATOM     12  C   UNL     1      30.831  19.451  14.838  0.00  0.00    +0.001 A 
ATOM     13  C   UNL     1      31.258  20.646  15.419  0.00  0.00    +0.009 A 
ATOM     14  C   UNL     1      30.354  21.461  16.120  0.00  0.00    +0.015 A 
ENDROOT
BRANCH   1  21
ATOM     15  N   UNL     1      32.728  25.865  11.561  0.00  0.00    -0.299 N 
ATOM     16  C   UNL     1      33.778  25.195  12.327  0.00  0.00    +0.127 C 
ATOM     17  C   UNL     1      33.667  25.500  13.817  0.00  0.00    +0.129 C 
ATOM     18  N   UNL     1      32.358  25.070  14.286  0.00  0.00    -0.275 N 
ATOM     19  C   UNL     1      32.286  24.104  15.265  0.00  0.00    +0.303 C 
ATOM     20  O   UNL     1      33.287  23.586  15.756  0.00  0.00    -0.253 OA
ATOM     21  N   UNL     1      31.031  23.726  15.640  0.00  0.00    -0.292 N 
ATOM     22  C   UNL     1      31.231  25.686  13.580  0.00  0.00    +0.205 C 
ATOM     23  C   UNL     1      31.455  26.052  12.097  0.00  0.00    +0.233 C 
ATOM     24  O   UNL     1      30.528  26.528  11.436  0.00  0.00    -0.274 OA
ATOM     25  H   UNL     1      30.277  24.381  15.503  0.00  0.00    +0.151 HD
BRANCH  15  27
ATOM     26  C   UNL     1      33.475  24.762   9.470  0.00  0.00    +0.024 C 
ATOM     27  C   UNL     1      32.917  26.018  10.123  0.00  0.00    +0.104 C 
ENDBRANCH  15  27
ENDBRANCH   1  21
TORSDOF 2
ENDMDL
MODEL 3
REMARK VINA RESULT:      -6.8      5.655      9.045
REMARK  Name = ZINC000329563636
REMARK  3 active torsions:
REMARK  status: ('A' for Active; 'I' for Inactive)
REMARK    1  A    between atoms: C_1  and  C_2
REMARK    2  A    between atoms: C_2  and  N_3
REMARK    3  A    between atoms: N_9  and  C_10
REMARK                            x       y       z     vdW  Elec       q    Type
REMARK                         _______ _______ _______ _____ _____    ______ ____
ROOT
ATOM      1  C   UNL     1      30.733  23.238  14.327  0.00  0.00    +0.112 C 
ATOM      2  C   UNL     1      30.003  21.918  14.058  0.00  0.00    +0.075 C 
ATOM      3  C   UNL     1      30.012  20.924  15.228  0.00  0.00    +0.113 C 
ATOM      4  C   UNL     1      28.903  21.156  16.288  0.00  0.00    +0.048 C 
ATOM      5  C   UNL     1      27.942  19.980  16.166  0.00  0.00    +0.004 C 
ATOM      6  C   UNL     1      28.820  18.837  15.694  0.00  0.00    +0.004 C 
ATOM      7  C   UNL     1      29.720  19.506  14.669  0.00  0.00    +0.048 C 
ATOM      8  O   UNL     1      31.299  20.865  15.873  0.00  0.00    -0.485 OA
ATOM      9  C   UNL     1      31.725  22.085  16.329  0.00  0.00    +0.126 A 
ATOM     10  C   UNL     1      32.449  22.106  17.520  0.00  0.00    +0.046 A 
ATOM     11  C   UNL     1      32.874  23.323  18.056  0.00  0.00    +0.004 A 
ATOM     12  C   UNL     1      32.595  24.513  17.388  0.00  0.00    +0.001 A 
ATOM     13  C   UNL     1      31.898  24.484  16.180  0.00  0.00    +0.009 A 
ATOM     14  C   UNL     1      31.456  23.266  15.641  0.00  0.00    +0.015 A 
ENDROOT
BRANCH   1  21
ATOM     15  N   UNL     1      34.990  25.731  10.381  0.00  0.00    -0.299 N 
ATOM     16  C   UNL     1      33.896  26.617  10.779  0.00  0.00    +0.127 C 
ATOM     17  C   UNL     1      32.541  25.931  10.645  0.00  0.00    +0.129 C 
ATOM     18  N   UNL     1      32.538  24.734  11.473  0.00  0.00    -0.275 N 
ATOM     19  C   UNL     1      31.623  24.634  12.497  0.00  0.00    +0.303 C 
ATOM     20  O   UNL     1      30.807  25.521  12.741  0.00  0.00    -0.253 OA
ATOM     21  N   UNL     1      31.691  23.501  13.251  0.00  0.00    -0.292 N 
ATOM     22  C   UNL     1      33.601  23.776  11.153  0.00  0.00    +0.205 C 
ATOM     23  C   UNL     1      34.926  24.359  10.615  0.00  0.00    +0.233 C 
ATOM     24  O   UNL     1      35.874  23.607  10.376  0.00  0.00    -0.274 OA
ATOM     25  H   UNL     1      32.092  22.676  12.834  0.00  0.00    +0.151 HD
BRANCH  15  27
ATOM     26  C   UNL     1      36.143  27.741   9.499  0.00  0.00    +0.024 C 
ATOM     27  C   UNL     1      36.279  26.333  10.060  0.00  0.00    +0.104 C 
ENDBRANCH  15  27
ENDBRANCH   1  21
TORSDOF 2
ENDMDL
MODEL 4
REMARK VINA RESULT:      -6.8      2.273      8.191
REMARK  Name = ZINC000329563636
REMARK  3 active torsions:
REMARK  status: ('A' for Active; 'I' for Inactive)
REMARK    1  A    between atoms: C_1  and  C_2
REMARK    2  A    between atoms: C_2  and  N_3
REMARK    3  A    between atoms: N_9  and  C_10
REMARK                            x       y       z     vdW  Elec       q    Type
REMARK                         _______ _______ _______ _____ _____    ______ ____
ROOT
ATOM      1  C   UNL     1      25.073  24.640  20.475  0.00  0.00    +0.112 C 
ATOM      2  C   UNL     1      25.085  25.466  21.765  0.00  0.00    +0.075 C 
ATOM      3  C   UNL     1      24.138  26.675  21.769  0.00  0.00    +0.113 C 
ATOM      4  C   UNL     1      22.672  26.351  22.158  0.00  0.00    +0.048 C 
ATOM      5  C   UNL     1      22.435  27.005  23.514  0.00  0.00    +0.004 C 
ATOM      6  C   UNL     1      23.351  28.213  23.502  0.00  0.00    +0.004 C 
ATOM      7  C   UNL     1      24.616  27.670  22.858  0.00  0.00    +0.048 C 
ATOM      8  O   UNL     1      24.164  27.381  20.513  0.00  0.00    -0.485 OA
ATOM      9  C   UNL     1      23.855  26.582  19.443  0.00  0.00    +0.126 A 
ATOM     10  C   UNL     1      23.134  27.160  18.400  0.00  0.00    +0.046 A 
ATOM     11  C   UNL     1      22.754  26.386  17.301  0.00  0.00    +0.004 A 
ATOM     12  C   UNL     1      23.117  25.043  17.238  0.00  0.00    +0.001 A 
ATOM     13  C   UNL     1      23.867  24.477  18.270  0.00  0.00    +0.009 A 
ATOM     14  C   UNL     1      24.242  25.246  19.384  0.00  0.00    +0.015 A 
ENDROOT
BRANCH   1  21
ATOM     15  N   UNL     1      30.284  23.122  17.242  0.00  0.00    -0.299 N 
ATOM     16  C   UNL     1      29.289  22.059  17.381  0.00  0.00    +0.127 C 
ATOM     17  C   UNL     1      28.810  21.923  18.822  0.00  0.00    +0.129 C 
ATOM     18  N   UNL     1      28.243  23.194  19.249  0.00  0.00    -0.275 N 
ATOM     19  C   UNL     1      26.919  23.239  19.626  0.00  0.00    +0.303 C 
ATOM     20  O   UNL     1      26.195  22.245  19.613  0.00  0.00    -0.253 OA
ATOM     21  N   UNL     1      26.443  24.464  19.988  0.00  0.00    -0.292 N 
ATOM     22  C   UNL     1      29.164  24.330  19.148  0.00  0.00    +0.205 C 
ATOM     23  C   UNL     1      30.216  24.276  18.020  0.00  0.00    +0.233 C 
ATOM     24  O   UNL     1      30.986  25.226  17.854  0.00  0.00    -0.274 OA
ATOM     25  H   UNL     1      27.101  25.148  20.326  0.00  0.00    +0.151 HD
BRANCH  15  27
ATOM     26  C   UNL     1      30.543  22.295  14.919  0.00  0.00    +0.024 C 
ATOM     27  C   UNL     1      31.130  23.121  16.054  0.00  0.00    +0.104 C 
ENDBRANCH  15  27
ENDBRANCH   1  21
TORSDOF 2
ENDMDL
MODEL 5
REMARK VINA RESULT:      -6.7      4.123      8.441
REMARK  Name = ZINC000329563636
REMARK  3 active torsions:
REMARK  status: ('A' for Active; 'I' for Inactive)
REMARK    1  A    between atoms: C_1  and  C_2
REMARK    2  A    between atoms: C_2  and  N_3
REMARK    3  A    between atoms: N_9  and  C_10
REMARK                            x       y       z     vdW  Elec       q    Type
REMARK                         _______ _______ _______ _____ _____    ______ ____
ROOT
ATOM      1  C   UNL     1      31.048  21.938  16.940  0.00  0.00    +0.112 C 
ATOM      2  C   UNL     1      30.126  22.802  17.807  0.00  0.00    +0.075 C 
ATOM      3  C   UNL     1      28.755  22.181  18.111  0.00  0.00    +0.113 C 
ATOM      4  C   UNL     1      28.736  21.203  19.314  0.00  0.00    +0.048 C 
ATOM      5  C   UNL     1      27.925  21.887  20.409  0.00  0.00    +0.004 C 
ATOM      6  C   UNL     1      26.935  22.747  19.647  0.00  0.00    +0.004 C 
ATOM      7  C   UNL     1      27.782  23.317  18.521  0.00  0.00    +0.048 C 
ATOM      8  O   UNL     1      28.187  21.539  16.952  0.00  0.00    -0.485 OA
ATOM      9  C   UNL     1      29.002  20.572  16.424  0.00  0.00    +0.126 A 
ATOM     10  C   UNL     1      28.388  19.444  15.883  0.00  0.00    +0.046 A 
ATOM     11  C   UNL     1      29.166  18.405  15.367  0.00  0.00    +0.004 A 
ATOM     12  C   UNL     1      30.555  18.509  15.372  0.00  0.00    +0.001 A 
ATOM     13  C   UNL     1      31.164  19.655  15.885  0.00  0.00    +0.009 A 
ATOM     14  C   UNL     1      30.389  20.697  16.417  0.00  0.00    +0.015 A 
ENDROOT
BRANCH   1  21
ATOM     15  N   UNL     1      33.950  24.051  11.741  0.00  0.00    -0.299 N 
ATOM     16  C   UNL     1      34.778  23.270  12.659  0.00  0.00    +0.127 C 
ATOM     17  C   UNL     1      34.619  23.743  14.100  0.00  0.00    +0.129 C 
ATOM     18  N   UNL     1      33.218  23.633  14.477  0.00  0.00    -0.275 N 
ATOM     19  C   UNL     1      32.874  22.807  15.524  0.00  0.00    +0.303 C 
ATOM     20  O   UNL     1      33.706  22.155  16.152  0.00  0.00    -0.253 OA
ATOM     21  N   UNL     1      31.543  22.727  15.809  0.00  0.00    -0.292 N 
ATOM     22  C   UNL     1      32.299  24.383  13.616  0.00  0.00    +0.205 C 
ATOM     23  C   UNL     1      32.706  24.542  12.135  0.00  0.00    +0.233 C 
ATOM     24  O   UNL     1      31.950  25.120  11.350  0.00  0.00    -0.274 OA
ATOM     25  H   UNL     1      30.954  23.500  15.545  0.00  0.00    +0.151 HD
BRANCH  15  27
ATOM     26  C   UNL     1      34.003  22.653   9.695  0.00  0.00    +0.024 C 
ATOM     27  C   UNL     1      34.275  24.013  10.320  0.00  0.00    +0.104 C 
ENDBRANCH  15  27
ENDBRANCH   1  21
TORSDOF 2
ENDMDL
MODEL 6
REMARK VINA RESULT:      -6.5      4.349      7.093
REMARK  Name = ZINC000329563636
REMARK  3 active torsions:
REMARK  status: ('A' for Active; 'I' for Inactive)
REMARK    1  A    between atoms: C_1  and  C_2
REMARK    2  A    between atoms: C_2  and  N_3
REMARK    3  A    between atoms: N_9  and  C_10
REMARK                            x       y       z     vdW  Elec       q    Type
REMARK                         _______ _______ _______ _____ _____    ______ ____
ROOT
ATOM      1  C   UNL     1      32.349  17.641  15.492  0.00  0.00    +0.112 C 
ATOM      2  C   UNL     1      32.544  17.373  13.996  0.00  0.00    +0.075 C 
ATOM      3  C   UNL     1      34.007  17.320  13.533  0.00  0.00    +0.113 C 
ATOM      4  C   UNL     1      34.699  15.945  13.724  0.00  0.00    +0.048 C 
ATOM      5  C   UNL     1      34.933  15.385  12.326  0.00  0.00    +0.004 C 
ATOM      6  C   UNL     1      35.110  16.620  11.463  0.00  0.00    +0.004 C 
ATOM      7  C   UNL     1      34.046  17.562  12.001  0.00  0.00    +0.048 C 
ATOM      8  O   UNL     1      34.802  18.355  14.143  0.00  0.00    -0.485 OA
ATOM      9  C   UNL     1      34.771  18.316  15.513  0.00  0.00    +0.126 A 
ATOM     10  C   UNL     1      35.940  18.661  16.189  0.00  0.00    +0.046 A 
ATOM     11  C   UNL     1      35.983  18.600  17.584  0.00  0.00    +0.004 A 
ATOM     12  C   UNL     1      34.850  18.218  18.299  0.00  0.00    +0.001 A 
ATOM     13  C   UNL     1      33.673  17.905  17.618  0.00  0.00    +0.009 A 
ATOM     14  C   UNL     1      33.626  17.951  16.216  0.00  0.00    +0.015 A 
ENDROOT
BRANCH   1  21
ATOM     15  N   UNL     1      27.924  21.656  17.543  0.00  0.00    -0.299 N 
ATOM     16  C   UNL     1      27.579  20.237  17.617  0.00  0.00    +0.127 C 
ATOM     17  C   UNL     1      27.889  19.515  16.310  0.00  0.00    +0.129 C 
ATOM     18  N   UNL     1      29.306  19.668  16.016  0.00  0.00    -0.275 N 
ATOM     19  C   UNL     1      30.093  18.541  15.928  0.00  0.00    +0.303 C 
ATOM     20  O   UNL     1      29.644  17.408  16.092  0.00  0.00    -0.253 OA
ATOM     21  N   UNL     1      31.416  18.754  15.677  0.00  0.00    -0.292 N 
ATOM     22  C   UNL     1      29.756  21.059  15.920  0.00  0.00    +0.205 C 
ATOM     23  C   UNL     1      29.018  22.092  16.799  0.00  0.00    +0.233 C 
ATOM     24  O   UNL     1      29.385  23.270  16.799  0.00  0.00    -0.274 OA
ATOM     25  H   UNL     1      31.678  19.607  15.208  0.00  0.00    +0.151 HD
BRANCH  15  27
ATOM     26  C   UNL     1      27.311  21.965  19.925  0.00  0.00    +0.024 C 
ATOM     27  C   UNL     1      27.333  22.559  18.524  0.00  0.00    +0.104 C 
ENDBRANCH  15  27
ENDBRANCH   1  21
TORSDOF 2
ENDMDL
MODEL 7
REMARK VINA RESULT:      -6.5      4.354      7.169
REMARK  Name = ZINC000329563636
REMARK  3 active torsions:
REMARK  status: ('A' for Active; 'I' for Inactive)
REMARK    1  A    between atoms: C_1  and  C_2
REMARK    2  A    between atoms: C_2  and  N_3
REMARK    3  A    between atoms: N_9  and  C_10
REMARK                            x       y       z     vdW  Elec       q    Type
REMARK                         _______ _______ _______ _____ _____    ______ ____
ROOT
ATOM      1  C   UNL     1      30.472  23.397  17.908  0.00  0.00    +0.112 C 
ATOM      2  C   UNL     1      31.059  22.446  16.859  0.00  0.00    +0.075 C 
ATOM      3  C   UNL     1      30.169  21.246  16.505  0.00  0.00    +0.113 C 
ATOM      4  C   UNL     1      29.086  21.533  15.432  0.00  0.00    +0.048 C 
ATOM      5  C   UNL     1      29.494  20.748  14.191  0.00  0.00    +0.004 C 
ATOM      6  C   UNL     1      30.231  19.544  14.746  0.00  0.00    +0.004 C 
ATOM      7  C   UNL     1      31.059  20.145  15.870  0.00  0.00    +0.048 C 
ATOM      8  O   UNL     1      29.556  20.667  17.674  0.00  0.00    -0.485 OA
ATOM      9  C   UNL     1      28.813  21.570  18.390  0.00  0.00    +0.126 A 
ATOM     10  C   UNL     1      27.653  21.101  19.003  0.00  0.00    +0.046 A 
ATOM     11  C   UNL     1      26.833  21.982  19.712  0.00  0.00    +0.004 A 
ATOM     12  C   UNL     1      27.189  23.324  19.826  0.00  0.00    +0.001 A 
ATOM     13  C   UNL     1      28.368  23.781  19.238  0.00  0.00    +0.009 A 
ATOM     14  C   UNL     1      29.191  22.905  18.513  0.00  0.00    +0.015 A 
ENDROOT
BRANCH   1  21
ATOM     15  N   UNL     1      33.824  25.578  22.798  0.00  0.00    -0.299 N 
ATOM     16  C   UNL     1      33.386  26.582  21.829  0.00  0.00    +0.127 C 
ATOM     17  C   UNL     1      33.683  26.147  20.398  0.00  0.00    +0.129 C 
ATOM     18  N   UNL     1      33.010  24.883  20.143  0.00  0.00    -0.275 N 
ATOM     19  C   UNL     1      32.062  24.822  19.146  0.00  0.00    +0.303 C 
ATOM     20  O   UNL     1      31.759  25.799  18.462  0.00  0.00    -0.253 OA
ATOM     21  N   UNL     1      31.449  23.616  18.976  0.00  0.00    -0.292 N 
ATOM     22  C   UNL     1      33.381  23.804  21.064  0.00  0.00    +0.205 C 
ATOM     23  C   UNL     1      33.764  24.218  22.502  0.00  0.00    +0.233 C 
ATOM     24  O   UNL     1      34.037  23.351  23.336  0.00  0.00    -0.274 OA
ATOM     25  H   UNL     1      31.940  22.788  19.275  0.00  0.00    +0.151 HD
BRANCH  15  27
ATOM     26  C   UNL     1      34.121  27.500  24.336  0.00  0.00    +0.024 C 
ATOM     27  C   UNL     1      33.992  25.991  24.187  0.00  0.00    +0.104 C 
ENDBRANCH  15  27
ENDBRANCH   1  21
TORSDOF 2
ENDMDL
MODEL 8
REMARK VINA RESULT:      -6.5      4.893      9.841
REMARK  Name = ZINC000329563636
REMARK  3 active torsions:
REMARK  status: ('A' for Active; 'I' for Inactive)
REMARK    1  A    between atoms: C_1  and  C_2
REMARK    2  A    between atoms: C_2  and  N_3
REMARK    3  A    between atoms: N_9  and  C_10
REMARK                            x       y       z     vdW  Elec       q    Type
REMARK                         _______ _______ _______ _____ _____    ______ ____
ROOT
ATOM      1  C   UNL     1      31.573  20.823  16.890  0.00  0.00    +0.112 C 
ATOM      2  C   UNL     1      31.719  22.233  17.474  0.00  0.00    +0.075 C 
ATOM      3  C   UNL     1      30.394  22.937  17.802  0.00  0.00    +0.113 C 
ATOM      4  C   UNL     1      29.792  22.579  19.186  0.00  0.00    +0.048 C 
ATOM      5  C   UNL     1      29.903  23.837  20.039  0.00  0.00    +0.004 C 
ATOM      6  C   UNL     1      29.809  24.969  19.034  0.00  0.00    +0.004 C 
ATOM      7  C   UNL     1      30.656  24.464  17.878  0.00  0.00    +0.048 C 
ATOM      8  O   UNL     1      29.407  22.730  16.772  0.00  0.00    -0.485 OA
ATOM      9  C   UNL     1      29.154  21.405  16.533  0.00  0.00    +0.126 A 
ATOM     10  C   UNL     1      27.845  21.051  16.208  0.00  0.00    +0.046 A 
ATOM     11  C   UNL     1      27.517  19.711  15.993  0.00  0.00    +0.004 A 
ATOM     12  C   UNL     1      28.502  18.731  16.080  0.00  0.00    +0.001 A 
ATOM     13  C   UNL     1      29.818  19.093  16.374  0.00  0.00    +0.009 A 
ATOM     14  C   UNL     1      30.153  20.437  16.604  0.00  0.00    +0.015 A 
ENDROOT
BRANCH   1  21
ATOM     15  N   UNL     1      34.840  18.869  11.849  0.00  0.00    -0.299 N 
ATOM     16  C   UNL     1      35.150  18.193  13.108  0.00  0.00    +0.127 C 
ATOM     17  C   UNL     1      35.367  19.191  14.241  0.00  0.00    +0.129 C 
ATOM     18  N   UNL     1      34.166  19.998  14.392  0.00  0.00    -0.275 N 
ATOM     19  C   UNL     1      33.485  19.962  15.588  0.00  0.00    +0.303 C 
ATOM     20  O   UNL     1      33.853  19.270  16.536  0.00  0.00    -0.253 OA
ATOM     21  N   UNL     1      32.353  20.719  15.655  0.00  0.00    -0.292 N 
ATOM     22  C   UNL     1      33.767  20.719  13.179  0.00  0.00    +0.205 C 
ATOM     23  C   UNL     1      34.103  20.051  11.829  0.00  0.00    +0.233 C 
ATOM     24  O   UNL     1      33.749  20.586  10.775  0.00  0.00    -0.274 OA
ATOM     25  H   UNL     1      32.276  21.513  15.040  0.00  0.00    +0.151 HD
BRANCH  15  27
ATOM     26  C   UNL     1      36.391  18.284  10.005  0.00  0.00    +0.024 C 
ATOM     27  C   UNL     1      35.004  18.118  10.608  0.00  0.00    +0.104 C 
ENDBRANCH  15  27
ENDBRANCH   1  21
TORSDOF 2
ENDMDL
MODEL 9
REMARK VINA RESULT:      -6.5      2.091      2.764
REMARK  Name = ZINC000329563636
REMARK  3 active torsions:
REMARK  status: ('A' for Active; 'I' for Inactive)
REMARK    1  A    between atoms: C_1  and  C_2
REMARK    2  A    between atoms: C_2  and  N_3
REMARK    3  A    between atoms: N_9  and  C_10
REMARK                            x       y       z     vdW  Elec       q    Type
REMARK                         _______ _______ _______ _____ _____    ______ ____
ROOT
ATOM      1  C   UNL     1      28.806  23.109  19.466  0.00  0.00    +0.112 C 
ATOM      2  C   UNL     1      28.031  22.095  18.617  0.00  0.00    +0.075 C 
ATOM      3  C   UNL     1      28.651  21.793  17.245  0.00  0.00    +0.113 C 
ATOM      4  C   UNL     1      29.766  20.715  17.258  0.00  0.00    +0.048 C 
ATOM      5  C   UNL     1      29.200  19.504  16.526  0.00  0.00    +0.004 C 
ATOM      6  C   UNL     1      28.231  20.102  15.525  0.00  0.00    +0.004 C 
ATOM      7  C   UNL     1      27.550  21.197  16.329  0.00  0.00    +0.048 C 
ATOM      8  O   UNL     1      29.135  22.987  16.599  0.00  0.00    -0.485 OA
ATOM      9  C   UNL     1      30.051  23.670  17.355  0.00  0.00    +0.126 A 
ATOM     10  C   UNL     1      31.091  24.307  16.680  0.00  0.00    +0.046 A 
ATOM     11  C   UNL     1      32.078  24.985  17.398  0.00  0.00    +0.004 A 
ATOM     12  C   UNL     1      32.009  25.044  18.788  0.00  0.00    +0.001 A 
ATOM     13  C   UNL     1      30.948  24.433  19.458  0.00  0.00    +0.009 A 
ATOM     14  C   UNL     1      29.959  23.739  18.743  0.00  0.00    +0.015 A 
ENDROOT
BRANCH   1  21
ATOM     15  N   UNL     1      24.242  26.502  22.216  0.00  0.00    -0.299 N 
ATOM     16  C   UNL     1      23.833  25.207  21.674  0.00  0.00    +0.127 C 
ATOM     17  C   UNL     1      24.349  25.004  20.254  0.00  0.00    +0.129 C 
ATOM     18  N   UNL     1      25.801  25.103  20.265  0.00  0.00    -0.275 N 
ATOM     19  C   UNL     1      26.546  24.015  19.865  0.00  0.00    +0.303 C 
ATOM     20  O   UNL     1      26.030  22.959  19.502  0.00  0.00    -0.253 OA
ATOM     21  N   UNL     1      27.900  24.163  19.925  0.00  0.00    -0.292 N 
ATOM     22  C   UNL     1      26.317  26.370  20.792  0.00  0.00    +0.205 C 
ATOM     23  C   UNL     1      25.471  27.066  21.880  0.00  0.00    +0.233 C 
ATOM     24  O   UNL     1      25.878  28.110  22.398  0.00  0.00    -0.274 OA
ATOM     25  H   UNL     1      28.278  25.096  19.874  0.00  0.00    +0.151 HD
BRANCH  15  27
ATOM     26  C   UNL     1      23.256  25.962  24.426  0.00  0.00    +0.024 C 
ATOM     27  C   UNL     1      23.517  27.025  23.369  0.00  0.00    +0.104 C 
ENDBRANCH  15  27
ENDBRANCH   1  21
TORSDOF 2
ENDMDL
