MODEL 1
REMARK VINA RESULT:      -6.2      0.000      0.000
REMARK  Name = ZINC001228612316
REMARK  5 active torsions:
REMARK  status: ('A' for Active; 'I' for Inactive)
REMARK    1  A    between atoms: C_2  and  C_4
REMARK    2  A    between atoms: C_8  and  O_9
REMARK    3  A    between atoms: O_9  and  C_10
REMARK    4  A    between atoms: C_10  and  C_11
REMARK    5  A    between atoms: C_10  and  C_17
REMARK                            x       y       z     vdW  Elec       q    Type
REMARK                         _______ _______ _______ _____ _____    ______ ____
ROOT
ATOM      1  C   UNL     1      29.708  18.042  14.919  0.00  0.00    +0.040 A 
ATOM      2  C   UNL     1      30.597  17.306  14.131  0.00  0.00    +0.013 A 
ATOM      3  C   UNL     1      31.409  17.969  13.207  0.00  0.00    +0.004 A 
ATOM      4  C   UNL     1      31.337  19.361  13.081  0.00  0.00    +0.046 A 
ATOM      5  C   UNL     1      30.456  20.099  13.874  0.00  0.00    +0.122 A 
ATOM      6  C   UNL     1      29.625  19.429  14.766  0.00  0.00    +0.058 A 
ENDROOT
BRANCH   1   8
ATOM      7  N   UNL     1      28.704  16.062  15.926  0.00  0.00    -0.325 N 
ATOM      8  C   UNL     1      28.825  17.422  15.939  0.00  0.00    +0.242 C 
ATOM      9  O   UNL     1      28.272  18.092  16.803  0.00  0.00    -0.270 OA
ATOM     10  H   UNL     1      28.217  15.659  16.717  0.00  0.00    +0.145 HD
ATOM     11  H   UNL     1      29.347  15.470  15.422  0.00  0.00    +0.145 HD
ENDBRANCH   1   8
BRANCH   5  12
ATOM     12  O   UNL     1      30.468  21.454  13.683  0.00  0.00    -0.484 OA
BRANCH  12  13
ATOM     13  C   UNL     1      31.737  22.130  13.768  0.00  0.00    +0.208 C 
BRANCH  13  14
ATOM     14  C   UNL     1      31.752  23.271  12.773  0.00  0.00    +0.011 A 
ATOM     15  C   UNL     1      30.818  24.310  12.879  0.00  0.00    +0.010 A 
ATOM     16  C   UNL     1      30.827  25.354  11.963  0.00  0.00    +0.020 A 
ATOM     17  C   UNL     1      31.780  25.329  10.960  0.00  0.00    +0.111 A 
ATOM     18  N   UNL     1      32.696  24.348  10.816  0.00  0.00    -0.263 NA
ATOM     19  C   UNL     1      32.660  23.340  11.723  0.00  0.00    +0.118 A 
ENDBRANCH  13  14
BRANCH  13  20
ATOM     20  C   UNL     1      31.939  22.653  15.173  0.00  0.00    +0.034 C 
ATOM     21  C   UNL     1      33.188  23.408  15.578  0.00  0.00    +0.008 C 
ATOM     22  C   UNL     1      32.962  22.021  16.096  0.00  0.00    +0.008 C 
ENDBRANCH  13  20
ENDBRANCH  12  13
ENDBRANCH   5  12
TORSDOF 5
ENDMDL
MODEL 2
REMARK VINA RESULT:      -6.1      3.083      5.717
REMARK  Name = ZINC001228612316
REMARK  5 active torsions:
REMARK  status: ('A' for Active; 'I' for Inactive)
REMARK    1  A    between atoms: C_2  and  C_4
REMARK    2  A    between atoms: C_8  and  O_9
REMARK    3  A    between atoms: O_9  and  C_10
REMARK    4  A    between atoms: C_10  and  C_11
REMARK    5  A    between atoms: C_10  and  C_17
REMARK                            x       y       z     vdW  Elec       q    Type
REMARK                         _______ _______ _______ _____ _____    ______ ____
ROOT
ATOM      1  C   UNL     1      27.780  20.609  16.641  0.00  0.00    +0.040 A 
ATOM      2  C   UNL     1      27.263  19.620  17.482  0.00  0.00    +0.013 A 
ATOM      3  C   UNL     1      27.640  18.288  17.290  0.00  0.00    +0.004 A 
ATOM      4  C   UNL     1      28.535  17.951  16.270  0.00  0.00    +0.046 A 
ATOM      5  C   UNL     1      29.060  18.939  15.434  0.00  0.00    +0.122 A 
ATOM      6  C   UNL     1      28.653  20.258  15.607  0.00  0.00    +0.058 A 
ENDROOT
BRANCH   1   8
ATOM      7  N   UNL     1      28.437  22.952  16.510  0.00  0.00    -0.325 N 
ATOM      8  C   UNL     1      27.450  22.050  16.786  0.00  0.00    +0.242 C 
ATOM      9  O   UNL     1      26.321  22.425  17.077  0.00  0.00    -0.270 OA
ATOM     10  H   UNL     1      28.145  23.922  16.474  0.00  0.00    +0.145 HD
ATOM     11  H   UNL     1      29.274  22.697  16.008  0.00  0.00    +0.145 HD
ENDBRANCH   1   8
BRANCH   5  12
ATOM     12  O   UNL     1      29.935  18.511  14.474  0.00  0.00    -0.484 OA
BRANCH  12  13
ATOM     13  C   UNL     1      31.274  19.039  14.505  0.00  0.00    +0.208 C 
BRANCH  13  14
ATOM     14  C   UNL     1      32.257  17.897  14.353  0.00  0.00    +0.011 A 
ATOM     15  C   UNL     1      33.331  17.771  15.244  0.00  0.00    +0.010 A 
ATOM     16  C   UNL     1      34.237  16.727  15.102  0.00  0.00    +0.020 A 
ATOM     17  C   UNL     1      34.039  15.832  14.066  0.00  0.00    +0.111 A 
ATOM     18  N   UNL     1      33.022  15.917  13.182  0.00  0.00    -0.263 NA
ATOM     19  C   UNL     1      32.157  16.948  13.343  0.00  0.00    +0.118 A 
ENDBRANCH  13  14
BRANCH  13  20
ATOM     20  C   UNL     1      31.451  20.039  13.384  0.00  0.00    +0.034 C 
ATOM     21  C   UNL     1      32.781  20.708  13.105  0.00  0.00    +0.008 C 
ATOM     22  C   UNL     1      31.656  21.511  13.683  0.00  0.00    +0.008 C 
ENDBRANCH  13  20
ENDBRANCH  12  13
ENDBRANCH   5  12
TORSDOF 5
ENDMDL
MODEL 3
REMARK VINA RESULT:      -6.1      1.567      1.779
REMARK  Name = ZINC001228612316
REMARK  5 active torsions:
REMARK  status: ('A' for Active; 'I' for Inactive)
REMARK    1  A    between atoms: C_2  and  C_4
REMARK    2  A    between atoms: C_8  and  O_9
REMARK    3  A    between atoms: O_9  and  C_10
REMARK    4  A    between atoms: C_10  and  C_11
REMARK    5  A    between atoms: C_10  and  C_17
REMARK                            x       y       z     vdW  Elec       q    Type
REMARK                         _______ _______ _______ _____ _____    ______ ____
ROOT
ATOM      1  C   UNL     1      28.515  19.968  15.917  0.00  0.00    +0.040 A 
ATOM      2  C   UNL     1      29.154  18.806  15.477  0.00  0.00    +0.013 A 
ATOM      3  C   UNL     1      30.039  18.873  14.398  0.00  0.00    +0.004 A 
ATOM      4  C   UNL     1      30.290  20.098  13.771  0.00  0.00    +0.046 A 
ATOM      5  C   UNL     1      29.659  21.263  14.214  0.00  0.00    +0.122 A 
ATOM      6  C   UNL     1      28.751  21.182  15.265  0.00  0.00    +0.058 A 
ENDROOT
BRANCH   1   8
ATOM      7  N   UNL     1      27.300  18.804  17.680  0.00  0.00    -0.325 N 
ATOM      8  C   UNL     1      27.576  19.992  17.067  0.00  0.00    +0.242 C 
ATOM      9  O   UNL     1      27.114  21.042  17.498  0.00  0.00    -0.270 OA
ATOM     10  H   UNL     1      26.778  18.869  18.545  0.00  0.00    +0.145 HD
ATOM     11  H   UNL     1      27.866  17.980  17.536  0.00  0.00    +0.145 HD
ENDBRANCH   1   8
BRANCH   5  12
ATOM     12  O   UNL     1      29.978  22.411  13.542  0.00  0.00    -0.484 OA
BRANCH  12  13
ATOM     13  C   UNL     1      31.368  22.778  13.468  0.00  0.00    +0.208 C 
BRANCH  13  14
ATOM     14  C   UNL     1      31.537  23.849  12.410  0.00  0.00    +0.011 A 
ATOM     15  C   UNL     1      30.736  24.998  12.438  0.00  0.00    +0.010 A 
ATOM     16  C   UNL     1      30.886  25.978  11.464  0.00  0.00    +0.020 A 
ATOM     17  C   UNL     1      31.841  25.779  10.484  0.00  0.00    +0.111 A 
ATOM     18  N   UNL     1      32.631  24.685  10.414  0.00  0.00    -0.263 NA
ATOM     19  C   UNL     1      32.460  23.745  11.375  0.00  0.00    +0.118 A 
ENDBRANCH  13  14
BRANCH  13  20
ATOM     20  C   UNL     1      31.830  23.291  14.814  0.00  0.00    +0.034 C 
ATOM     21  C   UNL     1      33.245  23.776  15.047  0.00  0.00    +0.008 C 
ATOM     22  C   UNL     1      32.797  22.485  15.659  0.00  0.00    +0.008 C 
ENDBRANCH  13  20
ENDBRANCH  12  13
ENDBRANCH   5  12
TORSDOF 5
ENDMDL
MODEL 4
REMARK VINA RESULT:      -6.1      2.068      2.838
REMARK  Name = ZINC001228612316
REMARK  5 active torsions:
REMARK  status: ('A' for Active; 'I' for Inactive)
REMARK    1  A    between atoms: C_2  and  C_4
REMARK    2  A    between atoms: C_8  and  O_9
REMARK    3  A    between atoms: O_9  and  C_10
REMARK    4  A    between atoms: C_10  and  C_11
REMARK    5  A    between atoms: C_10  and  C_17
REMARK                            x       y       z     vdW  Elec       q    Type
REMARK                         _______ _______ _______ _____ _____    ______ ____
ROOT
ATOM      1  C   UNL     1      29.580  17.708  14.966  0.00  0.00    +0.040 A 
ATOM      2  C   UNL     1      30.450  17.085  14.069  0.00  0.00    +0.013 A 
ATOM      3  C   UNL     1      31.247  17.865  13.228  0.00  0.00    +0.004 A 
ATOM      4  C   UNL     1      31.181  19.261  13.293  0.00  0.00    +0.046 A 
ATOM      5  C   UNL     1      30.318  19.887  14.196  0.00  0.00    +0.122 A 
ATOM      6  C   UNL     1      29.501  19.104  15.004  0.00  0.00    +0.058 A 
ENDROOT
BRANCH   1   8
ATOM      7  N   UNL     1      28.179  17.648  16.960  0.00  0.00    -0.325 N 
ATOM      8  C   UNL     1      28.712  16.958  15.909  0.00  0.00    +0.242 C 
ATOM      9  O   UNL     1      28.428  15.781  15.724  0.00  0.00    -0.270 OA
ATOM     10  H   UNL     1      27.479  17.153  17.499  0.00  0.00    +0.145 HD
ATOM     11  H   UNL     1      28.162  18.657  16.988  0.00  0.00    +0.145 HD
ENDBRANCH   1   8
BRANCH   5  12
ATOM     12  O   UNL     1      30.334  21.255  14.191  0.00  0.00    -0.484 OA
BRANCH  12  13
ATOM     13  C   UNL     1      30.563  21.926  15.444  0.00  0.00    +0.208 C 
BRANCH  13  14
ATOM     14  C   UNL     1      31.750  22.854  15.294  0.00  0.00    +0.011 A 
ATOM     15  C   UNL     1      32.084  23.371  14.035  0.00  0.00    +0.010 A 
ATOM     16  C   UNL     1      33.176  24.217  13.894  0.00  0.00    +0.020 A 
ATOM     17  C   UNL     1      33.908  24.527  15.027  0.00  0.00    +0.111 A 
ATOM     18  N   UNL     1      33.627  24.049  16.258  0.00  0.00    -0.263 NA
ATOM     19  C   UNL     1      32.558  23.222  16.364  0.00  0.00    +0.118 A 
ENDBRANCH  13  14
BRANCH  13  20
ATOM     20  C   UNL     1      29.329  22.708  15.834  0.00  0.00    +0.034 C 
ATOM     21  C   UNL     1      29.030  23.075  17.272  0.00  0.00    +0.008 C 
ATOM     22  C   UNL     1      28.193  22.041  16.585  0.00  0.00    +0.008 C 
ENDBRANCH  13  20
ENDBRANCH  12  13
ENDBRANCH   5  12
TORSDOF 5
ENDMDL
MODEL 5
REMARK VINA RESULT:      -6.0      2.555      3.761
REMARK  Name = ZINC001228612316
REMARK  5 active torsions:
REMARK  status: ('A' for Active; 'I' for Inactive)
REMARK    1  A    between atoms: C_2  and  C_4
REMARK    2  A    between atoms: C_8  and  O_9
REMARK    3  A    between atoms: O_9  and  C_10
REMARK    4  A    between atoms: C_10  and  C_11
REMARK    5  A    between atoms: C_10  and  C_17
REMARK                            x       y       z     vdW  Elec       q    Type
REMARK                         _______ _______ _______ _____ _____    ______ ____
ROOT
ATOM      1  C   UNL     1      30.490  17.556  13.964  0.00  0.00    +0.040 A 
ATOM      2  C   UNL     1      31.308  17.190  12.892  0.00  0.00    +0.013 A 
ATOM      3  C   UNL     1      32.256  18.095  12.408  0.00  0.00    +0.004 A 
ATOM      4  C   UNL     1      32.389  19.355  13.000  0.00  0.00    +0.046 A 
ATOM      5  C   UNL     1      31.579  19.721  14.077  0.00  0.00    +0.122 A 
ATOM      6  C   UNL     1      30.613  18.828  14.531  0.00  0.00    +0.058 A 
ENDROOT
BRANCH   1   8
ATOM      7  N   UNL     1      29.205  16.787  15.886  0.00  0.00    -0.325 N 
ATOM      8  C   UNL     1      29.473  16.651  14.555  0.00  0.00    +0.242 C 
ATOM      9  O   UNL     1      28.845  15.853  13.868  0.00  0.00    -0.270 OA
ATOM     10  H   UNL     1      28.409  16.262  16.229  0.00  0.00    +0.145 HD
ATOM     11  H   UNL     1      29.489  17.601  16.412  0.00  0.00    +0.145 HD
ENDBRANCH   1   8
BRANCH   5  12
ATOM     12  O   UNL     1      31.793  20.970  14.593  0.00  0.00    -0.484 OA
BRANCH  12  13
ATOM     13  C   UNL     1      30.835  21.997  14.279  0.00  0.00    +0.208 C 
BRANCH  13  14
ATOM     14  C   UNL     1      30.006  22.289  15.513  0.00  0.00    +0.011 A 
ATOM     15  C   UNL     1      28.756  21.678  15.681  0.00  0.00    +0.010 A 
ATOM     16  C   UNL     1      27.992  21.950  16.809  0.00  0.00    +0.020 A 
ATOM     17  C   UNL     1      28.505  22.831  17.744  0.00  0.00    +0.111 A 
ATOM     18  N   UNL     1      29.701  23.446  17.621  0.00  0.00    -0.263 NA
ATOM     19  C   UNL     1      30.422  23.164  16.509  0.00  0.00    +0.118 A 
ENDBRANCH  13  14
BRANCH  13  20
ATOM     20  C   UNL     1      31.560  23.245  13.824  0.00  0.00    +0.034 C 
ATOM     21  C   UNL     1      30.961  24.198  12.811  0.00  0.00    +0.008 C 
ATOM     22  C   UNL     1      32.128  23.343  12.422  0.00  0.00    +0.008 C 
ENDBRANCH  13  20
ENDBRANCH  12  13
ENDBRANCH   5  12
TORSDOF 5
ENDMDL
MODEL 6
REMARK VINA RESULT:      -5.9      1.940      2.420
REMARK  Name = ZINC001228612316
REMARK  5 active torsions:
REMARK  status: ('A' for Active; 'I' for Inactive)
REMARK    1  A    between atoms: C_2  and  C_4
REMARK    2  A    between atoms: C_8  and  O_9
REMARK    3  A    between atoms: O_9  and  C_10
REMARK    4  A    between atoms: C_10  and  C_11
REMARK    5  A    between atoms: C_10  and  C_17
REMARK                            x       y       z     vdW  Elec       q    Type
REMARK                         _______ _______ _______ _____ _____    ______ ____
ROOT
ATOM      1  C   UNL     1      31.070  18.246  13.444  0.00  0.00    +0.040 A 
ATOM      2  C   UNL     1      30.194  17.864  14.462  0.00  0.00    +0.013 A 
ATOM      3  C   UNL     1      29.440  18.837  15.124  0.00  0.00    +0.004 A 
ATOM      4  C   UNL     1      29.556  20.182  14.760  0.00  0.00    +0.046 A 
ATOM      5  C   UNL     1      30.425  20.567  13.735  0.00  0.00    +0.122 A 
ATOM      6  C   UNL     1      31.199  19.597  13.106  0.00  0.00    +0.058 A 
ENDROOT
BRANCH   1   8
ATOM      7  N   UNL     1      32.976  17.767  12.001  0.00  0.00    -0.325 N 
ATOM      8  C   UNL     1      31.893  17.279  12.675  0.00  0.00    +0.242 C 
ATOM      9  O   UNL     1      31.656  16.077  12.692  0.00  0.00    -0.270 OA
ATOM     10  H   UNL     1      33.598  17.070  11.610  0.00  0.00    +0.145 HD
ATOM     11  H   UNL     1      33.357  18.683  12.188  0.00  0.00    +0.145 HD
ENDBRANCH   1   8
BRANCH   5  12
ATOM     12  O   UNL     1      30.458  21.903  13.447  0.00  0.00    -0.484 OA
BRANCH  12  13
ATOM     13  C   UNL     1      31.741  22.558  13.457  0.00  0.00    +0.208 C 
BRANCH  13  14
ATOM     14  C   UNL     1      31.718  23.700  12.463  0.00  0.00    +0.011 A 
ATOM     15  C   UNL     1      30.821  24.763  12.634  0.00  0.00    +0.010 A 
ATOM     16  C   UNL     1      30.794  25.808  11.719  0.00  0.00    +0.020 A 
ATOM     17  C   UNL     1      31.673  25.760  10.652  0.00  0.00    +0.111 A 
ATOM     18  N   UNL     1      32.550  24.754  10.445  0.00  0.00    -0.263 NA
ATOM     19  C   UNL     1      32.551  23.747  11.352  0.00  0.00    +0.118 A 
ENDBRANCH  13  14
BRANCH  13  20
ATOM     20  C   UNL     1      32.034  23.076  14.848  0.00  0.00    +0.034 C 
ATOM     21  C   UNL     1      33.385  23.647  15.225  0.00  0.00    +0.008 C 
ATOM     22  C   UNL     1      32.964  22.320  15.777  0.00  0.00    +0.008 C 
ENDBRANCH  13  20
ENDBRANCH  12  13
ENDBRANCH   5  12
TORSDOF 5
ENDMDL
MODEL 7
REMARK VINA RESULT:      -5.8      2.965      6.982
REMARK  Name = ZINC001228612316
REMARK  5 active torsions:
REMARK  status: ('A' for Active; 'I' for Inactive)
REMARK    1  A    between atoms: C_2  and  C_4
REMARK    2  A    between atoms: C_8  and  O_9
REMARK    3  A    between atoms: O_9  and  C_10
REMARK    4  A    between atoms: C_10  and  C_11
REMARK    5  A    between atoms: C_10  and  C_17
REMARK                            x       y       z     vdW  Elec       q    Type
REMARK                         _______ _______ _______ _____ _____    ______ ____
ROOT
ATOM      1  C   UNL     1      32.429  24.934  10.250  0.00  0.00    +0.040 A 
ATOM      2  C   UNL     1      31.603  26.041  10.463  0.00  0.00    +0.013 A 
ATOM      3  C   UNL     1      30.786  26.083  11.596  0.00  0.00    +0.004 A 
ATOM      4  C   UNL     1      30.804  25.027  12.513  0.00  0.00    +0.046 A 
ATOM      5  C   UNL     1      31.635  23.923  12.307  0.00  0.00    +0.122 A 
ATOM      6  C   UNL     1      32.418  23.872  11.159  0.00  0.00    +0.058 A 
ENDROOT
BRANCH   1   8
ATOM      7  N   UNL     1      33.120  25.643   8.023  0.00  0.00    -0.325 N 
ATOM      8  C   UNL     1      33.343  24.816   9.086  0.00  0.00    +0.242 C 
ATOM      9  O   UNL     1      34.303  24.055   9.097  0.00  0.00    -0.270 OA
ATOM     10  H   UNL     1      33.840  25.644   7.311  0.00  0.00    +0.145 HD
ATOM     11  H   UNL     1      32.528  26.458   8.090  0.00  0.00    +0.145 HD
ENDBRANCH   1   8
BRANCH   5  12
ATOM     12  O   UNL     1      31.588  22.949  13.266  0.00  0.00    -0.484 OA
BRANCH  12  13
ATOM     13  C   UNL     1      31.430  23.365  14.636  0.00  0.00    +0.208 C 
BRANCH  13  14
ATOM     14  C   UNL     1      30.255  22.627  15.241  0.00  0.00    +0.011 A 
ATOM     15  C   UNL     1      29.945  21.328  14.815  0.00  0.00    +0.010 A 
ATOM     16  C   UNL     1      28.864  20.651  15.365  0.00  0.00    +0.020 A 
ATOM     17  C   UNL     1      28.118  21.298  16.334  0.00  0.00    +0.111 A 
ATOM     18  N   UNL     1      28.376  22.549  16.771  0.00  0.00    -0.263 NA
ATOM     19  C   UNL     1      29.435  23.186  16.214  0.00  0.00    +0.118 A 
ENDBRANCH  13  14
BRANCH  13  20
ATOM     20  C   UNL     1      32.696  23.063  15.407  0.00  0.00    +0.034 C 
ATOM     21  C   UNL     1      32.951  23.629  16.788  0.00  0.00    +0.008 C 
ATOM     22  C   UNL     1      33.745  24.135  15.624  0.00  0.00    +0.008 C 
ENDBRANCH  13  20
ENDBRANCH  12  13
ENDBRANCH   5  12
TORSDOF 5
ENDMDL
MODEL 8
REMARK VINA RESULT:      -5.8      3.240      4.082
REMARK  Name = ZINC001228612316
REMARK  5 active torsions:
REMARK  status: ('A' for Active; 'I' for Inactive)
REMARK    1  A    between atoms: C_2  and  C_4
REMARK    2  A    between atoms: C_8  and  O_9
REMARK    3  A    between atoms: O_9  and  C_10
REMARK    4  A    between atoms: C_10  and  C_11
REMARK    5  A    between atoms: C_10  and  C_17
REMARK                            x       y       z     vdW  Elec       q    Type
REMARK                         _______ _______ _______ _____ _____    ______ ____
ROOT
ATOM      1  C   UNL     1      29.249  22.866  17.580  0.00  0.00    +0.040 A 
ATOM      2  C   UNL     1      28.319  21.988  17.017  0.00  0.00    +0.013 A 
ATOM      3  C   UNL     1      28.466  21.590  15.686  0.00  0.00    +0.004 A 
ATOM      4  C   UNL     1      29.543  22.059  14.928  0.00  0.00    +0.046 A 
ATOM      5  C   UNL     1      30.480  22.929  15.490  0.00  0.00    +0.122 A 
ATOM      6  C   UNL     1      30.307  23.350  16.805  0.00  0.00    +0.058 A 
ENDROOT
BRANCH   1   8
ATOM      7  N   UNL     1      28.038  23.949  19.396  0.00  0.00    -0.325 N 
ATOM      8  C   UNL     1      29.182  23.324  18.990  0.00  0.00    +0.242 C 
ATOM      9  O   UNL     1      30.087  23.097  19.784  0.00  0.00    -0.270 OA
ATOM     10  H   UNL     1      27.961  24.118  20.392  0.00  0.00    +0.145 HD
ATOM     11  H   UNL     1      27.182  23.904  18.863  0.00  0.00    +0.145 HD
ENDBRANCH   1   8
BRANCH   5  12
ATOM     12  O   UNL     1      31.502  23.323  14.671  0.00  0.00    -0.484 OA
BRANCH  12  13
ATOM     13  C   UNL     1      31.574  22.731  13.360  0.00  0.00    +0.208 C 
BRANCH  13  14
ATOM     14  C   UNL     1      31.663  23.835  12.327  0.00  0.00    +0.011 A 
ATOM     15  C   UNL     1      30.812  24.946  12.410  0.00  0.00    +0.010 A 
ATOM     16  C   UNL     1      30.888  25.957  11.460  0.00  0.00    +0.020 A 
ATOM     17  C   UNL     1      31.821  25.827  10.447  0.00  0.00    +0.111 A 
ATOM     18  N   UNL     1      32.656  24.773  10.325  0.00  0.00    -0.263 NA
ATOM     19  C   UNL     1      32.557  23.801  11.264  0.00  0.00    +0.118 A 
ENDBRANCH  13  14
BRANCH  13  20
ATOM     20  C   UNL     1      32.788  21.832  13.275  0.00  0.00    +0.034 C 
ATOM     21  C   UNL     1      32.760  20.511  12.536  0.00  0.00    +0.008 C 
ATOM     22  C   UNL     1      32.834  20.519  14.032  0.00  0.00    +0.008 C 
ENDBRANCH  13  20
ENDBRANCH  12  13
ENDBRANCH   5  12
TORSDOF 5
ENDMDL
MODEL 9
REMARK VINA RESULT:      -5.8      2.818      4.221
REMARK  Name = ZINC001228612316
REMARK  5 active torsions:
REMARK  status: ('A' for Active; 'I' for Inactive)
REMARK    1  A    between atoms: C_2  and  C_4
REMARK    2  A    between atoms: C_8  and  O_9
REMARK    3  A    between atoms: O_9  and  C_10
REMARK    4  A    between atoms: C_10  and  C_11
REMARK    5  A    between atoms: C_10  and  C_17
REMARK                            x       y       z     vdW  Elec       q    Type
REMARK                         _______ _______ _______ _____ _____    ______ ____
ROOT
ATOM      1  C   UNL     1      32.085  18.102  12.496  0.00  0.00    +0.040 A 
ATOM      2  C   UNL     1      32.745  18.302  11.282  0.00  0.00    +0.013 A 
ATOM      3  C   UNL     1      33.186  19.583  10.940  0.00  0.00    +0.004 A 
ATOM      4  C   UNL     1      32.976  20.654  11.814  0.00  0.00    +0.046 A 
ATOM      5  C   UNL     1      32.324  20.456  13.034  0.00  0.00    +0.122 A 
ATOM      6  C   UNL     1      31.855  19.185  13.351  0.00  0.00    +0.058 A 
ENDROOT
BRANCH   1   8
ATOM      7  N   UNL     1      30.340  16.704  13.467  0.00  0.00    -0.325 N 
ATOM      8  C   UNL     1      31.601  16.773  12.948  0.00  0.00    +0.242 C 
ATOM      9  O   UNL     1      32.275  15.760  12.804  0.00  0.00    -0.270 OA
ATOM     10  H   UNL     1      29.984  15.770  13.630  0.00  0.00    +0.145 HD
ATOM     11  H   UNL     1      29.667  17.446  13.345  0.00  0.00    +0.145 HD
ENDBRANCH   1   8
BRANCH   5  12
ATOM     12  O   UNL     1      32.177  21.563  13.823  0.00  0.00    -0.484 OA
BRANCH  12  13
ATOM     13  C   UNL     1      31.037  22.410  13.582  0.00  0.00    +0.208 C 
BRANCH  13  14
ATOM     14  C   UNL     1      30.126  22.362  14.790  0.00  0.00    +0.011 A 
ATOM     15  C   UNL     1      29.190  21.327  14.925  0.00  0.00    +0.010 A 
ATOM     16  C   UNL     1      28.349  21.286  16.030  0.00  0.00    +0.020 A 
ATOM     17  C   UNL     1      28.470  22.288  16.976  0.00  0.00    +0.111 A 
ATOM     18  N   UNL     1      29.353  23.305  16.885  0.00  0.00    -0.263 NA
ATOM     19  C   UNL     1      30.157  23.322  15.795  0.00  0.00    +0.118 A 
ENDBRANCH  13  14
BRANCH  13  20
ATOM     20  C   UNL     1      31.502  23.827  13.329  0.00  0.00    +0.034 C 
ATOM     21  C   UNL     1      30.811  24.735  12.334  0.00  0.00    +0.008 C 
ATOM     22  C   UNL     1      32.174  24.200  12.022  0.00  0.00    +0.008 C 
ENDBRANCH  13  20
ENDBRANCH  12  13
ENDBRANCH   5  12
TORSDOF 5
ENDMDL
