MODEL 1
REMARK VINA RESULT:      -6.9      0.000      0.000
REMARK  Name = ZINC000583127796
REMARK  2 active torsions:
REMARK  status: ('A' for Active; 'I' for Inactive)
REMARK    1  A    between atoms: C_2  and  C_4
REMARK    2  A    between atoms: C_7  and  C_8
REMARK                            x       y       z     vdW  Elec       q    Type
REMARK                         _______ _______ _______ _____ _____    ______ ____
ROOT
ATOM      1  C   UNL     1      30.294  17.297  14.136  0.00  0.00    +0.247 C 
ATOM      2  O   UNL     1      29.780  16.436  13.424  0.00  0.00    -0.270 OA
ATOM      3  N   UNL     1      31.674  17.340  14.396  0.00  0.00    -0.297 N 
ATOM      4  C   UNL     1      32.374  18.328  15.222  0.00  0.00    +0.108 C 
ATOM      5  C   UNL     1      33.510  19.004  14.476  0.00  0.00    +0.020 C 
ATOM      6  C   UNL     1      34.431  17.989  13.824  0.00  0.00    +0.011 C 
ATOM      7  C   UNL     1      33.673  16.966  12.942  0.00  0.00    -0.004 C 
ATOM      8  C   UNL     1      34.711  15.931  12.459  0.00  0.00    +0.020 C 
ATOM      9  C   UNL     1      34.228  15.277  11.182  0.00  0.00    +0.070 C 
ATOM     10  S   UNL     1      33.508  16.631  10.241  0.00  0.00    -0.160 S 
ATOM     11  C   UNL     1      33.076  17.642  11.686  0.00  0.00    +0.077 C 
ATOM     12  C   UNL     1      32.543  16.319  13.789  0.00  0.00    +0.115 C 
ENDROOT
BRANCH   1  16
ATOM     13  C   UNL     1      28.015  20.487  15.846  0.00  0.00    +0.037 A 
ATOM     14  C   UNL     1      27.599  19.166  16.049  0.00  0.00    +0.014 A 
ATOM     15  C   UNL     1      28.264  18.121  15.402  0.00  0.00    +0.014 A 
ATOM     16  C   UNL     1      29.405  18.382  14.638  0.00  0.00    +0.037 A 
ATOM     17  C   UNL     1      29.755  19.709  14.353  0.00  0.00    +0.014 A 
ATOM     18  C   UNL     1      29.052  20.761  14.948  0.00  0.00    +0.014 A 
BRANCH  13  20
ATOM     19  N   UNL     1      28.201  22.439  17.283  0.00  0.00    -0.325 N 
ATOM     20  C   UNL     1      27.376  21.615  16.572  0.00  0.00    +0.242 C 
ATOM     21  O   UNL     1      26.175  21.825  16.493  0.00  0.00    -0.270 OA
ATOM     22  H   UNL     1      27.770  23.274  17.664  0.00  0.00    +0.145 HD
ATOM     23  H   UNL     1      29.201  22.456  17.138  0.00  0.00    +0.145 HD
ENDBRANCH  13  20
ENDBRANCH   1  16
TORSDOF 2
ENDMDL
MODEL 2
REMARK VINA RESULT:      -6.7      1.331      1.746
REMARK  Name = ZINC000583127796
REMARK  2 active torsions:
REMARK  status: ('A' for Active; 'I' for Inactive)
REMARK    1  A    between atoms: C_2  and  C_4
REMARK    2  A    between atoms: C_7  and  C_8
REMARK                            x       y       z     vdW  Elec       q    Type
REMARK                         _______ _______ _______ _____ _____    ______ ____
ROOT
ATOM      1  C   UNL     1      30.836  16.680  13.743  0.00  0.00    +0.247 C 
ATOM      2  O   UNL     1      30.353  16.099  12.773  0.00  0.00    -0.270 OA
ATOM      3  N   UNL     1      32.208  16.641  14.045  0.00  0.00    -0.297 N 
ATOM      4  C   UNL     1      32.871  17.306  15.169  0.00  0.00    +0.108 C 
ATOM      5  C   UNL     1      34.018  18.194  14.721  0.00  0.00    +0.020 C 
ATOM      6  C   UNL     1      34.970  17.454  13.800  0.00  0.00    +0.011 C 
ATOM      7  C   UNL     1      34.250  16.774  12.609  0.00  0.00    -0.004 C 
ATOM      8  C   UNL     1      35.315  15.959  11.844  0.00  0.00    +0.020 C 
ATOM      9  C   UNL     1      34.876  15.758  10.410  0.00  0.00    +0.070 C 
ATOM     10  S   UNL     1      34.163  17.344   9.944  0.00  0.00    -0.160 S 
ATOM     11  C   UNL     1      33.678  17.822  11.626  0.00  0.00    +0.077 C 
ATOM     12  C   UNL     1      33.107  15.879  13.162  0.00  0.00    +0.115 C 
ENDROOT
BRANCH   1  16
ATOM     13  C   UNL     1      27.913  19.016  15.815  0.00  0.00    +0.037 A 
ATOM     14  C   UNL     1      28.849  19.661  15.000  0.00  0.00    +0.014 A 
ATOM     15  C   UNL     1      29.880  18.927  14.409  0.00  0.00    +0.014 A 
ATOM     16  C   UNL     1      29.919  17.536  14.546  0.00  0.00    +0.037 A 
ATOM     17  C   UNL     1      29.045  16.908  15.444  0.00  0.00    +0.014 A 
ATOM     18  C   UNL     1      28.050  17.650  16.087  0.00  0.00    +0.014 A 
BRANCH  13  20
ATOM     19  N   UNL     1      25.877  19.028  17.144  0.00  0.00    -0.325 N 
ATOM     20  C   UNL     1      26.764  19.754  16.400  0.00  0.00    +0.242 C 
ATOM     21  O   UNL     1      26.647  20.963  16.267  0.00  0.00    -0.270 OA
ATOM     22  H   UNL     1      25.175  19.564  17.642  0.00  0.00    +0.145 HD
ATOM     23  H   UNL     1      26.097  18.107  17.498  0.00  0.00    +0.145 HD
ENDBRANCH  13  20
ENDBRANCH   1  16
TORSDOF 2
ENDMDL
MODEL 3
REMARK VINA RESULT:      -6.5      4.516      5.503
REMARK  Name = ZINC000583127796
REMARK  2 active torsions:
REMARK  status: ('A' for Active; 'I' for Inactive)
REMARK    1  A    between atoms: C_2  and  C_4
REMARK    2  A    between atoms: C_7  and  C_8
REMARK                            x       y       z     vdW  Elec       q    Type
REMARK                         _______ _______ _______ _____ _____    ______ ____
ROOT
ATOM      1  C   UNL     1      32.144  22.499  14.008  0.00  0.00    +0.247 C 
ATOM      2  O   UNL     1      33.028  21.700  14.311  0.00  0.00    -0.270 OA
ATOM      3  N   UNL     1      32.375  23.606  13.175  0.00  0.00    -0.297 N 
ATOM      4  C   UNL     1      31.385  24.603  12.756  0.00  0.00    +0.108 C 
ATOM      5  C   UNL     1      31.313  24.748  11.247  0.00  0.00    +0.020 C 
ATOM      6  C   UNL     1      32.688  24.959  10.641  0.00  0.00    +0.011 C 
ATOM      7  C   UNL     1      33.713  23.884  11.082  0.00  0.00    -0.004 C 
ATOM      8  C   UNL     1      35.082  24.301  10.500  0.00  0.00    +0.020 C 
ATOM      9  C   UNL     1      35.974  23.086  10.367  0.00  0.00    +0.070 C 
ATOM     10  S   UNL     1      34.871  21.796   9.766  0.00  0.00    -0.160 S 
ATOM     11  C   UNL     1      33.364  22.499  10.491  0.00  0.00    +0.077 C 
ATOM     12  C   UNL     1      33.728  23.817  12.634  0.00  0.00    +0.115 C 
ENDROOT
BRANCH   1  16
ATOM     13  C   UNL     1      28.343  21.399  15.634  0.00  0.00    +0.037 A 
ATOM     14  C   UNL     1      28.748  20.849  14.413  0.00  0.00    +0.014 A 
ATOM     15  C   UNL     1      29.932  21.284  13.812  0.00  0.00    +0.014 A 
ATOM     16  C   UNL     1      30.764  22.192  14.476  0.00  0.00    +0.037 A 
ATOM     17  C   UNL     1      30.306  22.817  15.645  0.00  0.00    +0.014 A 
ATOM     18  C   UNL     1      29.091  22.429  16.216  0.00  0.00    +0.014 A 
BRANCH  13  20
ATOM     19  N   UNL     1      27.121  19.596  16.715  0.00  0.00    -0.325 N 
ATOM     20  C   UNL     1      27.128  20.909  16.334  0.00  0.00    +0.242 C 
ATOM     21  O   UNL     1      26.202  21.658  16.604  0.00  0.00    -0.270 OA
ATOM     22  H   UNL     1      26.345  19.311  17.302  0.00  0.00    +0.145 HD
ATOM     23  H   UNL     1      27.965  19.042  16.756  0.00  0.00    +0.145 HD
ENDBRANCH  13  20
ENDBRANCH   1  16
TORSDOF 2
ENDMDL
MODEL 4
REMARK VINA RESULT:      -6.2      3.777      4.784
REMARK  Name = ZINC000583127796
REMARK  2 active torsions:
REMARK  status: ('A' for Active; 'I' for Inactive)
REMARK    1  A    between atoms: C_2  and  C_4
REMARK    2  A    between atoms: C_7  and  C_8
REMARK                            x       y       z     vdW  Elec       q    Type
REMARK                         _______ _______ _______ _____ _____    ______ ____
ROOT
ATOM      1  C   UNL     1      31.866  20.268  13.691  0.00  0.00    +0.247 C 
ATOM      2  O   UNL     1      32.177  19.892  12.563  0.00  0.00    -0.270 OA
ATOM      3  N   UNL     1      32.636  21.186  14.424  0.00  0.00    -0.297 N 
ATOM      4  C   UNL     1      32.341  21.695  15.766  0.00  0.00    +0.108 C 
ATOM      5  C   UNL     1      32.308  23.212  15.815  0.00  0.00    +0.020 C 
ATOM      6  C   UNL     1      33.552  23.817  15.191  0.00  0.00    +0.011 C 
ATOM      7  C   UNL     1      33.835  23.279  13.767  0.00  0.00    -0.004 C 
ATOM      8  C   UNL     1      35.187  23.876  13.320  0.00  0.00    +0.020 C 
ATOM      9  C   UNL     1      35.262  23.900  11.808  0.00  0.00    +0.070 C 
ATOM     10  S   UNL     1      33.613  24.408  11.295  0.00  0.00    -0.160 S 
ATOM     11  C   UNL     1      32.763  23.759  12.762  0.00  0.00    +0.077 C 
ATOM     12  C   UNL     1      33.864  21.726  13.818  0.00  0.00    +0.115 C 
ENDROOT
BRANCH   1  16
ATOM     13  C   UNL     1      28.231  19.037  15.581  0.00  0.00    +0.037 A 
ATOM     14  C   UNL     1      29.159  18.066  15.189  0.00  0.00    +0.014 A 
ATOM     15  C   UNL     1      30.296  18.441  14.468  0.00  0.00    +0.014 A 
ATOM     16  C   UNL     1      30.560  19.793  14.227  0.00  0.00    +0.037 A 
ATOM     17  C   UNL     1      29.580  20.750  14.528  0.00  0.00    +0.014 A 
ATOM     18  C   UNL     1      28.411  20.369  15.194  0.00  0.00    +0.014 A 
BRANCH  13  20
ATOM     19  N   UNL     1      27.294  18.088  17.614  0.00  0.00    -0.325 N 
ATOM     20  C   UNL     1      27.049  18.682  16.408  0.00  0.00    +0.242 C 
ATOM     21  O   UNL     1      25.914  18.957  16.049  0.00  0.00    -0.270 OA
ATOM     22  H   UNL     1      26.490  17.971  18.220  0.00  0.00    +0.145 HD
ATOM     23  H   UNL     1      28.206  18.107  18.049  0.00  0.00    +0.145 HD
ENDBRANCH  13  20
ENDBRANCH   1  16
TORSDOF 2
ENDMDL
MODEL 5
REMARK VINA RESULT:      -6.1      6.942      7.967
REMARK  Name = ZINC000583127796
REMARK  2 active torsions:
REMARK  status: ('A' for Active; 'I' for Inactive)
REMARK    1  A    between atoms: C_2  and  C_4
REMARK    2  A    between atoms: C_7  and  C_8
REMARK                            x       y       z     vdW  Elec       q    Type
REMARK                         _______ _______ _______ _____ _____    ______ ____
ROOT
ATOM      1  C   UNL     1      33.257  24.904   9.716  0.00  0.00    +0.247 C 
ATOM      2  O   UNL     1      33.664  26.054   9.556  0.00  0.00    -0.270 OA
ATOM      3  N   UNL     1      33.389  23.909   8.733  0.00  0.00    -0.297 N 
ATOM      4  C   UNL     1      32.943  22.518   8.838  0.00  0.00    +0.108 C 
ATOM      5  C   UNL     1      34.062  21.529   8.561  0.00  0.00    +0.020 C 
ATOM      6  C   UNL     1      34.778  21.847   7.262  0.00  0.00    +0.011 C 
ATOM      7  C   UNL     1      35.257  23.317   7.180  0.00  0.00    -0.004 C 
ATOM      8  C   UNL     1      35.840  23.524   5.765  0.00  0.00    +0.020 C 
ATOM      9  C   UNL     1      36.824  24.674   5.779  0.00  0.00    +0.070 C 
ATOM     10  S   UNL     1      37.729  24.458   7.320  0.00  0.00    -0.160 S 
ATOM     11  C   UNL     1      36.392  23.596   8.192  0.00  0.00    +0.077 C 
ATOM     12  C   UNL     1      34.047  24.251   7.461  0.00  0.00    +0.115 C 
ENDROOT
BRANCH   1  16
ATOM     13  C   UNL     1      31.639  23.552  13.438  0.00  0.00    +0.037 A 
ATOM     14  C   UNL     1      30.843  24.327  12.589  0.00  0.00    +0.014 A 
ATOM     15  C   UNL     1      31.391  24.873  11.426  0.00  0.00    +0.014 A 
ATOM     16  C   UNL     1      32.703  24.562  11.056  0.00  0.00    +0.037 A 
ATOM     17  C   UNL     1      33.528  23.874  11.957  0.00  0.00    +0.014 A 
ATOM     18  C   UNL     1      32.999  23.380  13.152  0.00  0.00    +0.014 A 
BRANCH  13  20
ATOM     19  N   UNL     1      29.896  23.406  15.127  0.00  0.00    -0.325 N 
ATOM     20  C   UNL     1      31.070  22.898  14.644  0.00  0.00    +0.242 C 
ATOM     21  O   UNL     1      31.599  21.920  15.149  0.00  0.00    -0.270 OA
ATOM     22  H   UNL     1      29.456  22.872  15.867  0.00  0.00    +0.145 HD
ATOM     23  H   UNL     1      29.306  24.015  14.578  0.00  0.00    +0.145 HD
ENDBRANCH  13  20
ENDBRANCH   1  16
TORSDOF 2
ENDMDL
MODEL 6
REMARK VINA RESULT:      -6.0      6.841      9.072
REMARK  Name = ZINC000583127796
REMARK  2 active torsions:
REMARK  status: ('A' for Active; 'I' for Inactive)
REMARK    1  A    between atoms: C_2  and  C_4
REMARK    2  A    between atoms: C_7  and  C_8
REMARK                            x       y       z     vdW  Elec       q    Type
REMARK                         _______ _______ _______ _____ _____    ______ ____
ROOT
ATOM      1  C   UNL     1      32.275  24.515  11.197  0.00  0.00    +0.247 C 
ATOM      2  O   UNL     1      31.134  24.968  11.268  0.00  0.00    -0.270 OA
ATOM      3  N   UNL     1      32.953  23.989  12.309  0.00  0.00    -0.297 N 
ATOM      4  C   UNL     1      34.305  23.424  12.317  0.00  0.00    +0.108 C 
ATOM      5  C   UNL     1      34.340  22.018  12.891  0.00  0.00    +0.020 C 
ATOM      6  C   UNL     1      33.639  21.947  14.235  0.00  0.00    +0.011 C 
ATOM      7  C   UNL     1      32.206  22.533  14.199  0.00  0.00    -0.004 C 
ATOM      8  C   UNL     1      31.674  22.514  15.649  0.00  0.00    +0.020 C 
ATOM      9  C   UNL     1      30.161  22.500  15.640  0.00  0.00    +0.070 C 
ATOM     10  S   UNL     1      29.740  21.374  14.301  0.00  0.00    -0.160 S 
ATOM     11  C   UNL     1      31.260  21.653  13.350  0.00  0.00    +0.077 C 
ATOM     12  C   UNL     1      32.270  23.971  13.613  0.00  0.00    +0.115 C 
ENDROOT
BRANCH   1  16
ATOM     13  C   UNL     1      34.263  24.008   7.443  0.00  0.00    +0.037 A 
ATOM     14  C   UNL     1      34.564  25.125   8.229  0.00  0.00    +0.014 A 
ATOM     15  C   UNL     1      33.842  25.367   9.401  0.00  0.00    +0.014 A 
ATOM     16  C   UNL     1      32.891  24.442   9.843  0.00  0.00    +0.037 A 
ATOM     17  C   UNL     1      32.519  23.382   9.003  0.00  0.00    +0.014 A 
ATOM     18  C   UNL     1      33.197  23.173   7.799  0.00  0.00    +0.014 A 
BRANCH  13  20
ATOM     19  N   UNL     1      35.313  24.709   5.365  0.00  0.00    -0.325 N 
ATOM     20  C   UNL     1      35.057  23.683   6.230  0.00  0.00    +0.242 C 
ATOM     21  O   UNL     1      35.505  22.562   6.043  0.00  0.00    -0.270 OA
ATOM     22  H   UNL     1      35.961  24.502   4.614  0.00  0.00    +0.145 HD
ATOM     23  H   UNL     1      35.201  25.678   5.630  0.00  0.00    +0.145 HD
ENDBRANCH  13  20
ENDBRANCH   1  16
TORSDOF 2
ENDMDL
MODEL 7
REMARK VINA RESULT:      -5.8      4.917      6.161
REMARK  Name = ZINC000583127796
REMARK  2 active torsions:
REMARK  status: ('A' for Active; 'I' for Inactive)
REMARK    1  A    between atoms: C_2  and  C_4
REMARK    2  A    between atoms: C_7  and  C_8
REMARK                            x       y       z     vdW  Elec       q    Type
REMARK                         _______ _______ _______ _____ _____    ______ ____
ROOT
ATOM      1  C   UNL     1      32.560  21.776  12.882  0.00  0.00    +0.247 C 
ATOM      2  O   UNL     1      33.484  21.152  12.364  0.00  0.00    -0.270 OA
ATOM      3  N   UNL     1      32.404  23.164  12.733  0.00  0.00    -0.297 N 
ATOM      4  C   UNL     1      31.335  23.987  13.304  0.00  0.00    +0.108 C 
ATOM      5  C   UNL     1      30.608  24.803  12.251  0.00  0.00    +0.020 C 
ATOM      6  C   UNL     1      31.577  25.579  11.379  0.00  0.00    +0.011 C 
ATOM      7  C   UNL     1      32.688  24.688  10.771  0.00  0.00    -0.004 C 
ATOM      8  C   UNL     1      33.663  25.626  10.028  0.00  0.00    +0.020 C 
ATOM      9  C   UNL     1      34.402  24.854   8.956  0.00  0.00    +0.070 C 
ATOM     10  S   UNL     1      33.144  23.786   8.239  0.00  0.00    -0.160 S 
ATOM     11  C   UNL     1      32.110  23.703   9.729  0.00  0.00    +0.077 C 
ATOM     12  C   UNL     1      33.383  23.905  11.920  0.00  0.00    +0.115 C 
ENDROOT
BRANCH   1  16
ATOM     13  C   UNL     1      29.554  19.277  14.618  0.00  0.00    +0.037 A 
ATOM     14  C   UNL     1      29.228  20.590  14.263  0.00  0.00    +0.014 A 
ATOM     15  C   UNL     1      30.224  21.455  13.803  0.00  0.00    +0.014 A 
ATOM     16  C   UNL     1      31.524  20.981  13.599  0.00  0.00    +0.037 A 
ATOM     17  C   UNL     1      31.870  19.701  14.054  0.00  0.00    +0.014 A 
ATOM     18  C   UNL     1      30.887  18.854  14.574  0.00  0.00    +0.014 A 
BRANCH  13  20
ATOM     19  N   UNL     1      28.602  17.040  14.552  0.00  0.00    -0.325 N 
ATOM     20  C   UNL     1      28.507  18.312  15.043  0.00  0.00    +0.242 C 
ATOM     21  O   UNL     1      27.634  18.627  15.837  0.00  0.00    -0.270 OA
ATOM     22  H   UNL     1      27.961  16.364  14.950  0.00  0.00    +0.145 HD
ATOM     23  H   UNL     1      29.450  16.687  14.133  0.00  0.00    +0.145 HD
ENDBRANCH  13  20
ENDBRANCH   1  16
TORSDOF 2
ENDMDL
MODEL 8
REMARK VINA RESULT:      -5.8      6.457      8.075
REMARK  Name = ZINC000583127796
REMARK  2 active torsions:
REMARK  status: ('A' for Active; 'I' for Inactive)
REMARK    1  A    between atoms: C_2  and  C_4
REMARK    2  A    between atoms: C_7  and  C_8
REMARK                            x       y       z     vdW  Elec       q    Type
REMARK                         _______ _______ _______ _____ _____    ______ ____
ROOT
ATOM      1  C   UNL     1      33.134  23.633  18.665  0.00  0.00    +0.247 C 
ATOM      2  O   UNL     1      33.298  24.786  19.058  0.00  0.00    -0.270 OA
ATOM      3  N   UNL     1      34.029  22.594  18.969  0.00  0.00    -0.297 N 
ATOM      4  C   UNL     1      33.913  21.194  18.552  0.00  0.00    +0.108 C 
ATOM      5  C   UNL     1      33.967  20.234  19.727  0.00  0.00    +0.020 C 
ATOM      6  C   UNL     1      35.164  20.510  20.617  0.00  0.00    +0.011 C 
ATOM      7  C   UNL     1      35.258  21.991  21.061  0.00  0.00    -0.004 C 
ATOM      8  C   UNL     1      36.582  22.145  21.841  0.00  0.00    +0.020 C 
ATOM      9  C   UNL     1      36.489  23.329  22.779  0.00  0.00    +0.070 C 
ATOM     10  S   UNL     1      34.823  23.226  23.452  0.00  0.00    -0.160 S 
ATOM     11  C   UNL     1      34.108  22.362  22.026  0.00  0.00    +0.077 C 
ATOM     12  C   UNL     1      35.209  22.893  19.797  0.00  0.00    +0.115 C 
ENDROOT
BRANCH   1  16
ATOM     13  C   UNL     1      29.514  22.440  16.723  0.00  0.00    +0.037 A 
ATOM     14  C   UNL     1      30.691  22.540  15.972  0.00  0.00    +0.014 A 
ATOM     15  C   UNL     1      31.854  23.038  16.564  0.00  0.00    +0.014 A 
ATOM     16  C   UNL     1      31.872  23.340  17.929  0.00  0.00    +0.037 A 
ATOM     17  C   UNL     1      30.670  23.339  18.651  0.00  0.00    +0.014 A 
ATOM     18  C   UNL     1      29.490  22.901  18.044  0.00  0.00    +0.014 A 
BRANCH  13  20
ATOM     19  N   UNL     1      27.097  22.176  16.746  0.00  0.00    -0.325 N 
ATOM     20  C   UNL     1      28.280  21.849  16.145  0.00  0.00    +0.242 C 
ATOM     21  O   UNL     1      28.317  21.146  15.146  0.00  0.00    -0.270 OA
ATOM     22  H   UNL     1      26.259  21.872  16.265  0.00  0.00    +0.145 HD
ATOM     23  H   UNL     1      27.013  22.959  17.379  0.00  0.00    +0.145 HD
ENDBRANCH  13  20
ENDBRANCH   1  16
TORSDOF 2
ENDMDL
MODEL 9
REMARK VINA RESULT:      -5.8      6.694      7.702
REMARK  Name = ZINC000583127796
REMARK  2 active torsions:
REMARK  status: ('A' for Active; 'I' for Inactive)
REMARK    1  A    between atoms: C_2  and  C_4
REMARK    2  A    between atoms: C_7  and  C_8
REMARK                            x       y       z     vdW  Elec       q    Type
REMARK                         _______ _______ _______ _____ _____    ______ ____
ROOT
ATOM      1  C   UNL     1      33.858  24.481  10.921  0.00  0.00    +0.247 C 
ATOM      2  O   UNL     1      34.874  24.891  11.480  0.00  0.00    -0.270 OA
ATOM      3  N   UNL     1      33.682  24.537   9.529  0.00  0.00    -0.297 N 
ATOM      4  C   UNL     1      32.514  24.069   8.779  0.00  0.00    +0.108 C 
ATOM      5  C   UNL     1      32.885  23.084   7.685  0.00  0.00    +0.020 C 
ATOM      6  C   UNL     1      34.001  23.619   6.808  0.00  0.00    +0.011 C 
ATOM      7  C   UNL     1      35.233  24.091   7.619  0.00  0.00    -0.004 C 
ATOM      8  C   UNL     1      36.219  24.725   6.614  0.00  0.00    +0.020 C 
ATOM      9  C   UNL     1      37.625  24.675   7.174  0.00  0.00    +0.070 C 
ATOM     10  S   UNL     1      37.732  23.051   7.943  0.00  0.00    -0.160 S 
ATOM     11  C   UNL     1      35.957  22.899   8.286  0.00  0.00    +0.077 C 
ATOM     12  C   UNL     1      34.760  25.102   8.700  0.00  0.00    +0.115 C 
ENDROOT
BRANCH   1  16
ATOM     13  C   UNL     1      31.076  22.759  13.677  0.00  0.00    +0.037 A 
ATOM     14  C   UNL     1      32.123  21.973  13.183  0.00  0.00    +0.014 A 
ATOM     15  C   UNL     1      32.970  22.483  12.196  0.00  0.00    +0.014 A 
ATOM     16  C   UNL     1      32.839  23.810  11.776  0.00  0.00    +0.037 A 
ATOM     17  C   UNL     1      31.729  24.558  12.194  0.00  0.00    +0.014 A 
ATOM     18  C   UNL     1      30.842  24.028  13.135  0.00  0.00    +0.014 A 
BRANCH  13  20
ATOM     19  N   UNL     1      29.635  23.222  15.580  0.00  0.00    -0.325 N 
ATOM     20  C   UNL     1      30.201  22.274  14.775  0.00  0.00    +0.242 C 
ATOM     21  O   UNL     1      29.957  21.085  14.918  0.00  0.00    -0.270 OA
ATOM     22  H   UNL     1      28.943  22.886  16.239  0.00  0.00    +0.145 HD
ATOM     23  H   UNL     1      29.593  24.197  15.317  0.00  0.00    +0.145 HD
ENDBRANCH  13  20
ENDBRANCH   1  16
TORSDOF 2
ENDMDL
