MODEL 1
REMARK VINA RESULT:      -8.0      0.000      0.000
REMARK  Name = ZINC000583127796
REMARK  2 active torsions:
REMARK  status: ('A' for Active; 'I' for Inactive)
REMARK    1  A    between atoms: C_2  and  C_4
REMARK    2  A    between atoms: C_7  and  C_8
REMARK                            x       y       z     vdW  Elec       q    Type
REMARK                         _______ _______ _______ _____ _____    ______ ____
ROOT
ATOM      1  C   UNL     1      29.790  17.944  16.596  0.00  0.00    +0.247 C 
ATOM      2  O   UNL     1      30.403  17.384  17.507  0.00  0.00    -0.270 OA
ATOM      3  N   UNL     1      29.321  19.263  16.691  0.00  0.00    -0.297 N 
ATOM      4  C   UNL     1      28.584  20.006  15.667  0.00  0.00    +0.108 C 
ATOM      5  C   UNL     1      29.237  21.332  15.323  0.00  0.00    +0.020 C 
ATOM      6  C   UNL     1      29.551  22.142  16.567  0.00  0.00    +0.011 C 
ATOM      7  C   UNL     1      30.345  21.343  17.629  0.00  0.00    -0.004 C 
ATOM      8  C   UNL     1      30.461  22.248  18.875  0.00  0.00    +0.020 C 
ATOM      9  C   UNL     1      31.666  21.845  19.696  0.00  0.00    +0.070 C 
ATOM     10  S   UNL     1      32.933  21.485  18.470  0.00  0.00    -0.160 S 
ATOM     11  C   UNL     1      31.779  21.031  17.146  0.00  0.00    +0.077 C 
ATOM     12  C   UNL     1      29.587  20.022  17.929  0.00  0.00    +0.115 C 
ENDROOT
BRANCH   1  16
ATOM     13  C   UNL     1      29.276  15.470  13.140  0.00  0.00    +0.037 A 
ATOM     14  C   UNL     1      30.546  15.975  13.435  0.00  0.00    +0.014 A 
ATOM     15  C   UNL     1      30.705  16.878  14.488  0.00  0.00    +0.014 A 
ATOM     16  C   UNL     1      29.625  17.189  15.316  0.00  0.00    +0.037 A 
ATOM     17  C   UNL     1      28.339  16.760  14.960  0.00  0.00    +0.014 A 
ATOM     18  C   UNL     1      28.164  15.909  13.864  0.00  0.00    +0.014 A 
BRANCH  13  20
ATOM     19  N   UNL     1      29.074  13.150  12.441  0.00  0.00    -0.325 N 
ATOM     20  C   UNL     1      29.082  14.463  12.061  0.00  0.00    +0.242 C 
ATOM     21  O   UNL     1      28.885  14.794  10.904  0.00  0.00    -0.270 OA
ATOM     22  H   UNL     1      28.819  12.483  11.723  0.00  0.00    +0.145 HD
ATOM     23  H   UNL     1      28.947  12.865  13.403  0.00  0.00    +0.145 HD
ENDBRANCH  13  20
ENDBRANCH   1  16
TORSDOF 2
ENDMDL
MODEL 2
REMARK VINA RESULT:      -7.8      1.289      1.868
REMARK  Name = ZINC000583127796
REMARK  2 active torsions:
REMARK  status: ('A' for Active; 'I' for Inactive)
REMARK    1  A    between atoms: C_2  and  C_4
REMARK    2  A    between atoms: C_7  and  C_8
REMARK                            x       y       z     vdW  Elec       q    Type
REMARK                         _______ _______ _______ _____ _____    ______ ____
ROOT
ATOM      1  C   UNL     1      30.330  18.045  16.204  0.00  0.00    +0.247 C 
ATOM      2  O   UNL     1      31.527  18.287  16.371  0.00  0.00    -0.270 OA
ATOM      3  N   UNL     1      29.312  18.731  16.884  0.00  0.00    -0.297 N 
ATOM      4  C   UNL     1      27.871  18.510  16.754  0.00  0.00    +0.108 C 
ATOM      5  C   UNL     1      27.114  19.781  16.414  0.00  0.00    +0.020 C 
ATOM      6  C   UNL     1      27.482  20.920  17.346  0.00  0.00    +0.011 C 
ATOM      7  C   UNL     1      29.009  21.146  17.456  0.00  0.00    -0.004 C 
ATOM      8  C   UNL     1      29.224  22.230  18.534  0.00  0.00    +0.020 C 
ATOM      9  C   UNL     1      30.545  22.931  18.306  0.00  0.00    +0.070 C 
ATOM     10  S   UNL     1      30.641  23.118  16.519  0.00  0.00    -0.160 S 
ATOM     11  C   UNL     1      29.597  21.684  16.132  0.00  0.00    +0.077 C 
ATOM     12  C   UNL     1      29.688  19.801  17.828  0.00  0.00    +0.115 C 
ENDROOT
BRANCH   1  16
ATOM     13  C   UNL     1      29.384  15.403  12.971  0.00  0.00    +0.037 A 
ATOM     14  C   UNL     1      28.352  15.898  13.772  0.00  0.00    +0.014 A 
ATOM     15  C   UNL     1      28.655  16.662  14.900  0.00  0.00    +0.014 A 
ATOM     16  C   UNL     1      29.975  17.029  15.166  0.00  0.00    +0.037 A 
ATOM     17  C   UNL     1      31.013  16.454  14.420  0.00  0.00    +0.014 A 
ATOM     18  C   UNL     1      30.716  15.630  13.329  0.00  0.00    +0.014 A 
BRANCH  13  20
ATOM     19  N   UNL     1      28.737  13.323  11.891  0.00  0.00    -0.325 N 
ATOM     20  C   UNL     1      29.093  14.633  11.731  0.00  0.00    +0.242 C 
ATOM     21  O   UNL     1      29.119  15.157  10.630  0.00  0.00    -0.270 OA
ATOM     22  H   UNL     1      28.423  12.844  11.056  0.00  0.00    +0.145 HD
ATOM     23  H   UNL     1      28.434  12.949  12.780  0.00  0.00    +0.145 HD
ENDBRANCH  13  20
ENDBRANCH   1  16
TORSDOF 2
ENDMDL
MODEL 3
REMARK VINA RESULT:      -7.1      3.370      6.794
REMARK  Name = ZINC000583127796
REMARK  2 active torsions:
REMARK  status: ('A' for Active; 'I' for Inactive)
REMARK    1  A    between atoms: C_2  and  C_4
REMARK    2  A    between atoms: C_7  and  C_8
REMARK                            x       y       z     vdW  Elec       q    Type
REMARK                         _______ _______ _______ _____ _____    ______ ____
ROOT
ATOM      1  C   UNL     1      29.368  17.755  15.078  0.00  0.00    +0.247 C 
ATOM      2  O   UNL     1      28.730  17.088  14.262  0.00  0.00    -0.270 OA
ATOM      3  N   UNL     1      30.648  17.392  15.525  0.00  0.00    -0.297 N 
ATOM      4  C   UNL     1      31.476  18.117  16.491  0.00  0.00    +0.108 C 
ATOM      5  C   UNL     1      32.857  18.438  15.951  0.00  0.00    +0.020 C 
ATOM      6  C   UNL     1      33.529  17.212  15.361  0.00  0.00    +0.011 C 
ATOM      7  C   UNL     1      32.642  16.470  14.331  0.00  0.00    -0.004 C 
ATOM      8  C   UNL     1      33.399  15.185  13.934  0.00  0.00    +0.020 C 
ATOM      9  C   UNL     1      32.950  14.723  12.565  0.00  0.00    +0.070 C 
ATOM     10  S   UNL     1      32.786  16.244  11.619  0.00  0.00    -0.160 S 
ATOM     11  C   UNL     1      32.445  17.309  13.048  0.00  0.00    +0.077 C 
ATOM     12  C   UNL     1      31.267  16.167  14.982  0.00  0.00    +0.115 C 
ENDROOT
BRANCH   1  16
ATOM     13  C   UNL     1      27.933  21.488  16.606  0.00  0.00    +0.037 A 
ATOM     14  C   UNL     1      27.301  20.304  16.994  0.00  0.00    +0.014 A 
ATOM     15  C   UNL     1      27.680  19.092  16.413  0.00  0.00    +0.014 A 
ATOM     16  C   UNL     1      28.762  19.044  15.532  0.00  0.00    +0.037 A 
ATOM     17  C   UNL     1      29.329  20.241  15.072  0.00  0.00    +0.014 A 
ATOM     18  C   UNL     1      28.904  21.464  15.601  0.00  0.00    +0.014 A 
BRANCH  13  20
ATOM     19  N   UNL     1      28.629  23.498  17.785  0.00  0.00    -0.325 N 
ATOM     20  C   UNL     1      27.592  22.788  17.246  0.00  0.00    +0.242 C 
ATOM     21  O   UNL     1      26.453  23.223  17.244  0.00  0.00    -0.270 OA
ATOM     22  H   UNL     1      28.405  24.432  18.107  0.00  0.00    +0.145 HD
ATOM     23  H   UNL     1      29.594  23.307  17.553  0.00  0.00    +0.145 HD
ENDBRANCH  13  20
ENDBRANCH   1  16
TORSDOF 2
ENDMDL
MODEL 4
REMARK VINA RESULT:      -6.7      5.704      7.354
REMARK  Name = ZINC000583127796
REMARK  2 active torsions:
REMARK  status: ('A' for Active; 'I' for Inactive)
REMARK    1  A    between atoms: C_2  and  C_4
REMARK    2  A    between atoms: C_7  and  C_8
REMARK                            x       y       z     vdW  Elec       q    Type
REMARK                         _______ _______ _______ _____ _____    ______ ____
ROOT
ATOM      1  C   UNL     1      32.686  23.037  14.213  0.00  0.00    +0.247 C 
ATOM      2  O   UNL     1      33.417  23.624  15.013  0.00  0.00    -0.270 OA
ATOM      3  N   UNL     1      31.832  21.989  14.588  0.00  0.00    -0.297 N 
ATOM      4  C   UNL     1      30.934  21.235  13.711  0.00  0.00    +0.108 C 
ATOM      5  C   UNL     1      29.499  21.235  14.204  0.00  0.00    +0.020 C 
ATOM      6  C   UNL     1      29.408  20.840  15.667  0.00  0.00    +0.011 C 
ATOM      7  C   UNL     1      30.353  21.662  16.578  0.00  0.00    -0.004 C 
ATOM      8  C   UNL     1      30.249  21.053  17.993  0.00  0.00    +0.020 C 
ATOM      9  C   UNL     1      30.626  22.089  19.029  0.00  0.00    +0.070 C 
ATOM     10  S   UNL     1      29.880  23.610  18.424  0.00  0.00    -0.160 S 
ATOM     11  C   UNL     1      29.905  23.137  16.672  0.00  0.00    +0.077 C 
ATOM     12  C   UNL     1      31.793  21.580  16.006  0.00  0.00    +0.115 C 
ENDROOT
BRANCH   1  16
ATOM     13  C   UNL     1      32.948  24.674  10.266  0.00  0.00    +0.037 A 
ATOM     14  C   UNL     1      31.951  25.134  11.130  0.00  0.00    +0.014 A 
ATOM     15  C   UNL     1      31.778  24.526  12.375  0.00  0.00    +0.014 A 
ATOM     16  C   UNL     1      32.668  23.541  12.805  0.00  0.00    +0.037 A 
ATOM     17  C   UNL     1      33.603  23.016  11.902  0.00  0.00    +0.014 A 
ATOM     18  C   UNL     1      33.733  23.576  10.627  0.00  0.00    +0.014 A 
BRANCH  13  20
ATOM     19  N   UNL     1      32.506  24.847   7.881  0.00  0.00    -0.325 N 
ATOM     20  C   UNL     1      33.194  25.336   8.956  0.00  0.00    +0.242 C 
ATOM     21  O   UNL     1      33.933  26.301   8.855  0.00  0.00    -0.270 OA
ATOM     22  H   UNL     1      32.586  25.380   7.023  0.00  0.00    +0.145 HD
ATOM     23  H   UNL     1      31.693  24.255   7.983  0.00  0.00    +0.145 HD
ENDBRANCH  13  20
ENDBRANCH   1  16
TORSDOF 2
ENDMDL
MODEL 5
REMARK VINA RESULT:      -6.7      2.020      2.980
REMARK  Name = ZINC000583127796
REMARK  2 active torsions:
REMARK  status: ('A' for Active; 'I' for Inactive)
REMARK    1  A    between atoms: C_2  and  C_4
REMARK    2  A    between atoms: C_7  and  C_8
REMARK                            x       y       z     vdW  Elec       q    Type
REMARK                         _______ _______ _______ _____ _____    ______ ____
ROOT
ATOM      1  C   UNL     1      29.903  20.100  17.928  0.00  0.00    +0.247 C 
ATOM      2  O   UNL     1      29.833  20.034  19.157  0.00  0.00    -0.270 OA
ATOM      3  N   UNL     1      30.559  21.143  17.257  0.00  0.00    -0.297 N 
ATOM      4  C   UNL     1      30.689  21.305  15.807  0.00  0.00    +0.108 C 
ATOM      5  C   UNL     1      32.132  21.465  15.365  0.00  0.00    +0.020 C 
ATOM      6  C   UNL     1      32.853  22.529  16.172  0.00  0.00    +0.011 C 
ATOM      7  C   UNL     1      32.716  22.328  17.701  0.00  0.00    -0.004 C 
ATOM      8  C   UNL     1      33.375  23.552  18.373  0.00  0.00    +0.020 C 
ATOM      9  C   UNL     1      33.823  23.194  19.772  0.00  0.00    +0.070 C 
ATOM     10  S   UNL     1      34.492  21.532  19.609  0.00  0.00    -0.160 S 
ATOM     11  C   UNL     1      33.478  21.070  18.176  0.00  0.00    +0.077 C 
ATOM     12  C   UNL     1      31.211  22.200  18.055  0.00  0.00    +0.115 C 
ENDROOT
BRANCH   1  16
ATOM     13  C   UNL     1      28.441  16.975  15.393  0.00  0.00    +0.037 A 
ATOM     14  C   UNL     1      27.572  17.996  15.788  0.00  0.00    +0.014 A 
ATOM     15  C   UNL     1      28.000  18.954  16.709  0.00  0.00    +0.014 A 
ATOM     16  C   UNL     1      29.325  18.963  17.147  0.00  0.00    +0.037 A 
ATOM     17  C   UNL     1      30.164  17.886  16.826  0.00  0.00    +0.014 A 
ATOM     18  C   UNL     1      29.716  16.886  15.958  0.00  0.00    +0.014 A 
BRANCH  13  20
ATOM     19  N   UNL     1      28.593  16.098  13.130  0.00  0.00    -0.325 N 
ATOM     20  C   UNL     1      28.034  15.972  14.371  0.00  0.00    +0.242 C 
ATOM     21  O   UNL     1      27.280  15.052  14.642  0.00  0.00    -0.270 OA
ATOM     22  H   UNL     1      28.406  15.343  12.482  0.00  0.00    +0.145 HD
ATOM     23  H   UNL     1      29.417  16.659  12.962  0.00  0.00    +0.145 HD
ENDBRANCH  13  20
ENDBRANCH   1  16
TORSDOF 2
ENDMDL
MODEL 6
REMARK VINA RESULT:      -6.5      2.426      3.317
REMARK  Name = ZINC000583127796
REMARK  2 active torsions:
REMARK  status: ('A' for Active; 'I' for Inactive)
REMARK    1  A    between atoms: C_2  and  C_4
REMARK    2  A    between atoms: C_7  and  C_8
REMARK                            x       y       z     vdW  Elec       q    Type
REMARK                         _______ _______ _______ _____ _____    ______ ____
ROOT
ATOM      1  C   UNL     1      31.608  18.232  14.786  0.00  0.00    +0.247 C 
ATOM      2  O   UNL     1      31.741  19.364  14.316  0.00  0.00    -0.270 OA
ATOM      3  N   UNL     1      31.316  17.998  16.139  0.00  0.00    -0.297 N 
ATOM      4  C   UNL     1      31.144  16.695  16.784  0.00  0.00    +0.108 C 
ATOM      5  C   UNL     1      29.823  16.577  17.521  0.00  0.00    +0.020 C 
ATOM      6  C   UNL     1      29.587  17.758  18.444  0.00  0.00    +0.011 C 
ATOM      7  C   UNL     1      29.758  19.125  17.737  0.00  0.00    -0.004 C 
ATOM      8  C   UNL     1      29.627  20.211  18.827  0.00  0.00    +0.020 C 
ATOM      9  C   UNL     1      29.187  21.517  18.205  0.00  0.00    +0.070 C 
ATOM     10  S   UNL     1      27.963  21.031  16.979  0.00  0.00    -0.160 S 
ATOM     11  C   UNL     1      28.637  19.369  16.702  0.00  0.00    +0.077 C 
ATOM     12  C   UNL     1      31.142  19.156  17.037  0.00  0.00    +0.115 C 
ENDROOT
BRANCH   1  16
ATOM     13  C   UNL     1      31.784  14.710  12.359  0.00  0.00    +0.037 A 
ATOM     14  C   UNL     1      32.954  15.437  12.592  0.00  0.00    +0.014 A 
ATOM     15  C   UNL     1      32.892  16.650  13.280  0.00  0.00    +0.014 A 
ATOM     16  C   UNL     1      31.686  17.082  13.834  0.00  0.00    +0.037 A 
ATOM     17  C   UNL     1      30.500  16.403  13.517  0.00  0.00    +0.014 A 
ATOM     18  C   UNL     1      30.550  15.223  12.769  0.00  0.00    +0.014 A 
BRANCH  13  20
ATOM     19  N   UNL     1      30.833  12.501  12.000  0.00  0.00    -0.325 N 
ATOM     20  C   UNL     1      31.823  13.387  11.679  0.00  0.00    +0.242 C 
ATOM     21  O   UNL     1      32.665  13.124  10.837  0.00  0.00    -0.270 OA
ATOM     22  H   UNL     1      30.797  11.655  11.444  0.00  0.00    +0.145 HD
ATOM     23  H   UNL     1      29.980  12.786  12.463  0.00  0.00    +0.145 HD
ENDBRANCH  13  20
ENDBRANCH   1  16
TORSDOF 2
ENDMDL
MODEL 7
REMARK VINA RESULT:      -6.5      3.226      7.555
REMARK  Name = ZINC000583127796
REMARK  2 active torsions:
REMARK  status: ('A' for Active; 'I' for Inactive)
REMARK    1  A    between atoms: C_2  and  C_4
REMARK    2  A    between atoms: C_7  and  C_8
REMARK                            x       y       z     vdW  Elec       q    Type
REMARK                         _______ _______ _______ _____ _____    ______ ____
ROOT
ATOM      1  C   UNL     1      30.403  20.442  15.741  0.00  0.00    +0.247 C 
ATOM      2  O   UNL     1      30.527  20.661  14.534  0.00  0.00    -0.270 OA
ATOM      3  N   UNL     1      29.529  19.471  16.254  0.00  0.00    -0.297 N 
ATOM      4  C   UNL     1      29.314  19.145  17.664  0.00  0.00    +0.108 C 
ATOM      5  C   UNL     1      29.510  17.670  17.960  0.00  0.00    +0.020 C 
ATOM      6  C   UNL     1      28.727  16.795  16.998  0.00  0.00    +0.011 C 
ATOM      7  C   UNL     1      28.983  17.147  15.512  0.00  0.00    -0.004 C 
ATOM      8  C   UNL     1      28.020  16.276  14.676  0.00  0.00    +0.020 C 
ATOM      9  C   UNL     1      28.572  16.091  13.279  0.00  0.00    +0.070 C 
ATOM     10  S   UNL     1      30.337  15.854  13.532  0.00  0.00    -0.160 S 
ATOM     11  C   UNL     1      30.424  16.787  15.086  0.00  0.00    +0.077 C 
ATOM     12  C   UNL     1      28.733  18.665  15.308  0.00  0.00    +0.115 C 
ENDROOT
BRANCH   1  16
ATOM     13  C   UNL     1      32.822  22.399  18.682  0.00  0.00    +0.037 A 
ATOM     14  C   UNL     1      31.738  23.083  18.125  0.00  0.00    +0.014 A 
ATOM     15  C   UNL     1      31.014  22.503  17.081  0.00  0.00    +0.014 A 
ATOM     16  C   UNL     1      31.297  21.200  16.670  0.00  0.00    +0.037 A 
ATOM     17  C   UNL     1      32.442  20.556  17.160  0.00  0.00    +0.014 A 
ATOM     18  C   UNL     1      33.211  21.163  18.158  0.00  0.00    +0.014 A 
BRANCH  13  20
ATOM     19  N   UNL     1      33.277  22.467  21.069  0.00  0.00    -0.325 N 
ATOM     20  C   UNL     1      33.578  22.964  19.832  0.00  0.00    +0.242 C 
ATOM     21  O   UNL     1      34.461  23.791  19.675  0.00  0.00    -0.270 OA
ATOM     22  H   UNL     1      33.879  22.767  21.826  0.00  0.00    +0.145 HD
ATOM     23  H   UNL     1      32.771  21.601  21.196  0.00  0.00    +0.145 HD
ENDBRANCH  13  20
ENDBRANCH   1  16
TORSDOF 2
ENDMDL
MODEL 8
REMARK VINA RESULT:      -6.5      3.791      8.012
REMARK  Name = ZINC000583127796
REMARK  2 active torsions:
REMARK  status: ('A' for Active; 'I' for Inactive)
REMARK    1  A    between atoms: C_2  and  C_4
REMARK    2  A    between atoms: C_7  and  C_8
REMARK                            x       y       z     vdW  Elec       q    Type
REMARK                         _______ _______ _______ _____ _____    ______ ____
ROOT
ATOM      1  C   UNL     1      31.966  20.737  16.926  0.00  0.00    +0.247 C 
ATOM      2  O   UNL     1      32.640  19.760  16.592  0.00  0.00    -0.270 OA
ATOM      3  N   UNL     1      30.603  20.864  16.616  0.00  0.00    -0.297 N 
ATOM      4  C   UNL     1      29.727  21.984  16.966  0.00  0.00    +0.108 C 
ATOM      5  C   UNL     1      28.482  21.541  17.711  0.00  0.00    +0.020 C 
ATOM      6  C   UNL     1      27.774  20.405  16.995  0.00  0.00    +0.011 C 
ATOM      7  C   UNL     1      28.715  19.225  16.650  0.00  0.00    -0.004 C 
ATOM      8  C   UNL     1      27.889  18.226  15.811  0.00  0.00    +0.020 C 
ATOM      9  C   UNL     1      28.479  16.838  15.932  0.00  0.00    +0.070 C 
ATOM     10  S   UNL     1      28.942  16.706  17.666  0.00  0.00    -0.160 S 
ATOM     11  C   UNL     1      29.185  18.486  17.923  0.00  0.00    +0.077 C 
ATOM     12  C   UNL     1      29.941  19.775  15.873  0.00  0.00    +0.115 C 
ENDROOT
BRANCH   1  16
ATOM     13  C   UNL     1      34.211  23.538  19.259  0.00  0.00    +0.037 A 
ATOM     14  C   UNL     1      33.406  22.598  19.909  0.00  0.00    +0.014 A 
ATOM     15  C   UNL     1      32.578  21.759  19.162  0.00  0.00    +0.014 A 
ATOM     16  C   UNL     1      32.636  21.776  17.767  0.00  0.00    +0.037 A 
ATOM     17  C   UNL     1      33.368  22.781  17.121  0.00  0.00    +0.014 A 
ATOM     18  C   UNL     1      34.146  23.670  17.869  0.00  0.00    +0.014 A 
BRANCH  13  20
ATOM     19  N   UNL     1      35.617  23.914  21.207  0.00  0.00    -0.325 N 
ATOM     20  C   UNL     1      35.146  24.408  20.022  0.00  0.00    +0.242 C 
ATOM     21  O   UNL     1      35.517  25.486  19.588  0.00  0.00    -0.270 OA
ATOM     22  H   UNL     1      36.344  24.458  21.656  0.00  0.00    +0.145 HD
ATOM     23  H   UNL     1      35.557  22.934  21.446  0.00  0.00    +0.145 HD
ENDBRANCH  13  20
ENDBRANCH   1  16
TORSDOF 2
ENDMDL
MODEL 9
REMARK VINA RESULT:      -6.5      4.391      8.290
REMARK  Name = ZINC000583127796
REMARK  2 active torsions:
REMARK  status: ('A' for Active; 'I' for Inactive)
REMARK    1  A    between atoms: C_2  and  C_4
REMARK    2  A    between atoms: C_7  and  C_8
REMARK                            x       y       z     vdW  Elec       q    Type
REMARK                         _______ _______ _______ _____ _____    ______ ____
ROOT
ATOM      1  C   UNL     1      32.107  21.998  15.937  0.00  0.00    +0.247 C 
ATOM      2  O   UNL     1      32.498  21.024  15.291  0.00  0.00    -0.270 OA
ATOM      3  N   UNL     1      30.755  22.212  16.248  0.00  0.00    -0.297 N 
ATOM      4  C   UNL     1      30.199  23.337  17.004  0.00  0.00    +0.108 C 
ATOM      5  C   UNL     1      29.356  22.888  18.183  0.00  0.00    +0.020 C 
ATOM      6  C   UNL     1      28.327  21.850  17.775  0.00  0.00    +0.011 C 
ATOM      7  C   UNL     1      28.939  20.662  16.992  0.00  0.00    -0.004 C 
ATOM      8  C   UNL     1      27.762  19.776  16.532  0.00  0.00    +0.020 C 
ATOM      9  C   UNL     1      28.239  18.358  16.308  0.00  0.00    +0.070 C 
ATOM     10  S   UNL     1      29.382  18.059  17.666  0.00  0.00    -0.160 S 
ATOM     11  C   UNL     1      29.846  19.798  17.896  0.00  0.00    +0.077 C 
ATOM     12  C   UNL     1      29.759  21.221  15.799  0.00  0.00    +0.115 C 
ENDROOT
BRANCH   1  16
ATOM     13  C   UNL     1      34.808  24.842  17.651  0.00  0.00    +0.037 A 
ATOM     14  C   UNL     1      34.482  24.942  16.296  0.00  0.00    +0.014 A 
ATOM     15  C   UNL     1      33.699  23.954  15.696  0.00  0.00    +0.014 A 
ATOM     16  C   UNL     1      33.147  22.931  16.469  0.00  0.00    +0.037 A 
ATOM     17  C   UNL     1      33.554  22.779  17.802  0.00  0.00    +0.014 A 
ATOM     18  C   UNL     1      34.395  23.729  18.389  0.00  0.00    +0.014 A 
BRANCH  13  20
ATOM     19  N   UNL     1      36.115  26.890  17.539  0.00  0.00    -0.325 N 
ATOM     20  C   UNL     1      35.594  25.907  18.333  0.00  0.00    +0.242 C 
ATOM     21  O   UNL     1      35.722  25.931  19.546  0.00  0.00    -0.270 OA
ATOM     22  H   UNL     1      36.541  27.671  18.023  0.00  0.00    +0.145 HD
ATOM     23  H   UNL     1      35.792  27.051  16.594  0.00  0.00    +0.145 HD
ENDBRANCH  13  20
ENDBRANCH   1  16
TORSDOF 2
ENDMDL
