MODEL 1
REMARK VINA RESULT:      -7.0      0.000      0.000
REMARK  Name = ZINC000560333501
REMARK  5 active torsions:
REMARK  status: ('A' for Active; 'I' for Inactive)
REMARK    1  A    between atoms: C_2  and  C_3
REMARK    2  A    between atoms: C_7  and  C_8
REMARK    3  A    between atoms: C_8  and  C_9
REMARK    4  A    between atoms: N_11  and  C_12
REMARK    5  A    between atoms: C_12  and  C_13
REMARK                            x       y       z     vdW  Elec       q    Type
REMARK                         _______ _______ _______ _____ _____    ______ ____
ROOT
ATOM      1  C   UNL     1      30.767  20.361  14.562  0.00  0.00    +0.217 C 
ATOM      2  O   UNL     1      31.726  20.440  15.335  0.00  0.00    -0.275 OA
ATOM      3  N   UNL     1      30.704  19.446  13.525  0.00  0.00    -0.315 N 
ATOM      4  H   UNL     1      29.781  19.262  13.153  0.00  0.00    +0.149 HD
ENDROOT
BRANCH   1   5
ATOM      5  C   UNL     1      29.580  21.283  14.703  0.00  0.00    +0.131 C 
BRANCH   5  10
ATOM      6  C   UNL     1      29.827  22.807  18.213  0.00  0.00    +0.052 A 
ATOM      7  C   UNL     1      28.524  22.606  18.684  0.00  0.00    +0.019 A 
ATOM      8  C   UNL     1      27.586  21.961  17.879  0.00  0.00    +0.002 A 
ATOM      9  C   UNL     1      27.945  21.511  16.606  0.00  0.00    +0.004 A 
ATOM     10  C   UNL     1      29.247  21.698  16.120  0.00  0.00    -0.037 A 
ATOM     11  C   UNL     1      30.183  22.358  16.934  0.00  0.00    +0.023 A 
BRANCH   6  13
ATOM     12  N   UNL     1      31.564  24.032  19.700  0.00  0.00    -0.191 NA
ATOM     13  C   UNL     1      30.785  23.488  19.034  0.00  0.00    +0.099 C 
ENDBRANCH   6  13
ENDBRANCH   5  10
ENDBRANCH   1   5
BRANCH   3  14
ATOM     14  C   UNL     1      31.637  18.333  13.535  0.00  0.00    +0.108 C 
BRANCH  14  15
ATOM     15  C   UNL     1      31.184  17.065  14.284  0.00  0.00    +0.011 C 
ATOM     16  C   UNL     1      31.981  16.790  15.556  0.00  0.00    +0.033 C 
ATOM     17  C   UNL     1      33.454  16.588  15.234  0.00  0.00    +0.161 C 
ATOM     18  O   UNL     1      33.686  15.673  14.166  0.00  0.00    -0.373 OA
ATOM     19  C   UNL     1      32.813  15.620  13.000  0.00  0.00    +0.070 C 
ATOM     20  C   UNL     1      33.234  16.420  11.719  0.00  0.00    +0.035 C 
ATOM     21  C   UNL     1      34.028  15.196  11.263  0.00  0.00    +0.006 C 
ATOM     22  C   UNL     1      33.095  14.341  12.141  0.00  0.00    +0.035 C 
ATOM     23  C   UNL     1      31.343  15.816  13.392  0.00  0.00    +0.040 C 
ENDBRANCH  14  15
ENDBRANCH   3  14
TORSDOF 5
ENDMDL
MODEL 2
REMARK VINA RESULT:      -7.0      1.654      2.284
REMARK  Name = ZINC000560333501
REMARK  5 active torsions:
REMARK  status: ('A' for Active; 'I' for Inactive)
REMARK    1  A    between atoms: C_2  and  C_3
REMARK    2  A    between atoms: C_7  and  C_8
REMARK    3  A    between atoms: C_8  and  C_9
REMARK    4  A    between atoms: N_11  and  C_12
REMARK    5  A    between atoms: C_12  and  C_13
REMARK                            x       y       z     vdW  Elec       q    Type
REMARK                         _______ _______ _______ _____ _____    ______ ____
ROOT
ATOM      1  C   UNL     1      31.597  20.871  14.897  0.00  0.00    +0.217 C 
ATOM      2  O   UNL     1      31.324  21.248  13.755  0.00  0.00    -0.275 OA
ATOM      3  N   UNL     1      31.611  19.538  15.272  0.00  0.00    -0.315 N 
ATOM      4  H   UNL     1      32.126  19.321  16.116  0.00  0.00    +0.149 HD
ENDROOT
BRANCH   1   5
ATOM      5  C   UNL     1      31.938  21.866  15.981  0.00  0.00    +0.131 C 
BRANCH   5  10
ATOM      6  C   UNL     1      28.428  22.192  17.490  0.00  0.00    +0.052 A 
ATOM      7  C   UNL     1      28.717  22.832  18.701  0.00  0.00    +0.019 A 
ATOM      8  C   UNL     1      30.033  23.174  19.010  0.00  0.00    +0.002 A 
ATOM      9  C   UNL     1      31.062  22.884  18.113  0.00  0.00    +0.004 A 
ATOM     10  C   UNL     1      30.792  22.250  16.892  0.00  0.00    -0.037 A 
ATOM     11  C   UNL     1      29.464  21.899  16.592  0.00  0.00    +0.023 A 
BRANCH   6  13
ATOM     12  N   UNL     1      25.982  21.533  16.931  0.00  0.00    -0.191 NA
ATOM     13  C   UNL     1      27.078  21.824  17.182  0.00  0.00    +0.099 C 
ENDBRANCH   6  13
ENDBRANCH   5  10
ENDBRANCH   1   5
BRANCH   3  14
ATOM     14  C   UNL     1      31.621  18.532  14.224  0.00  0.00    +0.108 C 
BRANCH  14  15
ATOM     15  C   UNL     1      31.326  17.085  14.660  0.00  0.00    +0.011 C 
ATOM     16  C   UNL     1      32.237  16.587  15.779  0.00  0.00    +0.033 C 
ATOM     17  C   UNL     1      33.693  16.608  15.336  0.00  0.00    +0.161 C 
ATOM     18  O   UNL     1      33.913  16.004  14.064  0.00  0.00    -0.373 OA
ATOM     19  C   UNL     1      32.960  16.152  12.971  0.00  0.00    +0.070 C 
ATOM     20  C   UNL     1      33.219  17.274  11.906  0.00  0.00    +0.035 C 
ATOM     21  C   UNL     1      34.068  16.277  11.118  0.00  0.00    +0.006 C 
ATOM     22  C   UNL     1      33.274  15.151  11.808  0.00  0.00    +0.035 C 
ATOM     23  C   UNL     1      31.514  16.108  13.480  0.00  0.00    +0.040 C 
ENDBRANCH  14  15
ENDBRANCH   3  14
TORSDOF 5
ENDMDL
MODEL 3
REMARK VINA RESULT:      -6.9      4.817      6.521
REMARK  Name = ZINC000560333501
REMARK  5 active torsions:
REMARK  status: ('A' for Active; 'I' for Inactive)
REMARK    1  A    between atoms: C_2  and  C_3
REMARK    2  A    between atoms: C_7  and  C_8
REMARK    3  A    between atoms: C_8  and  C_9
REMARK    4  A    between atoms: N_11  and  C_12
REMARK    5  A    between atoms: C_12  and  C_13
REMARK                            x       y       z     vdW  Elec       q    Type
REMARK                         _______ _______ _______ _____ _____    ______ ____
ROOT
ATOM      1  C   UNL     1      32.470  20.973  13.744  0.00  0.00    +0.217 C 
ATOM      2  O   UNL     1      33.664  20.725  13.930  0.00  0.00    -0.275 OA
ATOM      3  N   UNL     1      32.025  21.912  12.829  0.00  0.00    -0.315 N 
ATOM      4  H   UNL     1      31.057  21.826  12.542  0.00  0.00    +0.149 HD
ENDROOT
BRANCH   1   5
ATOM      5  C   UNL     1      31.398  20.251  14.526  0.00  0.00    +0.131 C 
BRANCH   5  10
ATOM      6  C   UNL     1      28.647  21.773  16.722  0.00  0.00    +0.052 A 
ATOM      7  C   UNL     1      29.410  22.519  17.627  0.00  0.00    +0.019 A 
ATOM      8  C   UNL     1      30.799  22.545  17.508  0.00  0.00    +0.002 A 
ATOM      9  C   UNL     1      31.430  21.833  16.486  0.00  0.00    +0.004 A 
ATOM     10  C   UNL     1      30.682  21.086  15.566  0.00  0.00    -0.037 A 
ATOM     11  C   UNL     1      29.283  21.056  15.698  0.00  0.00    +0.023 A 
BRANCH   6  13
ATOM     12  N   UNL     1      26.065  21.699  16.958  0.00  0.00    -0.191 NA
ATOM     13  C   UNL     1      27.221  21.730  16.856  0.00  0.00    +0.099 C 
ENDBRANCH   6  13
ENDBRANCH   5  10
ENDBRANCH   1   5
BRANCH   3  14
ATOM     14  C   UNL     1      32.962  22.391  11.829  0.00  0.00    +0.108 C 
BRANCH  14  15
ATOM     15  C   UNL     1      32.357  23.131  10.621  0.00  0.00    +0.011 C 
ATOM     16  C   UNL     1      32.705  22.493   9.278  0.00  0.00    +0.033 C 
ATOM     17  C   UNL     1      34.211  22.488   9.061  0.00  0.00    +0.161 C 
ATOM     18  O   UNL     1      34.830  23.748   9.311  0.00  0.00    -0.373 OA
ATOM     19  C   UNL     1      34.392  24.613  10.398  0.00  0.00    +0.070 C 
ATOM     20  C   UNL     1      35.167  24.546  11.760  0.00  0.00    +0.035 C 
ATOM     21  C   UNL     1      36.131  25.602  11.220  0.00  0.00    +0.006 C 
ATOM     22  C   UNL     1      35.009  26.048  10.263  0.00  0.00    +0.035 C 
ATOM     23  C   UNL     1      32.866  24.586  10.557  0.00  0.00    +0.040 C 
ENDBRANCH  14  15
ENDBRANCH   3  14
TORSDOF 5
ENDMDL
MODEL 4
REMARK VINA RESULT:      -6.8      4.595      5.836
REMARK  Name = ZINC000560333501
REMARK  5 active torsions:
REMARK  status: ('A' for Active; 'I' for Inactive)
REMARK    1  A    between atoms: C_2  and  C_3
REMARK    2  A    between atoms: C_7  and  C_8
REMARK    3  A    between atoms: C_8  and  C_9
REMARK    4  A    between atoms: N_11  and  C_12
REMARK    5  A    between atoms: C_12  and  C_13
REMARK                            x       y       z     vdW  Elec       q    Type
REMARK                         _______ _______ _______ _____ _____    ______ ____
ROOT
ATOM      1  C   UNL     1      31.514  22.389  13.582  0.00  0.00    +0.217 C 
ATOM      2  O   UNL     1      31.107  23.545  13.722  0.00  0.00    -0.275 OA
ATOM      3  N   UNL     1      32.145  21.942  12.433  0.00  0.00    -0.315 N 
ATOM      4  H   UNL     1      32.694  21.097  12.530  0.00  0.00    +0.149 HD
ENDROOT
BRANCH   1   5
ATOM      5  C   UNL     1      31.340  21.367  14.680  0.00  0.00    +0.131 C 
BRANCH   5  10
ATOM      6  C   UNL     1      28.337  21.959  16.990  0.00  0.00    +0.052 A 
ATOM      7  C   UNL     1      28.970  22.493  18.118  0.00  0.00    +0.019 A 
ATOM      8  C   UNL     1      30.351  22.681  18.117  0.00  0.00    +0.002 A 
ATOM      9  C   UNL     1      31.104  22.341  16.991  0.00  0.00    +0.004 A 
ATOM     10  C   UNL     1      30.487  21.811  15.849  0.00  0.00    -0.037 A 
ATOM     11  C   UNL     1      29.096  21.615  15.863  0.00  0.00    +0.023 A 
BRANCH   6  13
ATOM     12  N   UNL     1      25.770  21.584  17.003  0.00  0.00    -0.191 NA
ATOM     13  C   UNL     1      26.919  21.748  17.000  0.00  0.00    +0.099 C 
ENDBRANCH   6  13
ENDBRANCH   5  10
ENDBRANCH   1   5
BRANCH   3  14
ATOM     14  C   UNL     1      32.634  22.933  11.491  0.00  0.00    +0.108 C 
BRANCH  14  15
ATOM     15  C   UNL     1      34.142  23.240  11.539  0.00  0.00    +0.011 C 
ATOM     16  C   UNL     1      34.509  24.594  10.936  0.00  0.00    +0.033 C 
ATOM     17  C   UNL     1      34.112  24.653   9.469  0.00  0.00    +0.161 C 
ATOM     18  O   UNL     1      34.535  23.520   8.714  0.00  0.00    -0.373 OA
ATOM     19  C   UNL     1      34.520  22.177   9.277  0.00  0.00    +0.070 C 
ATOM     20  C   UNL     1      33.281  21.261   8.982  0.00  0.00    +0.035 C 
ATOM     21  C   UNL     1      33.981  20.791   7.707  0.00  0.00    +0.006 C 
ATOM     22  C   UNL     1      35.316  21.175   8.373  0.00  0.00    +0.035 C 
ATOM     23  C   UNL     1      34.943  22.182  10.752  0.00  0.00    +0.040 C 
ENDBRANCH  14  15
ENDBRANCH   3  14
TORSDOF 5
ENDMDL
MODEL 5
REMARK VINA RESULT:      -6.7      2.335      3.832
REMARK  Name = ZINC000560333501
REMARK  5 active torsions:
REMARK  status: ('A' for Active; 'I' for Inactive)
REMARK    1  A    between atoms: C_2  and  C_3
REMARK    2  A    between atoms: C_7  and  C_8
REMARK    3  A    between atoms: C_8  and  C_9
REMARK    4  A    between atoms: N_11  and  C_12
REMARK    5  A    between atoms: C_12  and  C_13
REMARK                            x       y       z     vdW  Elec       q    Type
REMARK                         _______ _______ _______ _____ _____    ______ ____
ROOT
ATOM      1  C   UNL     1      33.051  21.844  17.151  0.00  0.00    +0.217 C 
ATOM      2  O   UNL     1      33.278  20.797  17.764  0.00  0.00    -0.275 OA
ATOM      3  N   UNL     1      33.168  21.957  15.777  0.00  0.00    -0.315 N 
ATOM      4  H   UNL     1      32.683  22.739  15.354  0.00  0.00    +0.149 HD
ENDROOT
BRANCH   1   5
ATOM      5  C   UNL     1      32.628  23.095  17.884  0.00  0.00    +0.131 C 
BRANCH   5  10
ATOM      6  C   UNL     1      28.846  22.534  18.178  0.00  0.00    +0.052 A 
ATOM      7  C   UNL     1      28.620  22.928  19.502  0.00  0.00    +0.019 A 
ATOM      8  C   UNL     1      29.680  23.392  20.279  0.00  0.00    +0.002 A 
ATOM      9  C   UNL     1      30.965  23.470  19.739  0.00  0.00    +0.004 A 
ATOM     10  C   UNL     1      31.210  23.087  18.413  0.00  0.00    -0.037 A 
ATOM     11  C   UNL     1      30.138  22.610  17.639  0.00  0.00    +0.023 A 
BRANCH   6  13
ATOM     12  N   UNL     1      26.874  21.642  16.748  0.00  0.00    -0.191 NA
ATOM     13  C   UNL     1      27.759  22.038  17.386  0.00  0.00    +0.099 C 
ENDBRANCH   6  13
ENDBRANCH   5  10
ENDBRANCH   1   5
BRANCH   3  14
ATOM     14  C   UNL     1      33.244  20.737  14.993  0.00  0.00    +0.108 C 
BRANCH  14  15
ATOM     15  C   UNL     1      32.283  20.631  13.793  0.00  0.00    +0.011 C 
ATOM     16  C   UNL     1      30.856  21.067  14.114  0.00  0.00    +0.033 C 
ATOM     17  C   UNL     1      30.262  20.196  15.211  0.00  0.00    +0.161 C 
ATOM     18  O   UNL     1      30.431  18.799  14.987  0.00  0.00    -0.373 OA
ATOM     19  C   UNL     1      31.650  18.260  14.399  0.00  0.00    +0.070 C 
ATOM     20  C   UNL     1      32.761  17.714  15.362  0.00  0.00    +0.035 C 
ATOM     21  C   UNL     1      32.066  16.353  15.331  0.00  0.00    +0.006 C 
ATOM     22  C   UNL     1      31.460  16.763  13.975  0.00  0.00    +0.035 C 
ATOM     23  C   UNL     1      32.191  19.174  13.292  0.00  0.00    +0.040 C 
ENDBRANCH  14  15
ENDBRANCH   3  14
TORSDOF 5
ENDMDL
MODEL 6
REMARK VINA RESULT:      -6.6      1.796      2.632
REMARK  Name = ZINC000560333501
REMARK  5 active torsions:
REMARK  status: ('A' for Active; 'I' for Inactive)
REMARK    1  A    between atoms: C_2  and  C_3
REMARK    2  A    between atoms: C_7  and  C_8
REMARK    3  A    between atoms: C_8  and  C_9
REMARK    4  A    between atoms: N_11  and  C_12
REMARK    5  A    between atoms: C_12  and  C_13
REMARK                            x       y       z     vdW  Elec       q    Type
REMARK                         _______ _______ _______ _____ _____    ______ ____
ROOT
ATOM      1  C   UNL     1      33.369  19.278  15.740  0.00  0.00    +0.217 C 
ATOM      2  O   UNL     1      33.065  18.318  16.453  0.00  0.00    -0.275 OA
ATOM      3  N   UNL     1      33.974  19.141  14.503  0.00  0.00    -0.315 N 
ATOM      4  H   UNL     1      33.907  19.941  13.886  0.00  0.00    +0.149 HD
ENDROOT
BRANCH   1   5
ATOM      5  C   UNL     1      33.096  20.694  16.189  0.00  0.00    +0.131 C 
BRANCH   5  10
ATOM      6  C   UNL     1      29.831  22.317  17.377  0.00  0.00    +0.052 A 
ATOM      7  C   UNL     1      28.935  21.858  16.405  0.00  0.00    +0.019 A 
ATOM      8  C   UNL     1      29.384  21.012  15.392  0.00  0.00    +0.002 A 
ATOM      9  C   UNL     1      30.722  20.618  15.347  0.00  0.00    +0.004 A 
ATOM     10  C   UNL     1      31.633  21.062  16.316  0.00  0.00    -0.037 A 
ATOM     11  C   UNL     1      31.176  21.924  17.328  0.00  0.00    +0.023 A 
BRANCH   6  13
ATOM     12  N   UNL     1      29.007  23.926  19.238  0.00  0.00    -0.191 NA
ATOM     13  C   UNL     1      29.374  23.203  18.407  0.00  0.00    +0.099 C 
ENDBRANCH   6  13
ENDBRANCH   5  10
ENDBRANCH   1   5
BRANCH   3  14
ATOM     14  C   UNL     1      33.962  17.831  13.876  0.00  0.00    +0.108 C 
BRANCH  14  15
ATOM     15  C   UNL     1      33.167  17.705  12.563  0.00  0.00    +0.011 C 
ATOM     16  C   UNL     1      31.692  18.071  12.706  0.00  0.00    +0.033 C 
ATOM     17  C   UNL     1      31.005  17.153  13.706  0.00  0.00    +0.161 C 
ATOM     18  O   UNL     1      31.266  15.769  13.486  0.00  0.00    -0.373 OA
ATOM     19  C   UNL     1      32.574  15.297  13.050  0.00  0.00    +0.070 C 
ATOM     20  C   UNL     1      33.579  14.782  14.139  0.00  0.00    +0.035 C 
ATOM     21  C   UNL     1      32.957  13.393  14.000  0.00  0.00    +0.006 C 
ATOM     22  C   UNL     1      32.509  13.802  12.584  0.00  0.00    +0.035 C 
ATOM     23  C   UNL     1      33.206  16.256  12.034  0.00  0.00    +0.040 C 
ENDBRANCH  14  15
ENDBRANCH   3  14
TORSDOF 5
ENDMDL
MODEL 7
REMARK VINA RESULT:      -6.6      3.301      4.563
REMARK  Name = ZINC000560333501
REMARK  5 active torsions:
REMARK  status: ('A' for Active; 'I' for Inactive)
REMARK    1  A    between atoms: C_2  and  C_3
REMARK    2  A    between atoms: C_7  and  C_8
REMARK    3  A    between atoms: C_8  and  C_9
REMARK    4  A    between atoms: N_11  and  C_12
REMARK    5  A    between atoms: C_12  and  C_13
REMARK                            x       y       z     vdW  Elec       q    Type
REMARK                         _______ _______ _______ _____ _____    ______ ____
ROOT
ATOM      1  C   UNL     1      32.641  20.366  13.848  0.00  0.00    +0.217 C 
ATOM      2  O   UNL     1      33.809  19.969  13.841  0.00  0.00    -0.275 OA
ATOM      3  N   UNL     1      31.589  19.633  13.327  0.00  0.00    -0.315 N 
ATOM      4  H   UNL     1      30.665  19.898  13.644  0.00  0.00    +0.149 HD
ENDROOT
BRANCH   1   5
ATOM      5  C   UNL     1      32.283  21.711  14.436  0.00  0.00    +0.131 C 
BRANCH   5  10
ATOM      6  C   UNL     1      32.060  23.728  11.182  0.00  0.00    +0.052 A 
ATOM      7  C   UNL     1      31.128  24.709  11.540  0.00  0.00    +0.019 A 
ATOM      8  C   UNL     1      30.599  24.727  12.830  0.00  0.00    +0.002 A 
ATOM      9  C   UNL     1      31.000  23.773  13.766  0.00  0.00    +0.004 A 
ATOM     10  C   UNL     1      31.938  22.787  13.429  0.00  0.00    -0.037 A 
ATOM     11  C   UNL     1      32.458  22.768  12.124  0.00  0.00    +0.023 A 
BRANCH   6  13
ATOM     12  N   UNL     1      33.023  23.680   8.774  0.00  0.00    -0.191 NA
ATOM     13  C   UNL     1      32.589  23.698   9.850  0.00  0.00    +0.099 C 
ENDBRANCH   6  13
ENDBRANCH   5  10
ENDBRANCH   1   5
BRANCH   3  14
ATOM     14  C   UNL     1      31.805  18.223  13.055  0.00  0.00    +0.108 C 
BRANCH  14  15
ATOM     15  C   UNL     1      31.104  17.227  13.998  0.00  0.00    +0.011 C 
ATOM     16  C   UNL     1      31.739  17.148  15.384  0.00  0.00    +0.033 C 
ATOM     17  C   UNL     1      33.187  16.691  15.286  0.00  0.00    +0.161 C 
ATOM     18  O   UNL     1      33.369  15.536  14.472  0.00  0.00    -0.373 OA
ATOM     19  C   UNL     1      32.601  15.332  13.250  0.00  0.00    +0.070 C 
ATOM     20  C   UNL     1      33.246  15.759  11.886  0.00  0.00    +0.035 C 
ATOM     21  C   UNL     1      33.882  14.372  11.796  0.00  0.00    +0.006 C 
ATOM     22  C   UNL     1      32.759  13.865  12.721  0.00  0.00    +0.035 C 
ATOM     23  C   UNL     1      31.149  15.798  13.418  0.00  0.00    +0.040 C 
ENDBRANCH  14  15
ENDBRANCH   3  14
TORSDOF 5
ENDMDL
MODEL 8
REMARK VINA RESULT:      -6.6      1.669      2.265
REMARK  Name = ZINC000560333501
REMARK  5 active torsions:
REMARK  status: ('A' for Active; 'I' for Inactive)
REMARK    1  A    between atoms: C_2  and  C_3
REMARK    2  A    between atoms: C_7  and  C_8
REMARK    3  A    between atoms: C_8  and  C_9
REMARK    4  A    between atoms: N_11  and  C_12
REMARK    5  A    between atoms: C_12  and  C_13
REMARK                            x       y       z     vdW  Elec       q    Type
REMARK                         _______ _______ _______ _____ _____    ______ ____
ROOT
ATOM      1  C   UNL     1      29.626  20.945  14.901  0.00  0.00    +0.217 C 
ATOM      2  O   UNL     1      29.788  21.596  13.865  0.00  0.00    -0.275 OA
ATOM      3  N   UNL     1      30.238  19.725  15.132  0.00  0.00    -0.315 N 
ATOM      4  H   UNL     1      30.282  19.428  16.100  0.00  0.00    +0.149 HD
ENDROOT
BRANCH   1   5
ATOM      5  C   UNL     1      28.725  21.452  16.002  0.00  0.00    +0.131 C 
BRANCH   5  10
ATOM      6  C   UNL     1      31.430  23.083  18.176  0.00  0.00    +0.052 A 
ATOM      7  C   UNL     1      30.669  23.519  19.267  0.00  0.00    +0.019 A 
ATOM      8  C   UNL     1      29.298  23.264  19.304  0.00  0.00    +0.002 A 
ATOM      9  C   UNL     1      28.685  22.570  18.259  0.00  0.00    +0.004 A 
ATOM     10  C   UNL     1      29.433  22.119  17.162  0.00  0.00    -0.037 A 
ATOM     11  C   UNL     1      30.811  22.390  17.127  0.00  0.00    +0.023 A 
BRANCH   6  13
ATOM     12  N   UNL     1      33.973  23.589  18.100  0.00  0.00    -0.191 NA
ATOM     13  C   UNL     1      32.835  23.363  18.130  0.00  0.00    +0.099 C 
ENDBRANCH   6  13
ENDBRANCH   5  10
ENDBRANCH   1   5
BRANCH   3  14
ATOM     14  C   UNL     1      31.352  19.345  14.282  0.00  0.00    +0.108 C 
BRANCH  14  15
ATOM     15  C   UNL     1      31.101  18.186  13.299  0.00  0.00    +0.011 C 
ATOM     16  C   UNL     1      30.983  16.824  13.979  0.00  0.00    +0.033 C 
ATOM     17  C   UNL     1      32.267  16.481  14.720  0.00  0.00    +0.161 C 
ATOM     18  O   UNL     1      33.446  16.667  13.940  0.00  0.00    -0.373 OA
ATOM     19  C   UNL     1      33.580  17.780  13.010  0.00  0.00    +0.070 C 
ATOM     20  C   UNL     1      34.322  19.072  13.499  0.00  0.00    +0.035 C 
ATOM     21  C   UNL     1      35.638  18.444  13.039  0.00  0.00    +0.006 C 
ATOM     22  C   UNL     1      34.813  17.581  12.064  0.00  0.00    +0.035 C 
ATOM     23  C   UNL     1      32.259  18.067  12.285  0.00  0.00    +0.040 C 
ENDBRANCH  14  15
ENDBRANCH   3  14
TORSDOF 5
ENDMDL
MODEL 9
REMARK VINA RESULT:      -6.5      1.576      2.294
REMARK  Name = ZINC000560333501
REMARK  5 active torsions:
REMARK  status: ('A' for Active; 'I' for Inactive)
REMARK    1  A    between atoms: C_2  and  C_3
REMARK    2  A    between atoms: C_7  and  C_8
REMARK    3  A    between atoms: C_8  and  C_9
REMARK    4  A    between atoms: N_11  and  C_12
REMARK    5  A    between atoms: C_12  and  C_13
REMARK                            x       y       z     vdW  Elec       q    Type
REMARK                         _______ _______ _______ _____ _____    ______ ____
ROOT
ATOM      1  C   UNL     1      29.621  21.061  14.910  0.00  0.00    +0.217 C 
ATOM      2  O   UNL     1      29.811  21.780  13.926  0.00  0.00    -0.275 OA
ATOM      3  N   UNL     1      30.260  19.847  15.095  0.00  0.00    -0.315 N 
ATOM      4  H   UNL     1      30.268  19.492  16.043  0.00  0.00    +0.149 HD
ENDROOT
BRANCH   1   5
ATOM      5  C   UNL     1      28.652  21.471  15.993  0.00  0.00    +0.131 C 
BRANCH   5  10
ATOM      6  C   UNL     1      31.186  23.107  18.361  0.00  0.00    +0.052 A 
ATOM      7  C   UNL     1      30.359  23.463  19.432  0.00  0.00    +0.019 A 
ATOM      8  C   UNL     1      29.000  23.153  19.394  0.00  0.00    +0.002 A 
ATOM      9  C   UNL     1      28.464  22.483  18.293  0.00  0.00    +0.004 A 
ATOM     10  C   UNL     1      29.278  22.112  17.213  0.00  0.00    -0.037 A 
ATOM     11  C   UNL     1      30.644  22.438  17.254  0.00  0.00    +0.023 A 
BRANCH   6  13
ATOM     12  N   UNL     1      33.706  23.722  18.424  0.00  0.00    -0.191 NA
ATOM     13  C   UNL     1      32.579  23.444  18.392  0.00  0.00    +0.099 C 
ENDBRANCH   6  13
ENDBRANCH   5  10
ENDBRANCH   1   5
BRANCH   3  14
ATOM     14  C   UNL     1      31.426  19.555  14.280  0.00  0.00    +0.108 C 
BRANCH  14  15
ATOM     15  C   UNL     1      32.738  19.270  15.034  0.00  0.00    +0.011 C 
ATOM     16  C   UNL     1      33.990  19.608  14.230  0.00  0.00    +0.033 C 
ATOM     17  C   UNL     1      34.048  18.783  12.954  0.00  0.00    +0.161 C 
ATOM     18  O   UNL     1      33.821  17.391  13.161  0.00  0.00    -0.373 OA
ATOM     19  C   UNL     1      32.846  16.911  14.132  0.00  0.00    +0.070 C 
ATOM     20  C   UNL     1      31.409  16.542  13.623  0.00  0.00    +0.035 C 
ATOM     21  C   UNL     1      31.916  15.129  13.335  0.00  0.00    +0.006 C 
ATOM     22  C   UNL     1      33.013  15.374  14.389  0.00  0.00    +0.035 C 
ATOM     23  C   UNL     1      32.846  17.775  15.400  0.00  0.00    +0.040 C 
ENDBRANCH  14  15
ENDBRANCH   3  14
TORSDOF 5
ENDMDL
