MODEL 1
REMARK VINA RESULT:      -6.7      0.000      0.000
REMARK  Name = ZINC001228612316
REMARK  5 active torsions:
REMARK  status: ('A' for Active; 'I' for Inactive)
REMARK    1  A    between atoms: C_2  and  C_4
REMARK    2  A    between atoms: C_8  and  O_9
REMARK    3  A    between atoms: O_9  and  C_10
REMARK    4  A    between atoms: C_10  and  C_11
REMARK    5  A    between atoms: C_10  and  C_17
REMARK                            x       y       z     vdW  Elec       q    Type
REMARK                         _______ _______ _______ _____ _____    ______ ____
ROOT
ATOM      1  C   UNL     1      28.454  18.201  15.072  0.00  0.00    +0.040 A 
ATOM      2  C   UNL     1      27.282  18.095  15.825  0.00  0.00    +0.013 A 
ATOM      3  C   UNL     1      26.707  19.245  16.370  0.00  0.00    +0.004 A 
ATOM      4  C   UNL     1      27.297  20.495  16.153  0.00  0.00    +0.046 A 
ATOM      5  C   UNL     1      28.464  20.605  15.393  0.00  0.00    +0.122 A 
ATOM      6  C   UNL     1      29.050  19.451  14.884  0.00  0.00    +0.058 A 
ENDROOT
BRANCH   1   8
ATOM      7  N   UNL     1      28.332  15.987  14.060  0.00  0.00    -0.325 N 
ATOM      8  C   UNL     1      29.121  17.034  14.439  0.00  0.00    +0.242 C 
ATOM      9  O   UNL     1      30.323  17.031  14.204  0.00  0.00    -0.270 OA
ATOM     10  H   UNL     1      28.788  15.275  13.503  0.00  0.00    +0.145 HD
ATOM     11  H   UNL     1      27.329  16.069  13.982  0.00  0.00    +0.145 HD
ENDBRANCH   1   8
BRANCH   5  12
ATOM     12  O   UNL     1      28.956  21.871  15.230  0.00  0.00    -0.484 OA
BRANCH  12  13
ATOM     13  C   UNL     1      30.169  22.212  15.927  0.00  0.00    +0.208 C 
BRANCH  13  14
ATOM     14  C   UNL     1      31.153  22.805  14.940  0.00  0.00    +0.011 A 
ATOM     15  C   UNL     1      32.476  23.053  15.329  0.00  0.00    +0.010 A 
ATOM     16  C   UNL     1      33.378  23.603  14.427  0.00  0.00    +0.020 A 
ATOM     17  C   UNL     1      32.926  23.891  13.152  0.00  0.00    +0.111 A 
ATOM     18  N   UNL     1      31.660  23.675  12.735  0.00  0.00    -0.263 NA
ATOM     19  C   UNL     1      30.802  23.141  13.638  0.00  0.00    +0.118 A 
ENDBRANCH  13  14
BRANCH  13  20
ATOM     20  C   UNL     1      29.860  23.206  17.025  0.00  0.00    +0.034 C 
ATOM     21  C   UNL     1      30.695  23.298  18.285  0.00  0.00    +0.008 C 
ATOM     22  C   UNL     1      29.307  22.740  18.358  0.00  0.00    +0.008 C 
ENDBRANCH  13  20
ENDBRANCH  12  13
ENDBRANCH   5  12
TORSDOF 5
ENDMDL
MODEL 2
REMARK VINA RESULT:      -6.5      1.409      1.950
REMARK  Name = ZINC001228612316
REMARK  5 active torsions:
REMARK  status: ('A' for Active; 'I' for Inactive)
REMARK    1  A    between atoms: C_2  and  C_4
REMARK    2  A    between atoms: C_8  and  O_9
REMARK    3  A    between atoms: O_9  and  C_10
REMARK    4  A    between atoms: C_10  and  C_11
REMARK    5  A    between atoms: C_10  and  C_17
REMARK                            x       y       z     vdW  Elec       q    Type
REMARK                         _______ _______ _______ _____ _____    ______ ____
ROOT
ATOM      1  C   UNL     1      28.808  18.436  14.944  0.00  0.00    +0.040 A 
ATOM      2  C   UNL     1      27.721  18.549  15.814  0.00  0.00    +0.013 A 
ATOM      3  C   UNL     1      27.300  19.814  16.231  0.00  0.00    +0.004 A 
ATOM      4  C   UNL     1      27.959  20.959  15.772  0.00  0.00    +0.046 A 
ATOM      5  C   UNL     1      29.041  20.850  14.895  0.00  0.00    +0.122 A 
ATOM      6  C   UNL     1      29.477  19.585  14.513  0.00  0.00    +0.058 A 
ENDROOT
BRANCH   1   8
ATOM      7  N   UNL     1      28.402  16.123  14.293  0.00  0.00    -0.325 N 
ATOM      8  C   UNL     1      29.308  17.134  14.434  0.00  0.00    +0.242 C 
ATOM      9  O   UNL     1      30.474  16.983  14.090  0.00  0.00    -0.270 OA
ATOM     10  H   UNL     1      28.738  15.299  13.809  0.00  0.00    +0.145 HD
ATOM     11  H   UNL     1      27.406  16.288  14.298  0.00  0.00    +0.145 HD
ENDBRANCH   1   8
BRANCH   5  12
ATOM     12  O   UNL     1      29.611  22.028  14.495  0.00  0.00    -0.484 OA
BRANCH  12  13
ATOM     13  C   UNL     1      31.049  22.097  14.461  0.00  0.00    +0.208 C 
BRANCH  13  14
ATOM     14  C   UNL     1      31.471  22.974  13.301  0.00  0.00    +0.011 A 
ATOM     15  C   UNL     1      30.752  24.140  13.003  0.00  0.00    +0.010 A 
ATOM     16  C   UNL     1      31.134  24.942  11.935  0.00  0.00    +0.020 A 
ATOM     17  C   UNL     1      32.233  24.552  11.191  0.00  0.00    +0.111 A 
ATOM     18  N   UNL     1      32.952  23.436  11.438  0.00  0.00    -0.263 NA
ATOM     19  C   UNL     1      32.553  22.671  12.484  0.00  0.00    +0.118 A 
ENDBRANCH  13  14
BRANCH  13  20
ATOM     20  C   UNL     1      31.560  22.668  15.766  0.00  0.00    +0.034 C 
ATOM     21  C   UNL     1      32.937  23.286  15.889  0.00  0.00    +0.008 C 
ATOM     22  C   UNL     1      32.658  21.967  16.541  0.00  0.00    +0.008 C 
ENDBRANCH  13  20
ENDBRANCH  12  13
ENDBRANCH   5  12
TORSDOF 5
ENDMDL
MODEL 3
REMARK VINA RESULT:      -6.5      3.114      5.391
REMARK  Name = ZINC001228612316
REMARK  5 active torsions:
REMARK  status: ('A' for Active; 'I' for Inactive)
REMARK    1  A    between atoms: C_2  and  C_4
REMARK    2  A    between atoms: C_8  and  O_9
REMARK    3  A    between atoms: O_9  and  C_10
REMARK    4  A    between atoms: C_10  and  C_11
REMARK    5  A    between atoms: C_10  and  C_17
REMARK                            x       y       z     vdW  Elec       q    Type
REMARK                         _______ _______ _______ _____ _____    ______ ____
ROOT
ATOM      1  C   UNL     1      27.760  20.264  15.919  0.00  0.00    +0.040 A 
ATOM      2  C   UNL     1      26.970  19.169  16.275  0.00  0.00    +0.013 A 
ATOM      3  C   UNL     1      27.355  17.885  15.881  0.00  0.00    +0.004 A 
ATOM      4  C   UNL     1      28.529  17.699  15.146  0.00  0.00    +0.046 A 
ATOM      5  C   UNL     1      29.327  18.791  14.796  0.00  0.00    +0.122 A 
ATOM      6  C   UNL     1      28.918  20.070  15.160  0.00  0.00    +0.058 A 
ENDROOT
BRANCH   1   8
ATOM      7  N   UNL     1      28.455  22.570  16.292  0.00  0.00    -0.325 N 
ATOM      8  C   UNL     1      27.438  21.659  16.312  0.00  0.00    +0.242 C 
ATOM      9  O   UNL     1      26.294  22.003  16.582  0.00  0.00    -0.270 OA
ATOM     10  H   UNL     1      28.179  23.537  16.420  0.00  0.00    +0.145 HD
ATOM     11  H   UNL     1      29.327  22.393  15.816  0.00  0.00    +0.145 HD
ENDBRANCH   1   8
BRANCH   5  12
ATOM     12  O   UNL     1      30.460  18.504  14.086  0.00  0.00    -0.484 OA
BRANCH  12  13
ATOM     13  C   UNL     1      31.717  18.544  14.787  0.00  0.00    +0.208 C 
BRANCH  13  14
ATOM     14  C   UNL     1      32.522  17.314  14.421  0.00  0.00    +0.011 A 
ATOM     15  C   UNL     1      33.601  16.916  15.222  0.00  0.00    +0.010 A 
ATOM     16  C   UNL     1      34.344  15.792  14.885  0.00  0.00    +0.020 A 
ATOM     17  C   UNL     1      33.983  15.092  13.748  0.00  0.00    +0.111 A 
ATOM     18  N   UNL     1      32.955  15.441  12.944  0.00  0.00    -0.263 NA
ATOM     19  C   UNL     1      32.250  16.544  13.297  0.00  0.00    +0.118 A 
ENDBRANCH  13  14
BRANCH  13  20
ATOM     20  C   UNL     1      32.471  19.799  14.406  0.00  0.00    +0.034 C 
ATOM     21  C   UNL     1      33.654  20.300  15.207  0.00  0.00    +0.008 C 
ATOM     22  C   UNL     1      32.361  21.054  15.249  0.00  0.00    +0.008 C 
ENDBRANCH  13  20
ENDBRANCH  12  13
ENDBRANCH   5  12
TORSDOF 5
ENDMDL
MODEL 4
REMARK VINA RESULT:      -6.4      3.611      5.672
REMARK  Name = ZINC001228612316
REMARK  5 active torsions:
REMARK  status: ('A' for Active; 'I' for Inactive)
REMARK    1  A    between atoms: C_2  and  C_4
REMARK    2  A    between atoms: C_8  and  O_9
REMARK    3  A    between atoms: O_9  and  C_10
REMARK    4  A    between atoms: C_10  and  C_11
REMARK    5  A    between atoms: C_10  and  C_17
REMARK                            x       y       z     vdW  Elec       q    Type
REMARK                         _______ _______ _______ _____ _____    ______ ____
ROOT
ATOM      1  C   UNL     1      28.173  20.346  15.734  0.00  0.00    +0.040 A 
ATOM      2  C   UNL     1      27.511  19.131  15.925  0.00  0.00    +0.013 A 
ATOM      3  C   UNL     1      28.082  17.951  15.440  0.00  0.00    +0.004 A 
ATOM      4  C   UNL     1      29.313  17.988  14.778  0.00  0.00    +0.046 A 
ATOM      5  C   UNL     1      29.982  19.200  14.593  0.00  0.00    +0.122 A 
ATOM      6  C   UNL     1      29.390  20.375  15.046  0.00  0.00    +0.058 A 
ENDROOT
BRANCH   1   8
ATOM      7  N   UNL     1      28.533  22.677  16.347  0.00  0.00    -0.325 N 
ATOM      8  C   UNL     1      27.650  21.643  16.233  0.00  0.00    +0.242 C 
ATOM      9  O   UNL     1      26.460  21.806  16.474  0.00  0.00    -0.270 OA
ATOM     10  H   UNL     1      28.125  23.582  16.547  0.00  0.00    +0.145 HD
ATOM     11  H   UNL     1      29.440  22.662  15.902  0.00  0.00    +0.145 HD
ENDBRANCH   1   8
BRANCH   5  12
ATOM     12  O   UNL     1      31.184  19.130  13.944  0.00  0.00    -0.484 OA
BRANCH  12  13
ATOM     13  C   UNL     1      32.085  18.071  14.317  0.00  0.00    +0.208 C 
BRANCH  13  14
ATOM     14  C   UNL     1      32.466  17.290  13.076  0.00  0.00    +0.011 A 
ATOM     15  C   UNL     1      32.986  17.957  11.958  0.00  0.00    +0.010 A 
ATOM     16  C   UNL     1      33.330  17.243  10.817  0.00  0.00    +0.020 A 
ATOM     17  C   UNL     1      33.144  15.873  10.828  0.00  0.00    +0.111 A 
ATOM     18  N   UNL     1      32.642  15.190  11.879  0.00  0.00    -0.263 NA
ATOM     19  C   UNL     1      32.312  15.913  12.977  0.00  0.00    +0.118 A 
ENDBRANCH  13  14
BRANCH  13  20
ATOM     20  C   UNL     1      33.317  18.659  14.968  0.00  0.00    +0.034 C 
ATOM     21  C   UNL     1      34.527  17.814  15.310  0.00  0.00    +0.008 C 
ATOM     22  C   UNL     1      33.658  18.340  16.411  0.00  0.00    +0.008 C 
ENDBRANCH  13  20
ENDBRANCH  12  13
ENDBRANCH   5  12
TORSDOF 5
ENDMDL
MODEL 5
REMARK VINA RESULT:      -6.0      2.289      3.768
REMARK  Name = ZINC001228612316
REMARK  5 active torsions:
REMARK  status: ('A' for Active; 'I' for Inactive)
REMARK    1  A    between atoms: C_2  and  C_4
REMARK    2  A    between atoms: C_8  and  O_9
REMARK    3  A    between atoms: O_9  and  C_10
REMARK    4  A    between atoms: C_10  and  C_11
REMARK    5  A    between atoms: C_10  and  C_17
REMARK                            x       y       z     vdW  Elec       q    Type
REMARK                         _______ _______ _______ _____ _____    ______ ____
ROOT
ATOM      1  C   UNL     1      28.009  19.204  15.698  0.00  0.00    +0.040 A 
ATOM      2  C   UNL     1      28.240  17.829  15.614  0.00  0.00    +0.013 A 
ATOM      3  C   UNL     1      29.391  17.361  14.974  0.00  0.00    +0.004 A 
ATOM      4  C   UNL     1      30.309  18.266  14.430  0.00  0.00    +0.046 A 
ATOM      5  C   UNL     1      30.085  19.642  14.520  0.00  0.00    +0.122 A 
ATOM      6  C   UNL     1      28.920  20.099  15.127  0.00  0.00    +0.058 A 
ENDROOT
BRANCH   1   8
ATOM      7  N   UNL     1      26.058  18.952  17.135  0.00  0.00    -0.325 N 
ATOM      8  C   UNL     1      26.826  19.788  16.377  0.00  0.00    +0.242 C 
ATOM      9  O   UNL     1      26.577  20.986  16.319  0.00  0.00    -0.270 OA
ATOM     10  H   UNL     1      25.348  19.402  17.701  0.00  0.00    +0.145 HD
ATOM     11  H   UNL     1      26.382  18.042  17.429  0.00  0.00    +0.145 HD
ENDBRANCH   1   8
BRANCH   5  12
ATOM     12  O   UNL     1      31.045  20.444  13.967  0.00  0.00    -0.484 OA
BRANCH  12  13
ATOM     13  C   UNL     1      31.108  21.813  14.408  0.00  0.00    +0.208 C 
BRANCH  13  14
ATOM     14  C   UNL     1      31.941  21.885  15.671  0.00  0.00    +0.011 A 
ATOM     15  C   UNL     1      33.124  21.140  15.776  0.00  0.00    +0.010 A 
ATOM     16  C   UNL     1      33.886  21.200  16.936  0.00  0.00    +0.020 A 
ATOM     17  C   UNL     1      33.440  22.010  17.965  0.00  0.00    +0.111 A 
ATOM     18  N   UNL     1      32.306  22.741  17.909  0.00  0.00    -0.263 NA
ATOM     19  C   UNL     1      31.581  22.659  16.767  0.00  0.00    +0.118 A 
ENDBRANCH  13  14
BRANCH  13  20
ATOM     20  C   UNL     1      31.724  22.667  13.322  0.00  0.00    +0.034 C 
ATOM     21  C   UNL     1      32.379  23.999  13.621  0.00  0.00    +0.008 C 
ATOM     22  C   UNL     1      31.070  23.967  12.894  0.00  0.00    +0.008 C 
ENDBRANCH  13  20
ENDBRANCH  12  13
ENDBRANCH   5  12
TORSDOF 5
ENDMDL
MODEL 6
REMARK VINA RESULT:      -5.8      2.357      3.509
REMARK  Name = ZINC001228612316
REMARK  5 active torsions:
REMARK  status: ('A' for Active; 'I' for Inactive)
REMARK    1  A    between atoms: C_2  and  C_4
REMARK    2  A    between atoms: C_8  and  O_9
REMARK    3  A    between atoms: O_9  and  C_10
REMARK    4  A    between atoms: C_10  and  C_11
REMARK    5  A    between atoms: C_10  and  C_17
REMARK                            x       y       z     vdW  Elec       q    Type
REMARK                         _______ _______ _______ _____ _____    ______ ____
ROOT
ATOM      1  C   UNL     1      28.109  20.162  15.668  0.00  0.00    +0.040 A 
ATOM      2  C   UNL     1      28.755  19.039  15.145  0.00  0.00    +0.013 A 
ATOM      3  C   UNL     1      29.983  19.192  14.495  0.00  0.00    +0.004 A 
ATOM      4  C   UNL     1      30.563  20.459  14.381  0.00  0.00    +0.046 A 
ATOM      5  C   UNL     1      29.924  21.582  14.911  0.00  0.00    +0.122 A 
ATOM      6  C   UNL     1      28.685  21.428  15.524  0.00  0.00    +0.058 A 
ENDROOT
BRANCH   1   8
ATOM      7  N   UNL     1      26.465  18.890  16.941  0.00  0.00    -0.325 N 
ATOM      8  C   UNL     1      26.814  20.089  16.391  0.00  0.00    +0.242 C 
ATOM      9  O   UNL     1      26.109  21.079  16.549  0.00  0.00    -0.270 OA
ATOM     10  H   UNL     1      25.655  18.906  17.548  0.00  0.00    +0.145 HD
ATOM     11  H   UNL     1      27.133  18.144  17.072  0.00  0.00    +0.145 HD
ENDBRANCH   1   8
BRANCH   5  12
ATOM     12  O   UNL     1      30.577  22.774  14.756  0.00  0.00    -0.484 OA
BRANCH  12  13
ATOM     13  C   UNL     1      31.950  22.733  14.323  0.00  0.00    +0.208 C 
BRANCH  13  14
ATOM     14  C   UNL     1      32.057  23.400  12.968  0.00  0.00    +0.011 A 
ATOM     15  C   UNL     1      31.266  24.517  12.669  0.00  0.00    +0.010 A 
ATOM     16  C   UNL     1      31.358  25.126  11.424  0.00  0.00    +0.020 A 
ATOM     17  C   UNL     1      32.248  24.596  10.506  0.00  0.00    +0.111 A 
ATOM     18  N   UNL     1      33.026  23.519  10.748  0.00  0.00    -0.263 NA
ATOM     19  C   UNL     1      32.911  22.944  11.970  0.00  0.00    +0.118 A 
ENDBRANCH  13  14
BRANCH  13  20
ATOM     20  C   UNL     1      32.821  23.448  15.332  0.00  0.00    +0.034 C 
ATOM     21  C   UNL     1      34.261  23.812  15.036  0.00  0.00    +0.008 C 
ATOM     22  C   UNL     1      33.962  22.725  16.021  0.00  0.00    +0.008 C 
ENDBRANCH  13  20
ENDBRANCH  12  13
ENDBRANCH   5  12
TORSDOF 5
ENDMDL
MODEL 7
REMARK VINA RESULT:      -5.7      3.231      5.166
REMARK  Name = ZINC001228612316
REMARK  5 active torsions:
REMARK  status: ('A' for Active; 'I' for Inactive)
REMARK    1  A    between atoms: C_2  and  C_4
REMARK    2  A    between atoms: C_8  and  O_9
REMARK    3  A    between atoms: O_9  and  C_10
REMARK    4  A    between atoms: C_10  and  C_11
REMARK    5  A    between atoms: C_10  and  C_17
REMARK                            x       y       z     vdW  Elec       q    Type
REMARK                         _______ _______ _______ _____ _____    ______ ____
ROOT
ATOM      1  C   UNL     1      32.701  17.744  12.440  0.00  0.00    +0.040 A 
ATOM      2  C   UNL     1      33.089  18.077  11.140  0.00  0.00    +0.013 A 
ATOM      3  C   UNL     1      33.161  19.422  10.766  0.00  0.00    +0.004 A 
ATOM      4  C   UNL     1      32.856  20.425  11.691  0.00  0.00    +0.046 A 
ATOM      5  C   UNL     1      32.477  20.095  12.995  0.00  0.00    +0.122 A 
ATOM      6  C   UNL     1      32.372  18.754  13.349  0.00  0.00    +0.058 A 
ENDROOT
BRANCH   1   8
ATOM      7  N   UNL     1      33.501  15.961  13.896  0.00  0.00    -0.325 N 
ATOM      8  C   UNL     1      32.618  16.344  12.928  0.00  0.00    +0.242 C 
ATOM      9  O   UNL     1      31.751  15.575  12.530  0.00  0.00    -0.270 OA
ATOM     10  H   UNL     1      33.327  15.053  14.311  0.00  0.00    +0.145 HD
ATOM     11  H   UNL     1      34.030  16.629  14.436  0.00  0.00    +0.145 HD
ENDBRANCH   1   8
BRANCH   5  12
ATOM     12  O   UNL     1      32.210  21.147  13.827  0.00  0.00    -0.484 OA
BRANCH  12  13
ATOM     13  C   UNL     1      31.090  21.991  13.501  0.00  0.00    +0.208 C 
BRANCH  13  14
ATOM     14  C   UNL     1      30.005  21.788  14.537  0.00  0.00    +0.011 A 
ATOM     15  C   UNL     1      29.079  20.746  14.391  0.00  0.00    +0.010 A 
ATOM     16  C   UNL     1      28.079  20.563  15.338  0.00  0.00    +0.020 A 
ATOM     17  C   UNL     1      28.034  21.433  16.412  0.00  0.00    +0.111 A 
ATOM     18  N   UNL     1      28.901  22.452  16.591  0.00  0.00    -0.263 NA
ATOM     19  C   UNL     1      29.863  22.609  15.650  0.00  0.00    +0.118 A 
ENDBRANCH  13  14
BRANCH  13  20
ATOM     20  C   UNL     1      31.534  23.437  13.479  0.00  0.00    +0.034 C 
ATOM     21  C   UNL     1      30.844  24.477  12.621  0.00  0.00    +0.008 C 
ATOM     22  C   UNL     1      32.223  24.018  12.260  0.00  0.00    +0.008 C 
ENDBRANCH  13  20
ENDBRANCH  12  13
ENDBRANCH   5  12
TORSDOF 5
ENDMDL
MODEL 8
REMARK VINA RESULT:      -5.7      2.574      3.157
REMARK  Name = ZINC001228612316
REMARK  5 active torsions:
REMARK  status: ('A' for Active; 'I' for Inactive)
REMARK    1  A    between atoms: C_2  and  C_4
REMARK    2  A    between atoms: C_8  and  O_9
REMARK    3  A    between atoms: O_9  and  C_10
REMARK    4  A    between atoms: C_10  and  C_11
REMARK    5  A    between atoms: C_10  and  C_17
REMARK                            x       y       z     vdW  Elec       q    Type
REMARK                         _______ _______ _______ _____ _____    ______ ____
ROOT
ATOM      1  C   UNL     1      28.495  18.319  15.332  0.00  0.00    +0.040 A 
ATOM      2  C   UNL     1      27.440  18.954  15.992  0.00  0.00    +0.013 A 
ATOM      3  C   UNL     1      27.376  20.349  16.005  0.00  0.00    +0.004 A 
ATOM      4  C   UNL     1      28.357  21.103  15.353  0.00  0.00    +0.046 A 
ATOM      5  C   UNL     1      29.409  20.471  14.685  0.00  0.00    +0.122 A 
ATOM      6  C   UNL     1      29.486  19.082  14.707  0.00  0.00    +0.058 A 
ENDROOT
BRANCH   1   8
ATOM      7  N   UNL     1      28.660  16.280  14.006  0.00  0.00    -0.325 N 
ATOM      8  C   UNL     1      28.630  16.842  15.250  0.00  0.00    +0.242 C 
ATOM      9  O   UNL     1      28.775  16.153  16.253  0.00  0.00    -0.270 OA
ATOM     10  H   UNL     1      28.899  15.296  13.977  0.00  0.00    +0.145 HD
ATOM     11  H   UNL     1      28.824  16.826  13.173  0.00  0.00    +0.145 HD
ENDBRANCH   1   8
BRANCH   5  12
ATOM     12  O   UNL     1      30.311  21.295  14.070  0.00  0.00    -0.484 OA
BRANCH  12  13
ATOM     13  C   UNL     1      31.669  21.273  14.546  0.00  0.00    +0.208 C 
BRANCH  13  14
ATOM     14  C   UNL     1      32.510  20.448  13.594  0.00  0.00    +0.011 A 
ATOM     15  C   UNL     1      32.511  20.739  12.224  0.00  0.00    +0.010 A 
ATOM     16  C   UNL     1      33.276  19.979  11.349  0.00  0.00    +0.020 A 
ATOM     17  C   UNL     1      34.027  18.943  11.875  0.00  0.00    +0.111 A 
ATOM     18  N   UNL     1      34.054  18.624  13.186  0.00  0.00    -0.263 NA
ATOM     19  C   UNL     1      33.294  19.380  14.015  0.00  0.00    +0.118 A 
ENDBRANCH  13  14
BRANCH  13  20
ATOM     20  C   UNL     1      32.201  22.688  14.628  0.00  0.00    +0.034 C 
ATOM     21  C   UNL     1      33.668  22.984  14.855  0.00  0.00    +0.008 C 
ATOM     22  C   UNL     1      32.681  23.260  15.947  0.00  0.00    +0.008 C 
ENDBRANCH  13  20
ENDBRANCH  12  13
ENDBRANCH   5  12
TORSDOF 5
ENDMDL
MODEL 9
REMARK VINA RESULT:      -5.7      2.207      3.177
REMARK  Name = ZINC001228612316
REMARK  5 active torsions:
REMARK  status: ('A' for Active; 'I' for Inactive)
REMARK    1  A    between atoms: C_2  and  C_4
REMARK    2  A    between atoms: C_8  and  O_9
REMARK    3  A    between atoms: O_9  and  C_10
REMARK    4  A    between atoms: C_10  and  C_11
REMARK    5  A    between atoms: C_10  and  C_17
REMARK                            x       y       z     vdW  Elec       q    Type
REMARK                         _______ _______ _______ _____ _____    ______ ____
ROOT
ATOM      1  C   UNL     1      30.124  17.720  14.544  0.00  0.00    +0.040 A 
ATOM      2  C   UNL     1      31.349  17.232  14.083  0.00  0.00    +0.013 A 
ATOM      3  C   UNL     1      32.356  18.129  13.717  0.00  0.00    +0.004 A 
ATOM      4  C   UNL     1      32.139  19.507  13.821  0.00  0.00    +0.046 A 
ATOM      5  C   UNL     1      30.918  19.999  14.290  0.00  0.00    +0.122 A 
ATOM      6  C   UNL     1      29.909  19.100  14.618  0.00  0.00    +0.058 A 
ENDROOT
BRANCH   1   8
ATOM      7  N   UNL     1      28.426  16.052  14.022  0.00  0.00    -0.325 N 
ATOM      8  C   UNL     1      29.009  16.840  14.973  0.00  0.00    +0.242 C 
ATOM      9  O   UNL     1      28.661  16.768  16.146  0.00  0.00    -0.270 OA
ATOM     10  H   UNL     1      27.772  15.360  14.368  0.00  0.00    +0.145 HD
ATOM     11  H   UNL     1      28.859  15.880  13.127  0.00  0.00    +0.145 HD
ENDBRANCH   1   8
BRANCH   5  12
ATOM     12  O   UNL     1      30.808  21.360  14.365  0.00  0.00    -0.484 OA
BRANCH  12  13
ATOM     13  C   UNL     1      32.022  22.133  14.314  0.00  0.00    +0.208 C 
BRANCH  13  14
ATOM     14  C   UNL     1      31.937  23.107  13.158  0.00  0.00    +0.011 A 
ATOM     15  C   UNL     1      30.888  24.034  13.096  0.00  0.00    +0.010 A 
ATOM     16  C   UNL     1      30.804  24.924  12.033  0.00  0.00    +0.020 A 
ATOM     17  C   UNL     1      31.781  24.862  11.055  0.00  0.00    +0.111 A 
ATOM     18  N   UNL     1      32.806  23.983  11.071  0.00  0.00    -0.263 NA
ATOM     19  C   UNL     1      32.859  23.124  12.119  0.00  0.00    +0.118 A 
ENDBRANCH  13  14
BRANCH  13  20
ATOM     20  C   UNL     1      32.203  22.878  15.618  0.00  0.00    +0.034 C 
ATOM     21  C   UNL     1      33.492  23.594  15.963  0.00  0.00    +0.008 C 
ATOM     22  C   UNL     1      33.125  22.341  16.696  0.00  0.00    +0.008 C 
ENDBRANCH  13  20
ENDBRANCH  12  13
ENDBRANCH   5  12
TORSDOF 5
ENDMDL
