MODEL 1
REMARK VINA RESULT:      -6.5      0.000      0.000
REMARK  Name = ZINC000543478179
REMARK  8 active torsions:
REMARK  status: ('A' for Active; 'I' for Inactive)
REMARK    1  A    between atoms: C_1  and  C_2
REMARK    2  A    between atoms: C_2  and  N_3
REMARK    3  A    between atoms: N_9  and  C_10
REMARK    4  A    between atoms: C_10  and  C_11
REMARK    5  A    between atoms: C_10  and  C_12
REMARK    6  A    between atoms: C_15  and  O_16
REMARK    7  A    between atoms: O_16  and  C_17
REMARK    8  A    between atoms: C_17  and  C_18
REMARK                            x       y       z     vdW  Elec       q    Type
REMARK                         _______ _______ _______ _____ _____    ______ ____
ROOT
ATOM      1  C   UNL     1      31.810  21.438  15.726  0.00  0.00    +0.102 C 
ATOM      2  C   UNL     1      30.636  21.094  16.653  0.00  0.00    +0.033 C 
ENDROOT
BRANCH   1   9
ATOM      3  N   UNL     1      35.622  26.110  17.849  0.00  0.00    -0.299 N 
ATOM      4  C   UNL     1      35.085  26.344  16.508  0.00  0.00    +0.127 C 
ATOM      5  C   UNL     1      35.173  25.091  15.631  0.00  0.00    +0.129 C 
ATOM      6  N   UNL     1      34.440  24.003  16.272  0.00  0.00    -0.275 N 
ATOM      7  C   UNL     1      33.471  23.306  15.563  0.00  0.00    +0.303 C 
ATOM      8  O   UNL     1      33.215  23.527  14.387  0.00  0.00    -0.253 OA
ATOM      9  N   UNL     1      32.791  22.366  16.297  0.00  0.00    -0.293 N 
ATOM     10  C   UNL     1      34.802  23.758  17.669  0.00  0.00    +0.205 C 
ATOM     11  C   UNL     1      35.626  24.833  18.403  0.00  0.00    +0.233 C 
ATOM     12  O   UNL     1      36.137  24.586  19.496  0.00  0.00    -0.274 OA
ATOM     13  H   UNL     1      33.321  21.967  17.053  0.00  0.00    +0.151 HD
BRANCH   3  15
ATOM     14  C   UNL     1      37.211  27.855  18.579  0.00  0.00    +0.024 C 
ATOM     15  C   UNL     1      35.821  27.253  18.739  0.00  0.00    +0.104 C 
ENDBRANCH   3  15
ENDBRANCH   1   9
BRANCH   1  16
ATOM     16  C   UNL     1      32.551  20.163  15.342  0.00  0.00    -0.024 A 
ATOM     17  C   UNL     1      32.906  19.943  13.998  0.00  0.00    +0.009 A 
ATOM     18  C   UNL     1      33.507  18.753  13.596  0.00  0.00    +0.049 A 
ATOM     19  C   UNL     1      33.725  17.732  14.521  0.00  0.00    +0.156 A 
ATOM     20  C   UNL     1      33.436  17.967  15.868  0.00  0.00    +0.165 A 
ATOM     21  F   UNL     1      33.680  17.022  16.788  0.00  0.00    -0.202 F 
ATOM     22  C   UNL     1      32.850  19.168  16.282  0.00  0.00    +0.047 A 
BRANCH  19  23
ATOM     23  O   UNL     1      34.192  16.490  14.181  0.00  0.00    -0.489 OA
BRANCH  23  24
ATOM     24  C   UNL     1      33.480  15.864  13.109  0.00  0.00    +0.232 C 
BRANCH  24  25
ATOM     25  C   UNL     1      32.053  15.686  13.513  0.00  0.00    +0.027 C 
ATOM     26  C   UNL     1      31.677  14.642  14.531  0.00  0.00    +0.007 C 
ATOM     27  C   UNL     1      31.279  14.461  13.092  0.00  0.00    +0.007 C 
ENDBRANCH  24  25
ENDBRANCH  23  24
ENDBRANCH  19  23
ENDBRANCH   1  16
TORSDOF 6
ENDMDL
MODEL 2
REMARK VINA RESULT:      -6.2     11.475     13.978
REMARK  Name = ZINC000543478179
REMARK  8 active torsions:
REMARK  status: ('A' for Active; 'I' for Inactive)
REMARK    1  A    between atoms: C_1  and  C_2
REMARK    2  A    between atoms: C_2  and  N_3
REMARK    3  A    between atoms: N_9  and  C_10
REMARK    4  A    between atoms: C_10  and  C_11
REMARK    5  A    between atoms: C_10  and  C_12
REMARK    6  A    between atoms: C_15  and  O_16
REMARK    7  A    between atoms: O_16  and  C_17
REMARK    8  A    between atoms: C_17  and  C_18
REMARK                            x       y       z     vdW  Elec       q    Type
REMARK                         _______ _______ _______ _____ _____    ______ ____
ROOT
ATOM      1  C   UNL     1      25.020  28.505  22.061  0.00  0.00    +0.102 C 
ATOM      2  C   UNL     1      26.355  29.103  21.594  0.00  0.00    +0.033 C 
ENDROOT
BRANCH   1   9
ATOM      3  N   UNL     1      20.506  28.844  17.548  0.00  0.00    -0.299 N 
ATOM      4  C   UNL     1      20.320  29.793  18.647  0.00  0.00    +0.127 C 
ATOM      5  C   UNL     1      20.540  29.135  20.013  0.00  0.00    +0.129 C 
ATOM      6  N   UNL     1      21.888  28.577  20.066  0.00  0.00    -0.275 N 
ATOM      7  C   UNL     1      22.733  28.901  21.118  0.00  0.00    +0.303 C 
ATOM      8  O   UNL     1      22.394  29.615  22.053  0.00  0.00    -0.253 OA
ATOM      9  N   UNL     1      24.002  28.386  21.013  0.00  0.00    -0.293 N 
ATOM     10  C   UNL     1      22.238  27.706  18.942  0.00  0.00    +0.205 C 
ATOM     11  C   UNL     1      21.332  27.733  17.697  0.00  0.00    +0.233 C 
ATOM     12  O   UNL     1      21.452  26.875  16.821  0.00  0.00    -0.274 OA
ATOM     13  H   UNL     1      24.057  27.522  20.503  0.00  0.00    +0.151 HD
BRANCH   3  15
ATOM     14  C   UNL     1      18.608  29.404  16.069  0.00  0.00    +0.024 C 
ATOM     15  C   UNL     1      20.117  29.245  16.196  0.00  0.00    +0.104 C 
ENDBRANCH   3  15
ENDBRANCH   1   9
BRANCH   1  16
ATOM     16  C   UNL     1      25.255  27.113  22.636  0.00  0.00    -0.024 A 
ATOM     17  C   UNL     1      26.318  26.329  22.150  0.00  0.00    +0.009 A 
ATOM     18  C   UNL     1      26.510  25.023  22.591  0.00  0.00    +0.049 A 
ATOM     19  C   UNL     1      25.615  24.450  23.494  0.00  0.00    +0.156 A 
ATOM     20  C   UNL     1      24.596  25.241  24.031  0.00  0.00    +0.165 A 
ATOM     21  F   UNL     1      23.749  24.732  24.938  0.00  0.00    -0.202 F 
ATOM     22  C   UNL     1      24.409  26.561  23.607  0.00  0.00    +0.047 A 
BRANCH  19  23
ATOM     23  O   UNL     1      25.663  23.135  23.876  0.00  0.00    -0.489 OA
BRANCH  23  24
ATOM     24  C   UNL     1      26.986  22.620  24.060  0.00  0.00    +0.232 C 
BRANCH  24  25
ATOM     25  C   UNL     1      26.894  21.207  24.536  0.00  0.00    +0.027 C 
ATOM     26  C   UNL     1      28.122  20.333  24.560  0.00  0.00    +0.007 C 
ATOM     27  C   UNL     1      27.025  20.056  23.567  0.00  0.00    +0.007 C 
ENDBRANCH  24  25
ENDBRANCH  23  24
ENDBRANCH  19  23
ENDBRANCH   1  16
TORSDOF 6
ENDMDL
MODEL 3
REMARK VINA RESULT:      -5.8      5.323      7.212
REMARK  Name = ZINC000543478179
REMARK  8 active torsions:
REMARK  status: ('A' for Active; 'I' for Inactive)
REMARK    1  A    between atoms: C_1  and  C_2
REMARK    2  A    between atoms: C_2  and  N_3
REMARK    3  A    between atoms: N_9  and  C_10
REMARK    4  A    between atoms: C_10  and  C_11
REMARK    5  A    between atoms: C_10  and  C_12
REMARK    6  A    between atoms: C_15  and  O_16
REMARK    7  A    between atoms: O_16  and  C_17
REMARK    8  A    between atoms: C_17  and  C_18
REMARK                            x       y       z     vdW  Elec       q    Type
REMARK                         _______ _______ _______ _____ _____    ______ ____
ROOT
ATOM      1  C   UNL     1      34.399  20.825  12.598  0.00  0.00    +0.102 C 
ATOM      2  C   UNL     1      35.567  21.315  13.464  0.00  0.00    +0.033 C 
ENDROOT
BRANCH   1   9
ATOM      3  N   UNL     1      35.399  22.735   6.579  0.00  0.00    -0.299 N 
ATOM      4  C   UNL     1      35.032  23.817   7.493  0.00  0.00    +0.127 C 
ATOM      5  C   UNL     1      33.862  23.427   8.402  0.00  0.00    +0.129 C 
ATOM      6  N   UNL     1      34.223  22.237   9.167  0.00  0.00    -0.275 N 
ATOM      7  C   UNL     1      34.092  22.233  10.549  0.00  0.00    +0.303 C 
ATOM      8  O   UNL     1      33.640  23.179  11.180  0.00  0.00    -0.253 OA
ATOM      9  N   UNL     1      34.545  21.092  11.164  0.00  0.00    -0.293 N 
ATOM     10  C   UNL     1      34.731  21.122   8.366  0.00  0.00    +0.205 C 
ATOM     11  C   UNL     1      35.145  21.406   6.910  0.00  0.00    +0.233 C 
ATOM     12  O   UNL     1      35.371  20.476   6.134  0.00  0.00    -0.274 OA
ATOM     13  H   UNL     1      34.481  20.264  10.597  0.00  0.00    +0.151 HD
BRANCH   3  15
ATOM     14  C   UNL     1      36.050  24.350   4.827  0.00  0.00    +0.024 C 
ATOM     15  C   UNL     1      36.341  23.013   5.497  0.00  0.00    +0.104 C 
ENDBRANCH   3  15
ENDBRANCH   1   9
BRANCH   1  16
ATOM     16  C   UNL     1      34.227  19.320  12.771  0.00  0.00    -0.024 A 
ATOM     17  C   UNL     1      34.880  18.438  11.890  0.00  0.00    +0.009 A 
ATOM     18  C   UNL     1      34.678  17.063  11.966  0.00  0.00    +0.049 A 
ATOM     19  C   UNL     1      33.781  16.537  12.895  0.00  0.00    +0.156 A 
ATOM     20  C   UNL     1      33.178  17.398  13.816  0.00  0.00    +0.165 A 
ATOM     21  F   UNL     1      32.347  16.916  14.751  0.00  0.00    -0.202 F 
ATOM     22  C   UNL     1      33.391  18.780  13.758  0.00  0.00    +0.047 A 
BRANCH  19  23
ATOM     23  O   UNL     1      33.433  15.213  12.945  0.00  0.00    -0.489 OA
BRANCH  23  24
ATOM     24  C   UNL     1      32.685  14.754  11.815  0.00  0.00    +0.232 C 
BRANCH  24  25
ATOM     25  C   UNL     1      31.231  14.970  12.075  0.00  0.00    +0.027 C 
ATOM     26  C   UNL     1      30.528  14.189  13.155  0.00  0.00    +0.007 C 
ATOM     27  C   UNL     1      30.215  13.915  11.709  0.00  0.00    +0.007 C 
ENDBRANCH  24  25
ENDBRANCH  23  24
ENDBRANCH  19  23
ENDBRANCH   1  16
TORSDOF 6
ENDMDL
MODEL 4
REMARK VINA RESULT:      -5.8      1.344      1.581
REMARK  Name = ZINC000543478179
REMARK  8 active torsions:
REMARK  status: ('A' for Active; 'I' for Inactive)
REMARK    1  A    between atoms: C_1  and  C_2
REMARK    2  A    between atoms: C_2  and  N_3
REMARK    3  A    between atoms: N_9  and  C_10
REMARK    4  A    between atoms: C_10  and  C_11
REMARK    5  A    between atoms: C_10  and  C_12
REMARK    6  A    between atoms: C_15  and  O_16
REMARK    7  A    between atoms: O_16  and  C_17
REMARK    8  A    between atoms: C_17  and  C_18
REMARK                            x       y       z     vdW  Elec       q    Type
REMARK                         _______ _______ _______ _____ _____    ______ ____
ROOT
ATOM      1  C   UNL     1      32.374  21.556  15.612  0.00  0.00    +0.102 C 
ATOM      2  C   UNL     1      30.944  21.610  16.167  0.00  0.00    +0.033 C 
ENDROOT
BRANCH   1   9
ATOM      3  N   UNL     1      36.340  24.624  19.578  0.00  0.00    -0.299 N 
ATOM      4  C   UNL     1      35.660  25.499  18.623  0.00  0.00    +0.127 C 
ATOM      5  C   UNL     1      35.666  24.915  17.207  0.00  0.00    +0.129 C 
ATOM      6  N   UNL     1      35.019  23.606  17.223  0.00  0.00    -0.275 N 
ATOM      7  C   UNL     1      33.987  23.331  16.337  0.00  0.00    +0.303 C 
ATOM      8  O   UNL     1      33.603  24.126  15.489  0.00  0.00    -0.253 OA
ATOM      9  N   UNL     1      33.400  22.101  16.506  0.00  0.00    -0.293 N 
ATOM     10  C   UNL     1      35.532  22.680  18.234  0.00  0.00    +0.205 C 
ATOM     11  C   UNL     1      36.418  23.251  19.357  0.00  0.00    +0.233 C 
ATOM     12  O   UNL     1      37.046  22.495  20.099  0.00  0.00    -0.274 OA
ATOM     13  H   UNL     1      34.013  21.398  16.881  0.00  0.00    +0.151 HD
BRANCH   3  15
ATOM     14  C   UNL     1      37.099  26.573  20.892  0.00  0.00    +0.024 C 
ATOM     15  C   UNL     1      36.621  25.127  20.922  0.00  0.00    +0.104 C 
ENDBRANCH   3  15
ENDBRANCH   1   9
BRANCH   1  16
ATOM     16  C   UNL     1      32.751  20.112  15.303  0.00  0.00    -0.024 A 
ATOM     17  C   UNL     1      32.651  19.634  13.982  0.00  0.00    +0.009 A 
ATOM     18  C   UNL     1      32.905  18.300  13.678  0.00  0.00    +0.049 A 
ATOM     19  C   UNL     1      33.220  17.398  14.693  0.00  0.00    +0.156 A 
ATOM     20  C   UNL     1      33.385  17.876  15.996  0.00  0.00    +0.165 A 
ATOM     21  F   UNL     1      33.734  17.041  16.986  0.00  0.00    -0.202 F 
ATOM     22  C   UNL     1      33.150  19.220  16.306  0.00  0.00    +0.047 A 
BRANCH  19  23
ATOM     23  O   UNL     1      33.357  16.049  14.492  0.00  0.00    -0.489 OA
BRANCH  23  24
ATOM     24  C   UNL     1      32.120  15.339  14.380  0.00  0.00    +0.232 C 
BRANCH  24  25
ATOM     25  C   UNL     1      32.140  14.524  13.128  0.00  0.00    +0.027 C 
ATOM     26  C   UNL     1      32.458  15.172  11.806  0.00  0.00    +0.007 C 
ATOM     27  C   UNL     1      31.062  14.685  12.085  0.00  0.00    +0.007 C 
ENDBRANCH  24  25
ENDBRANCH  23  24
ENDBRANCH  19  23
ENDBRANCH   1  16
TORSDOF 6
ENDMDL
MODEL 5
REMARK VINA RESULT:      -5.8      5.696     10.993
REMARK  Name = ZINC000543478179
REMARK  8 active torsions:
REMARK  status: ('A' for Active; 'I' for Inactive)
REMARK    1  A    between atoms: C_1  and  C_2
REMARK    2  A    between atoms: C_2  and  N_3
REMARK    3  A    between atoms: N_9  and  C_10
REMARK    4  A    between atoms: C_10  and  C_11
REMARK    5  A    between atoms: C_10  and  C_12
REMARK    6  A    between atoms: C_15  and  O_16
REMARK    7  A    between atoms: O_16  and  C_17
REMARK    8  A    between atoms: C_17  and  C_18
REMARK                            x       y       z     vdW  Elec       q    Type
REMARK                         _______ _______ _______ _____ _____    ______ ____
ROOT
ATOM      1  C   UNL     1      32.663  14.271  12.528  0.00  0.00    +0.102 C 
ATOM      2  C   UNL     1      31.247  14.322  11.937  0.00  0.00    +0.033 C 
ENDROOT
BRANCH   1   9
ATOM      3  N   UNL     1      36.688  12.334   7.955  0.00  0.00    -0.299 N 
ATOM      4  C   UNL     1      35.792  11.285   8.442  0.00  0.00    +0.127 C 
ATOM      5  C   UNL     1      35.692  11.280   9.970  0.00  0.00    +0.129 C 
ATOM      6  N   UNL     1      35.217  12.584  10.425  0.00  0.00    -0.275 N 
ATOM      7  C   UNL     1      34.124  12.667  11.276  0.00  0.00    +0.303 C 
ATOM      8  O   UNL     1      33.542  11.684  11.715  0.00  0.00    -0.253 OA
ATOM      9  N   UNL     1      33.718  13.947  11.564  0.00  0.00    -0.293 N 
ATOM     10  C   UNL     1      35.962  13.728   9.897  0.00  0.00    +0.205 C 
ATOM     11  C   UNL     1      36.905  13.489   8.703  0.00  0.00    +0.233 C 
ATOM     12  O   UNL     1      37.710  14.357   8.361  0.00  0.00    -0.274 OA
ATOM     13  H   UNL     1      34.455  14.631  11.537  0.00  0.00    +0.151 HD
BRANCH   3  15
ATOM     14  C   UNL     1      35.943  11.838   5.653  0.00  0.00    +0.024 C 
ATOM     15  C   UNL     1      37.072  12.337   6.545  0.00  0.00    +0.104 C 
ENDBRANCH   3  15
ENDBRANCH   1   9
BRANCH   1  16
ATOM     16  C   UNL     1      33.007  15.618  13.153  0.00  0.00    -0.024 A 
ATOM     17  C   UNL     1      32.417  15.988  14.377  0.00  0.00    +0.009 A 
ATOM     18  C   UNL     1      32.642  17.243  14.935  0.00  0.00    +0.049 A 
ATOM     19  C   UNL     1      33.425  18.179  14.260  0.00  0.00    +0.156 A 
ATOM     20  C   UNL     1      34.067  17.798  13.078  0.00  0.00    +0.165 A 
ATOM     21  F   UNL     1      34.865  18.661  12.432  0.00  0.00    -0.202 F 
ATOM     22  C   UNL     1      33.861  16.531  12.522  0.00  0.00    +0.047 A 
BRANCH  19  23
ATOM     23  O   UNL     1      33.588  19.473  14.679  0.00  0.00    -0.489 OA
BRANCH  23  24
ATOM     24  C   UNL     1      32.386  20.249  14.685  0.00  0.00    +0.232 C 
BRANCH  24  25
ATOM     25  C   UNL     1      32.195  20.839  16.044  0.00  0.00    +0.027 C 
ATOM     26  C   UNL     1      32.509  20.029  17.274  0.00  0.00    +0.007 C 
ATOM     27  C   UNL     1      31.080  20.362  16.942  0.00  0.00    +0.007 C 
ENDBRANCH  24  25
ENDBRANCH  23  24
ENDBRANCH  19  23
ENDBRANCH   1  16
TORSDOF 6
ENDMDL
MODEL 6
REMARK VINA RESULT:      -5.6      3.167      3.803
REMARK  Name = ZINC000543478179
REMARK  8 active torsions:
REMARK  status: ('A' for Active; 'I' for Inactive)
REMARK    1  A    between atoms: C_1  and  C_2
REMARK    2  A    between atoms: C_2  and  N_3
REMARK    3  A    between atoms: N_9  and  C_10
REMARK    4  A    between atoms: C_10  and  C_11
REMARK    5  A    between atoms: C_10  and  C_12
REMARK    6  A    between atoms: C_15  and  O_16
REMARK    7  A    between atoms: O_16  and  C_17
REMARK    8  A    between atoms: C_17  and  C_18
REMARK                            x       y       z     vdW  Elec       q    Type
REMARK                         _______ _______ _______ _____ _____    ______ ____
ROOT
ATOM      1  C   UNL     1      32.602  20.849  16.236  0.00  0.00    +0.102 C 
ATOM      2  C   UNL     1      31.171  20.625  16.743  0.00  0.00    +0.033 C 
ENDROOT
BRANCH   1   9
ATOM      3  N   UNL     1      36.877  21.377  20.959  0.00  0.00    -0.299 N 
ATOM      4  C   UNL     1      36.669  22.613  20.205  0.00  0.00    +0.127 C 
ATOM      5  C   UNL     1      36.642  22.364  18.694  0.00  0.00    +0.129 C 
ATOM      6  N   UNL     1      35.581  21.412  18.382  0.00  0.00    -0.275 N 
ATOM      7  C   UNL     1      34.634  21.719  17.415  0.00  0.00    +0.303 C 
ATOM      8  O   UNL     1      34.659  22.752  16.759  0.00  0.00    -0.253 OA
ATOM      9  N   UNL     1      33.637  20.786  17.272  0.00  0.00    -0.293 N 
ATOM     10  C   UNL     1      35.609  20.179  19.172  0.00  0.00    +0.205 C 
ATOM     11  C   UNL     1      36.495  20.147  20.431  0.00  0.00    +0.233 C 
ATOM     12  O   UNL     1      36.723  19.080  21.003  0.00  0.00    -0.274 OA
ATOM     13  H   UNL     1      33.914  19.847  17.499  0.00  0.00    +0.151 HD
BRANCH   3  15
ATOM     14  C   UNL     1      35.867  21.512  23.210  0.00  0.00    +0.024 C 
ATOM     15  C   UNL     1      37.151  21.462  22.393  0.00  0.00    +0.104 C 
ENDBRANCH   3  15
ENDBRANCH   1   9
BRANCH   1  16
ATOM     16  C   UNL     1      32.942  19.804  15.180  0.00  0.00    -0.024 A 
ATOM     17  C   UNL     1      32.603  18.455  15.400  0.00  0.00    +0.009 A 
ATOM     18  C   UNL     1      32.973  17.462  14.498  0.00  0.00    +0.049 A 
ATOM     19  C   UNL     1      33.734  17.785  13.375  0.00  0.00    +0.156 A 
ATOM     20  C   UNL     1      34.020  19.128  13.114  0.00  0.00    +0.165 A 
ATOM     21  F   UNL     1      34.708  19.474  12.017  0.00  0.00    -0.202 F 
ATOM     22  C   UNL     1      33.633  20.134  14.006  0.00  0.00    +0.047 A 
BRANCH  19  23
ATOM     23  O   UNL     1      34.244  16.850  12.512  0.00  0.00    -0.489 OA
BRANCH  23  24
ATOM     24  C   UNL     1      33.855  15.504  12.801  0.00  0.00    +0.232 C 
BRANCH  24  25
ATOM     25  C   UNL     1      32.919  15.031  11.737  0.00  0.00    +0.027 C 
ATOM     26  C   UNL     1      31.429  15.108  11.947  0.00  0.00    +0.007 C 
ATOM     27  C   UNL     1      32.113  13.768  11.925  0.00  0.00    +0.007 C 
ENDBRANCH  24  25
ENDBRANCH  23  24
ENDBRANCH  19  23
ENDBRANCH   1  16
TORSDOF 6
ENDMDL
MODEL 7
REMARK VINA RESULT:      -5.5      6.253      7.970
REMARK  Name = ZINC000543478179
REMARK  8 active torsions:
REMARK  status: ('A' for Active; 'I' for Inactive)
REMARK    1  A    between atoms: C_1  and  C_2
REMARK    2  A    between atoms: C_2  and  N_3
REMARK    3  A    between atoms: N_9  and  C_10
REMARK    4  A    between atoms: C_10  and  C_11
REMARK    5  A    between atoms: C_10  and  C_12
REMARK    6  A    between atoms: C_15  and  O_16
REMARK    7  A    between atoms: O_16  and  C_17
REMARK    8  A    between atoms: C_17  and  C_18
REMARK                            x       y       z     vdW  Elec       q    Type
REMARK                         _______ _______ _______ _____ _____    ______ ____
ROOT
ATOM      1  C   UNL     1      33.650  23.911   9.872  0.00  0.00    +0.102 C 
ATOM      2  C   UNL     1      32.324  24.646   9.631  0.00  0.00    +0.033 C 
ENDROOT
BRANCH   1   9
ATOM      3  N   UNL     1      33.588  20.462  15.254  0.00  0.00    -0.299 N 
ATOM      4  C   UNL     1      34.418  21.665  15.328  0.00  0.00    +0.127 C 
ATOM      5  C   UNL     1      35.286  21.839  14.078  0.00  0.00    +0.129 C 
ATOM      6  N   UNL     1      34.425  21.906  12.900  0.00  0.00    -0.275 N 
ATOM      7  C   UNL     1      34.552  22.961  12.007  0.00  0.00    +0.303 C 
ATOM      8  O   UNL     1      35.392  23.842  12.127  0.00  0.00    -0.253 OA
ATOM      9  N   UNL     1      33.631  22.961  10.988  0.00  0.00    -0.293 N 
ATOM     10  C   UNL     1      33.456  20.815  12.784  0.00  0.00    +0.205 C 
ATOM     11  C   UNL     1      33.207  19.934  14.023  0.00  0.00    +0.233 C 
ATOM     12  O   UNL     1      32.573  18.882  13.921  0.00  0.00    -0.274 OA
ATOM     13  H   UNL     1      33.303  22.048  10.726  0.00  0.00    +0.151 HD
BRANCH   3  15
ATOM     14  C   UNL     1      31.508  20.698  16.566  0.00  0.00    +0.024 C 
ATOM     15  C   UNL     1      32.869  20.024  16.449  0.00  0.00    +0.104 C 
ENDBRANCH   3  15
ENDBRANCH   1   9
BRANCH   1  16
ATOM     16  C   UNL     1      34.044  23.140   8.617  0.00  0.00    -0.024 A 
ATOM     17  C   UNL     1      33.765  21.764   8.529  0.00  0.00    +0.009 A 
ATOM     18  C   UNL     1      34.186  21.011   7.437  0.00  0.00    +0.049 A 
ATOM     19  C   UNL     1      34.939  21.606   6.425  0.00  0.00    +0.156 A 
ATOM     20  C   UNL     1      35.165  22.985   6.472  0.00  0.00    +0.165 A 
ATOM     21  F   UNL     1      35.845  23.594   5.489  0.00  0.00    -0.202 F 
ATOM     22  C   UNL     1      34.728  23.751   7.557  0.00  0.00    +0.047 A 
BRANCH  19  23
ATOM     23  O   UNL     1      35.496  20.908   5.386  0.00  0.00    -0.489 OA
BRANCH  23  24
ATOM     24  C   UNL     1      36.792  20.367   5.664  0.00  0.00    +0.232 C 
BRANCH  24  25
ATOM     25  C   UNL     1      36.680  18.883   5.794  0.00  0.00    +0.027 C 
ATOM     26  C   UNL     1      36.694  18.238   7.155  0.00  0.00    +0.007 C 
ATOM     27  C   UNL     1      37.865  18.055   6.228  0.00  0.00    +0.007 C 
ENDBRANCH  24  25
ENDBRANCH  23  24
ENDBRANCH  19  23
ENDBRANCH   1  16
TORSDOF 6
ENDMDL
MODEL 8
REMARK VINA RESULT:      -5.5      5.030      9.199
REMARK  Name = ZINC000543478179
REMARK  8 active torsions:
REMARK  status: ('A' for Active; 'I' for Inactive)
REMARK    1  A    between atoms: C_1  and  C_2
REMARK    2  A    between atoms: C_2  and  N_3
REMARK    3  A    between atoms: N_9  and  C_10
REMARK    4  A    between atoms: C_10  and  C_11
REMARK    5  A    between atoms: C_10  and  C_12
REMARK    6  A    between atoms: C_15  and  O_16
REMARK    7  A    between atoms: O_16  and  C_17
REMARK    8  A    between atoms: C_17  and  C_18
REMARK                            x       y       z     vdW  Elec       q    Type
REMARK                         _______ _______ _______ _____ _____    ______ ____
ROOT
ATOM      1  C   UNL     1      33.435  20.662  13.487  0.00  0.00    +0.102 C 
ATOM      2  C   UNL     1      32.103  21.398  13.687  0.00  0.00    +0.033 C 
ENDROOT
BRANCH   1   9
ATOM      3  N   UNL     1      32.132  14.410  13.205  0.00  0.00    -0.299 N 
ATOM      4  C   UNL     1      31.582  15.080  14.384  0.00  0.00    +0.127 C 
ATOM      5  C   UNL     1      32.602  16.018  15.037  0.00  0.00    +0.129 C 
ATOM      6  N   UNL     1      33.032  17.015  14.060  0.00  0.00    -0.275 N 
ATOM      7  C   UNL     1      32.970  18.366  14.373  0.00  0.00    +0.303 C 
ATOM      8  O   UNL     1      32.606  18.783  15.465  0.00  0.00    -0.253 OA
ATOM      9  N   UNL     1      33.318  19.208  13.346  0.00  0.00    -0.293 N 
ATOM     10  C   UNL     1      33.486  16.466  12.781  0.00  0.00    +0.205 C 
ATOM     11  C   UNL     1      33.160  14.994  12.469  0.00  0.00    +0.233 C 
ATOM     12  O   UNL     1      33.698  14.426  11.517  0.00  0.00    -0.274 OA
ATOM     13  H   UNL     1      33.978  18.818  12.696  0.00  0.00    +0.151 HD
BRANCH   3  15
ATOM     14  C   UNL     1      30.127  13.825  11.886  0.00  0.00    +0.024 C 
ATOM     15  C   UNL     1      31.375  13.318  12.596  0.00  0.00    +0.104 C 
ENDBRANCH   3  15
ENDBRANCH   1   9
BRANCH   1  16
ATOM     16  C   UNL     1      34.132  21.192  12.239  0.00  0.00    -0.024 A 
ATOM     17  C   UNL     1      35.117  20.410  11.607  0.00  0.00    +0.009 A 
ATOM     18  C   UNL     1      35.834  20.896  10.517  0.00  0.00    +0.049 A 
ATOM     19  C   UNL     1      35.616  22.196  10.060  0.00  0.00    +0.156 A 
ATOM     20  C   UNL     1      34.596  22.955  10.639  0.00  0.00    +0.165 A 
ATOM     21  F   UNL     1      34.331  24.190  10.189  0.00  0.00    -0.202 F 
ATOM     22  C   UNL     1      33.858  22.465  11.722  0.00  0.00    +0.047 A 
BRANCH  19  23
ATOM     23  O   UNL     1      36.367  22.788   9.079  0.00  0.00    -0.489 OA
BRANCH  23  24
ATOM     24  C   UNL     1      36.524  21.999   7.895  0.00  0.00    +0.232 C 
BRANCH  24  25
ATOM     25  C   UNL     1      35.324  22.187   7.025  0.00  0.00    +0.027 C 
ATOM     26  C   UNL     1      34.080  21.372   7.261  0.00  0.00    +0.007 C 
ATOM     27  C   UNL     1      34.915  21.124   6.035  0.00  0.00    +0.007 C 
ENDBRANCH  24  25
ENDBRANCH  23  24
ENDBRANCH  19  23
ENDBRANCH   1  16
TORSDOF 6
ENDMDL
MODEL 9
REMARK VINA RESULT:      -5.5      4.058      7.148
REMARK  Name = ZINC000543478179
REMARK  8 active torsions:
REMARK  status: ('A' for Active; 'I' for Inactive)
REMARK    1  A    between atoms: C_1  and  C_2
REMARK    2  A    between atoms: C_2  and  N_3
REMARK    3  A    between atoms: N_9  and  C_10
REMARK    4  A    between atoms: C_10  and  C_11
REMARK    5  A    between atoms: C_10  and  C_12
REMARK    6  A    between atoms: C_15  and  O_16
REMARK    7  A    between atoms: O_16  and  C_17
REMARK    8  A    between atoms: C_17  and  C_18
REMARK                            x       y       z     vdW  Elec       q    Type
REMARK                         _______ _______ _______ _____ _____    ______ ____
ROOT
ATOM      1  C   UNL     1      32.040  20.992  15.436  0.00  0.00    +0.102 C 
ATOM      2  C   UNL     1      30.939  21.962  15.886  0.00  0.00    +0.033 C 
ENDROOT
BRANCH   1   9
ATOM      3  N   UNL     1      34.640  22.205   9.723  0.00  0.00    -0.299 N 
ATOM      4  C   UNL     1      34.249  20.808   9.914  0.00  0.00    +0.127 C 
ATOM      5  C   UNL     1      34.674  20.277  11.287  0.00  0.00    +0.129 C 
ATOM      6  N   UNL     1      34.072  21.104  12.329  0.00  0.00    -0.275 N 
ATOM      7  C   UNL     1      33.345  20.511  13.352  0.00  0.00    +0.303 C 
ATOM      8  O   UNL     1      33.208  19.300  13.461  0.00  0.00    -0.253 OA
ATOM      9  N   UNL     1      32.755  21.396  14.222  0.00  0.00    -0.293 N 
ATOM     10  C   UNL     1      34.287  22.544  12.173  0.00  0.00    +0.205 C 
ATOM     11  C   UNL     1      34.802  23.055  10.814  0.00  0.00    +0.233 C 
ATOM     12  O   UNL     1      35.202  24.214  10.697  0.00  0.00    -0.274 OA
ATOM     13  H   UNL     1      33.245  22.268  14.322  0.00  0.00    +0.151 HD
BRANCH   3  15
ATOM     14  C   UNL     1      33.070  23.172   8.079  0.00  0.00    +0.024 C 
ATOM     15  C   UNL     1      34.513  22.798   8.393  0.00  0.00    +0.104 C 
ENDBRANCH   3  15
ENDBRANCH   1   9
BRANCH   1  16
ATOM     16  C   UNL     1      33.071  20.834  16.548  0.00  0.00    -0.024 A 
ATOM     17  C   UNL     1      34.105  21.780  16.678  0.00  0.00    +0.009 A 
ATOM     18  C   UNL     1      35.112  21.622  17.626  0.00  0.00    +0.049 A 
ATOM     19  C   UNL     1      35.137  20.488  18.438  0.00  0.00    +0.156 A 
ATOM     20  C   UNL     1      34.080  19.577  18.361  0.00  0.00    +0.165 A 
ATOM     21  F   UNL     1      34.051  18.502  19.162  0.00  0.00    -0.202 F 
ATOM     22  C   UNL     1      33.054  19.740  17.423  0.00  0.00    +0.047 A 
BRANCH  19  23
ATOM     23  O   UNL     1      36.160  20.199  19.302  0.00  0.00    -0.489 OA
BRANCH  23  24
ATOM     24  C   UNL     1      36.296  21.122  20.387  0.00  0.00    +0.232 C 
BRANCH  24  25
ATOM     25  C   UNL     1      36.105  20.389  21.674  0.00  0.00    +0.027 C 
ATOM     26  C   UNL     1      35.830  21.147  22.947  0.00  0.00    +0.007 C 
ATOM     27  C   UNL     1      37.151  20.451  22.761  0.00  0.00    +0.007 C 
ENDBRANCH  24  25
ENDBRANCH  23  24
ENDBRANCH  19  23
ENDBRANCH   1  16
TORSDOF 6
ENDMDL
