MODEL 1
REMARK VINA RESULT:      -6.8      0.000      0.000
REMARK  Name = ZINC001228612316
REMARK  5 active torsions:
REMARK  status: ('A' for Active; 'I' for Inactive)
REMARK    1  A    between atoms: C_2  and  C_4
REMARK    2  A    between atoms: C_8  and  O_9
REMARK    3  A    between atoms: O_9  and  C_10
REMARK    4  A    between atoms: C_10  and  C_11
REMARK    5  A    between atoms: C_10  and  C_17
REMARK                            x       y       z     vdW  Elec       q    Type
REMARK                         _______ _______ _______ _____ _____    ______ ____
ROOT
ATOM      1  C   UNL     1      28.562  22.281  17.803  0.00  0.00    +0.040 A 
ATOM      2  C   UNL     1      28.983  23.024  18.911  0.00  0.00    +0.013 A 
ATOM      3  C   UNL     1      30.329  23.362  19.055  0.00  0.00    +0.004 A 
ATOM      4  C   UNL     1      31.262  22.962  18.095  0.00  0.00    +0.046 A 
ATOM      5  C   UNL     1      30.855  22.217  16.988  0.00  0.00    +0.122 A 
ATOM      6  C   UNL     1      29.503  21.881  16.845  0.00  0.00    +0.058 A 
ENDROOT
BRANCH   1   8
ATOM      7  N   UNL     1      26.309  22.271  18.748  0.00  0.00    -0.325 N 
ATOM      8  C   UNL     1      27.114  21.960  17.685  0.00  0.00    +0.242 C 
ATOM      9  O   UNL     1      26.643  21.472  16.665  0.00  0.00    -0.270 OA
ATOM     10  H   UNL     1      25.315  22.143  18.606  0.00  0.00    +0.145 HD
ATOM     11  H   UNL     1      26.602  22.881  19.495  0.00  0.00    +0.145 HD
ENDBRANCH   1   8
BRANCH   5  12
ATOM     12  O   UNL     1      31.681  21.707  16.024  0.00  0.00    -0.484 OA
BRANCH  12  13
ATOM     13  C   UNL     1      31.104  21.252  14.788  0.00  0.00    +0.208 C 
BRANCH  13  14
ATOM     14  C   UNL     1      31.452  22.133  13.604  0.00  0.00    +0.011 A 
ATOM     15  C   UNL     1      30.631  23.170  13.152  0.00  0.00    +0.010 A 
ATOM     16  C   UNL     1      31.066  23.989  12.112  0.00  0.00    +0.020 A 
ATOM     17  C   UNL     1      32.311  23.747  11.557  0.00  0.00    +0.111 A 
ATOM     18  N   UNL     1      33.128  22.751  11.957  0.00  0.00    -0.263 NA
ATOM     19  C   UNL     1      32.683  21.974  12.967  0.00  0.00    +0.118 A 
ENDBRANCH  13  14
BRANCH  13  20
ATOM     20  C   UNL     1      31.620  19.851  14.478  0.00  0.00    +0.034 C 
ATOM     21  C   UNL     1      30.813  18.910  13.616  0.00  0.00    +0.008 C 
ATOM     22  C   UNL     1      31.018  18.598  15.073  0.00  0.00    +0.008 C 
ENDBRANCH  13  20
ENDBRANCH  12  13
ENDBRANCH   5  12
TORSDOF 5
ENDMDL
MODEL 2
REMARK VINA RESULT:      -6.6      2.123      3.757
REMARK  Name = ZINC001228612316
REMARK  5 active torsions:
REMARK  status: ('A' for Active; 'I' for Inactive)
REMARK    1  A    between atoms: C_2  and  C_4
REMARK    2  A    between atoms: C_8  and  O_9
REMARK    3  A    between atoms: O_9  and  C_10
REMARK    4  A    between atoms: C_10  and  C_11
REMARK    5  A    between atoms: C_10  and  C_17
REMARK                            x       y       z     vdW  Elec       q    Type
REMARK                         _______ _______ _______ _____ _____    ______ ____
ROOT
ATOM      1  C   UNL     1      28.233  22.089  17.368  0.00  0.00    +0.040 A 
ATOM      2  C   UNL     1      29.031  22.696  18.344  0.00  0.00    +0.013 A 
ATOM      3  C   UNL     1      30.399  22.861  18.126  0.00  0.00    +0.004 A 
ATOM      4  C   UNL     1      30.980  22.422  16.934  0.00  0.00    +0.046 A 
ATOM      5  C   UNL     1      30.196  21.812  15.955  0.00  0.00    +0.122 A 
ATOM      6  C   UNL     1      28.822  21.649  16.175  0.00  0.00    +0.058 A 
ENDROOT
BRANCH   1   8
ATOM      7  N   UNL     1      26.329  22.314  18.881  0.00  0.00    -0.325 N 
ATOM      8  C   UNL     1      26.777  21.952  17.640  0.00  0.00    +0.242 C 
ATOM      9  O   UNL     1      25.994  21.566  16.780  0.00  0.00    -0.270 OA
ATOM     10  H   UNL     1      25.325  22.314  19.009  0.00  0.00    +0.145 HD
ATOM     11  H   UNL     1      26.885  22.854  19.527  0.00  0.00    +0.145 HD
ENDBRANCH   1   8
BRANCH   5  12
ATOM     12  O   UNL     1      30.658  21.277  14.783  0.00  0.00    -0.484 OA
BRANCH  12  13
ATOM     13  C   UNL     1      31.947  20.643  14.771  0.00  0.00    +0.208 C 
BRANCH  13  14
ATOM     14  C   UNL     1      31.889  19.160  15.085  0.00  0.00    +0.011 A 
ATOM     15  C   UNL     1      31.099  18.255  14.370  0.00  0.00    +0.010 A 
ATOM     16  C   UNL     1      31.170  16.896  14.665  0.00  0.00    +0.020 A 
ATOM     17  C   UNL     1      32.034  16.482  15.667  0.00  0.00    +0.111 A 
ATOM     18  N   UNL     1      32.805  17.323  16.385  0.00  0.00    -0.263 NA
ATOM     19  C   UNL     1      32.717  18.635  16.077  0.00  0.00    +0.118 A 
ENDBRANCH  13  14
BRANCH  13  20
ATOM     20  C   UNL     1      32.569  20.789  13.386  0.00  0.00    +0.034 C 
ATOM     21  C   UNL     1      34.052  20.588  13.186  0.00  0.00    +0.008 C 
ATOM     22  C   UNL     1      33.451  21.954  12.995  0.00  0.00    +0.008 C 
ENDBRANCH  13  20
ENDBRANCH  12  13
ENDBRANCH   5  12
TORSDOF 5
ENDMDL
MODEL 3
REMARK VINA RESULT:      -6.5      3.014      5.675
REMARK  Name = ZINC001228612316
REMARK  5 active torsions:
REMARK  status: ('A' for Active; 'I' for Inactive)
REMARK    1  A    between atoms: C_2  and  C_4
REMARK    2  A    between atoms: C_8  and  O_9
REMARK    3  A    between atoms: O_9  and  C_10
REMARK    4  A    between atoms: C_10  and  C_11
REMARK    5  A    between atoms: C_10  and  C_17
REMARK                            x       y       z     vdW  Elec       q    Type
REMARK                         _______ _______ _______ _____ _____    ______ ____
ROOT
ATOM      1  C   UNL     1      28.471  21.880  17.027  0.00  0.00    +0.040 A 
ATOM      2  C   UNL     1      28.724  21.248  15.805  0.00  0.00    +0.013 A 
ATOM      3  C   UNL     1      30.027  21.181  15.309  0.00  0.00    +0.004 A 
ATOM      4  C   UNL     1      31.084  21.743  16.029  0.00  0.00    +0.046 A 
ATOM      5  C   UNL     1      30.843  22.380  17.247  0.00  0.00    +0.122 A 
ATOM      6  C   UNL     1      29.534  22.443  17.743  0.00  0.00    +0.058 A 
ENDROOT
BRANCH   1   8
ATOM      7  N   UNL     1      26.864  22.280  18.824  0.00  0.00    -0.325 N 
ATOM      8  C   UNL     1      27.068  21.910  17.521  0.00  0.00    +0.242 C 
ATOM      9  O   UNL     1      26.121  21.652  16.789  0.00  0.00    -0.270 OA
ATOM     10  H   UNL     1      25.900  22.396  19.107  0.00  0.00    +0.145 HD
ATOM     11  H   UNL     1      27.575  22.725  19.383  0.00  0.00    +0.145 HD
ENDBRANCH   1   8
BRANCH   5  12
ATOM     12  O   UNL     1      31.779  23.028  18.006  0.00  0.00    -0.484 OA
BRANCH  12  13
ATOM     13  C   UNL     1      32.097  22.508  19.308  0.00  0.00    +0.208 C 
BRANCH  13  14
ATOM     14  C   UNL     1      33.572  22.212  19.491  0.00  0.00    +0.011 A 
ATOM     15  C   UNL     1      34.058  20.982  19.943  0.00  0.00    +0.010 A 
ATOM     16  C   UNL     1      35.433  20.762  19.999  0.00  0.00    +0.020 A 
ATOM     17  C   UNL     1      36.281  21.782  19.599  0.00  0.00    +0.111 A 
ATOM     18  N   UNL     1      35.853  22.986  19.167  0.00  0.00    -0.263 NA
ATOM     19  C   UNL     1      34.516  23.171  19.121  0.00  0.00    +0.118 A 
ENDBRANCH  13  14
BRANCH  13  20
ATOM     20  C   UNL     1      31.704  23.531  20.369  0.00  0.00    +0.034 C 
ATOM     21  C   UNL     1      31.689  23.152  21.830  0.00  0.00    +0.008 C 
ATOM     22  C   UNL     1      30.397  23.473  21.129  0.00  0.00    +0.008 C 
ENDBRANCH  13  20
ENDBRANCH  12  13
ENDBRANCH   5  12
TORSDOF 5
ENDMDL
MODEL 4
REMARK VINA RESULT:      -6.4      2.196      3.053
REMARK  Name = ZINC001228612316
REMARK  5 active torsions:
REMARK  status: ('A' for Active; 'I' for Inactive)
REMARK    1  A    between atoms: C_2  and  C_4
REMARK    2  A    between atoms: C_8  and  O_9
REMARK    3  A    between atoms: O_9  and  C_10
REMARK    4  A    between atoms: C_10  and  C_11
REMARK    5  A    between atoms: C_10  and  C_17
REMARK                            x       y       z     vdW  Elec       q    Type
REMARK                         _______ _______ _______ _____ _____    ______ ____
ROOT
ATOM      1  C   UNL     1      28.618  22.295  17.711  0.00  0.00    +0.040 A 
ATOM      2  C   UNL     1      29.069  23.128  18.741  0.00  0.00    +0.013 A 
ATOM      3  C   UNL     1      30.420  23.469  18.825  0.00  0.00    +0.004 A 
ATOM      4  C   UNL     1      31.328  22.981  17.881  0.00  0.00    +0.046 A 
ATOM      5  C   UNL     1      30.891  22.147  16.852  0.00  0.00    +0.122 A 
ATOM      6  C   UNL     1      29.534  21.809  16.770  0.00  0.00    +0.058 A 
ENDROOT
BRANCH   1   8
ATOM      7  N   UNL     1      26.410  22.279  18.755  0.00  0.00    -0.325 N 
ATOM      8  C   UNL     1      27.166  21.976  17.656  0.00  0.00    +0.242 C 
ATOM      9  O   UNL     1      26.650  21.495  16.654  0.00  0.00    -0.270 OA
ATOM     10  H   UNL     1      25.410  22.152  18.656  0.00  0.00    +0.145 HD
ATOM     11  H   UNL     1      26.735  22.884  19.493  0.00  0.00    +0.145 HD
ENDBRANCH   1   8
BRANCH   5  12
ATOM     12  O   UNL     1      31.691  21.551  15.916  0.00  0.00    -0.484 OA
BRANCH  12  13
ATOM     13  C   UNL     1      32.087  20.184  16.112  0.00  0.00    +0.208 C 
BRANCH  13  14
ATOM     14  C   UNL     1      32.040  19.357  14.841  0.00  0.00    +0.011 A 
ATOM     15  C   UNL     1      31.112  18.335  14.624  0.00  0.00    +0.010 A 
ATOM     16  C   UNL     1      31.080  17.683  13.393  0.00  0.00    +0.020 A 
ATOM     17  C   UNL     1      31.978  18.077  12.414  0.00  0.00    +0.111 A 
ATOM     18  N   UNL     1      32.895  19.051  12.587  0.00  0.00    -0.263 NA
ATOM     19  C   UNL     1      32.902  19.667  13.789  0.00  0.00    +0.118 A 
ENDBRANCH  13  14
BRANCH  13  20
ATOM     20  C   UNL     1      33.522  20.143  16.626  0.00  0.00    +0.034 C 
ATOM     21  C   UNL     1      34.056  18.909  17.313  0.00  0.00    +0.008 C 
ATOM     22  C   UNL     1      33.874  20.180  18.097  0.00  0.00    +0.008 C 
ENDBRANCH  13  20
ENDBRANCH  12  13
ENDBRANCH   5  12
TORSDOF 5
ENDMDL
MODEL 5
REMARK VINA RESULT:      -6.4      2.324      4.075
REMARK  Name = ZINC001228612316
REMARK  5 active torsions:
REMARK  status: ('A' for Active; 'I' for Inactive)
REMARK    1  A    between atoms: C_2  and  C_4
REMARK    2  A    between atoms: C_8  and  O_9
REMARK    3  A    between atoms: O_9  and  C_10
REMARK    4  A    between atoms: C_10  and  C_11
REMARK    5  A    between atoms: C_10  and  C_17
REMARK                            x       y       z     vdW  Elec       q    Type
REMARK                         _______ _______ _______ _____ _____    ______ ____
ROOT
ATOM      1  C   UNL     1      29.237  22.881  18.650  0.00  0.00    +0.040 A 
ATOM      2  C   UNL     1      27.951  22.679  19.163  0.00  0.00    +0.013 A 
ATOM      3  C   UNL     1      26.982  22.038  18.390  0.00  0.00    +0.004 A 
ATOM      4  C   UNL     1      27.290  21.594  17.102  0.00  0.00    +0.046 A 
ATOM      5  C   UNL     1      28.568  21.794  16.578  0.00  0.00    +0.122 A 
ATOM      6  C   UNL     1      29.539  22.436  17.357  0.00  0.00    +0.058 A 
ENDROOT
BRANCH   1   8
ATOM      7  N   UNL     1      31.177  24.343  18.910  0.00  0.00    -0.325 N 
ATOM      8  C   UNL     1      30.239  23.554  19.520  0.00  0.00    +0.242 C 
ATOM      9  O   UNL     1      30.212  23.442  20.740  0.00  0.00    -0.270 OA
ATOM     10  H   UNL     1      31.780  24.873  19.526  0.00  0.00    +0.145 HD
ATOM     11  H   UNL     1      31.093  24.652  17.954  0.00  0.00    +0.145 HD
ENDBRANCH   1   8
BRANCH   5  12
ATOM     12  O   UNL     1      28.968  21.471  15.309  0.00  0.00    -0.484 OA
BRANCH  12  13
ATOM     13  C   UNL     1      30.372  21.481  15.002  0.00  0.00    +0.208 C 
BRANCH  13  14
ATOM     14  C   UNL     1      30.977  20.094  14.919  0.00  0.00    +0.011 A 
ATOM     15  C   UNL     1      30.614  19.154  13.950  0.00  0.00    +0.010 A 
ATOM     16  C   UNL     1      31.282  17.933  13.888  0.00  0.00    +0.020 A 
ATOM     17  C   UNL     1      32.298  17.690  14.799  0.00  0.00    +0.111 A 
ATOM     18  N   UNL     1      32.672  18.565  15.754  0.00  0.00    -0.263 NA
ATOM     19  C   UNL     1      32.009  19.741  15.790  0.00  0.00    +0.118 A 
ENDBRANCH  13  14
BRANCH  13  20
ATOM     20  C   UNL     1      30.587  22.152  13.649  0.00  0.00    +0.034 C 
ATOM     21  C   UNL     1      31.959  22.634  13.243  0.00  0.00    +0.008 C 
ATOM     22  C   UNL     1      30.861  23.631  13.495  0.00  0.00    +0.008 C 
ENDBRANCH  13  20
ENDBRANCH  12  13
ENDBRANCH   5  12
TORSDOF 5
ENDMDL
MODEL 6
REMARK VINA RESULT:      -6.2      2.981      6.308
REMARK  Name = ZINC001228612316
REMARK  5 active torsions:
REMARK  status: ('A' for Active; 'I' for Inactive)
REMARK    1  A    between atoms: C_2  and  C_4
REMARK    2  A    between atoms: C_8  and  O_9
REMARK    3  A    between atoms: O_9  and  C_10
REMARK    4  A    between atoms: C_10  and  C_11
REMARK    5  A    between atoms: C_10  and  C_17
REMARK                            x       y       z     vdW  Elec       q    Type
REMARK                         _______ _______ _______ _____ _____    ______ ____
ROOT
ATOM      1  C   UNL     1      32.149  23.611  11.090  0.00  0.00    +0.040 A 
ATOM      2  C   UNL     1      31.326  24.716  11.333  0.00  0.00    +0.013 A 
ATOM      3  C   UNL     1      30.682  24.851  12.563  0.00  0.00    +0.004 A 
ATOM      4  C   UNL     1      30.856  23.887  13.559  0.00  0.00    +0.046 A 
ATOM      5  C   UNL     1      31.671  22.779  13.327  0.00  0.00    +0.122 A 
ATOM      6  C   UNL     1      32.318  22.646  12.092  0.00  0.00    +0.058 A 
ENDROOT
BRANCH   1   8
ATOM      7  N   UNL     1      33.384  24.665   9.265  0.00  0.00    -0.325 N 
ATOM      8  C   UNL     1      32.828  23.521   9.769  0.00  0.00    +0.242 C 
ATOM      9  O   UNL     1      32.923  22.459   9.165  0.00  0.00    -0.270 OA
ATOM     10  H   UNL     1      33.931  24.559   8.420  0.00  0.00    +0.145 HD
ATOM     11  H   UNL     1      33.540  25.490   9.824  0.00  0.00    +0.145 HD
ENDBRANCH   1   8
BRANCH   5  12
ATOM     12  O   UNL     1      31.862  21.735  14.192  0.00  0.00    -0.484 OA
BRANCH  12  13
ATOM     13  C   UNL     1      30.797  20.790  14.384  0.00  0.00    +0.208 C 
BRANCH  13  14
ATOM     14  C   UNL     1      31.222  19.353  14.156  0.00  0.00    +0.011 A 
ATOM     15  C   UNL     1      30.810  18.293  14.968  0.00  0.00    +0.010 A 
ATOM     16  C   UNL     1      31.175  16.989  14.637  0.00  0.00    +0.020 A 
ATOM     17  C   UNL     1      31.939  16.786  13.500  0.00  0.00    +0.111 A 
ATOM     18  N   UNL     1      32.365  17.781  12.696  0.00  0.00    -0.263 NA
ATOM     19  C   UNL     1      31.996  19.034  13.039  0.00  0.00    +0.118 A 
ENDBRANCH  13  14
BRANCH  13  20
ATOM     20  C   UNL     1      30.287  20.890  15.818  0.00  0.00    +0.034 C 
ATOM     21  C   UNL     1      28.897  21.405  16.103  0.00  0.00    +0.008 C 
ATOM     22  C   UNL     1      30.094  22.207  16.536  0.00  0.00    +0.008 C 
ENDBRANCH  13  20
ENDBRANCH  12  13
ENDBRANCH   5  12
TORSDOF 5
ENDMDL
MODEL 7
REMARK VINA RESULT:      -6.2      2.579      4.414
REMARK  Name = ZINC001228612316
REMARK  5 active torsions:
REMARK  status: ('A' for Active; 'I' for Inactive)
REMARK    1  A    between atoms: C_2  and  C_4
REMARK    2  A    between atoms: C_8  and  O_9
REMARK    3  A    between atoms: O_9  and  C_10
REMARK    4  A    between atoms: C_10  and  C_11
REMARK    5  A    between atoms: C_10  and  C_17
REMARK                            x       y       z     vdW  Elec       q    Type
REMARK                         _______ _______ _______ _____ _____    ______ ____
ROOT
ATOM      1  C   UNL     1      30.032  22.793  18.114  0.00  0.00    +0.040 A 
ATOM      2  C   UNL     1      28.671  22.705  18.429  0.00  0.00    +0.013 A 
ATOM      3  C   UNL     1      27.793  22.055  17.561  0.00  0.00    +0.004 A 
ATOM      4  C   UNL     1      28.267  21.489  16.375  0.00  0.00    +0.046 A 
ATOM      5  C   UNL     1      29.620  21.574  16.048  0.00  0.00    +0.122 A 
ATOM      6  C   UNL     1      30.500  22.226  16.922  0.00  0.00    +0.058 A 
ENDROOT
BRANCH   1   8
ATOM      7  N   UNL     1      31.677  24.529  18.613  0.00  0.00    -0.325 N 
ATOM      8  C   UNL     1      30.930  23.481  19.080  0.00  0.00    +0.242 C 
ATOM      9  O   UNL     1      30.979  23.154  20.260  0.00  0.00    -0.270 OA
ATOM     10  H   UNL     1      32.198  25.048  19.308  0.00  0.00    +0.145 HD
ATOM     11  H   UNL     1      31.494  24.980  17.730  0.00  0.00    +0.145 HD
ENDBRANCH   1   8
BRANCH   5  12
ATOM     12  O   UNL     1      30.189  21.126  14.887  0.00  0.00    -0.484 OA
BRANCH  12  13
ATOM     13  C   UNL     1      31.550  20.664  14.915  0.00  0.00    +0.208 C 
BRANCH  13  14
ATOM     14  C   UNL     1      31.671  19.171  15.152  0.00  0.00    +0.011 A 
ATOM     15  C   UNL     1      30.978  18.216  14.404  0.00  0.00    +0.010 A 
ATOM     16  C   UNL     1      31.214  16.861  14.627  0.00  0.00    +0.020 A 
ATOM     17  C   UNL     1      32.141  16.503  15.592  0.00  0.00    +0.111 A 
ATOM     18  N   UNL     1      32.823  17.392  16.341  0.00  0.00    -0.263 NA
ATOM     19  C   UNL     1      32.576  18.698  16.103  0.00  0.00    +0.118 A 
ENDBRANCH  13  14
BRANCH  13  20
ATOM     20  C   UNL     1      32.213  20.966  13.576  0.00  0.00    +0.034 C 
ATOM     21  C   UNL     1      33.708  20.832  13.413  0.00  0.00    +0.008 C 
ATOM     22  C   UNL     1      33.067  22.191  13.334  0.00  0.00    +0.008 C 
ENDBRANCH  13  20
ENDBRANCH  12  13
ENDBRANCH   5  12
TORSDOF 5
ENDMDL
MODEL 8
REMARK VINA RESULT:      -6.2      2.227      6.246
REMARK  Name = ZINC001228612316
REMARK  5 active torsions:
REMARK  status: ('A' for Active; 'I' for Inactive)
REMARK    1  A    between atoms: C_2  and  C_4
REMARK    2  A    between atoms: C_8  and  O_9
REMARK    3  A    between atoms: O_9  and  C_10
REMARK    4  A    between atoms: C_10  and  C_11
REMARK    5  A    between atoms: C_10  and  C_17
REMARK                            x       y       z     vdW  Elec       q    Type
REMARK                         _______ _______ _______ _____ _____    ______ ____
ROOT
ATOM      1  C   UNL     1      32.219  23.227  11.310  0.00  0.00    +0.040 A 
ATOM      2  C   UNL     1      31.929  24.586  11.143  0.00  0.00    +0.013 A 
ATOM      3  C   UNL     1      31.010  25.214  11.984  0.00  0.00    +0.004 A 
ATOM      4  C   UNL     1      30.375  24.491  12.997  0.00  0.00    +0.046 A 
ATOM      5  C   UNL     1      30.652  23.135  13.170  0.00  0.00    +0.122 A 
ATOM      6  C   UNL     1      31.577  22.508  12.326  0.00  0.00    +0.058 A 
ENDROOT
BRANCH   1   8
ATOM      7  N   UNL     1      32.831  21.501   9.693  0.00  0.00    -0.325 N 
ATOM      8  C   UNL     1      33.219  22.608  10.399  0.00  0.00    +0.242 C 
ATOM      9  O   UNL     1      34.337  23.085  10.250  0.00  0.00    -0.270 OA
ATOM     10  H   UNL     1      33.489  21.161   9.003  0.00  0.00    +0.145 HD
ATOM     11  H   UNL     1      31.867  21.222   9.601  0.00  0.00    +0.145 HD
ENDBRANCH   1   8
BRANCH   5  12
ATOM     12  O   UNL     1      30.044  22.307  14.074  0.00  0.00    -0.484 OA
BRANCH  12  13
ATOM     13  C   UNL     1      30.843  21.695  15.100  0.00  0.00    +0.208 C 
BRANCH  13  14
ATOM     14  C   UNL     1      30.606  22.284  16.477  0.00  0.00    +0.011 A 
ATOM     15  C   UNL     1      29.332  22.516  17.003  0.00  0.00    +0.010 A 
ATOM     16  C   UNL     1      29.200  22.977  18.311  0.00  0.00    +0.020 A 
ATOM     17  C   UNL     1      30.350  23.191  19.055  0.00  0.00    +0.111 A 
ATOM     18  N   UNL     1      31.596  22.989  18.581  0.00  0.00    -0.263 NA
ATOM     19  C   UNL     1      31.694  22.540  17.311  0.00  0.00    +0.118 A 
ENDBRANCH  13  14
BRANCH  13  20
ATOM     20  C   UNL     1      30.509  20.209  15.180  0.00  0.00    +0.034 C 
ATOM     21  C   UNL     1      31.602  19.187  15.386  0.00  0.00    +0.008 C 
ATOM     22  C   UNL     1      30.852  19.225  14.083  0.00  0.00    +0.008 C 
ENDBRANCH  13  20
ENDBRANCH  12  13
ENDBRANCH   5  12
TORSDOF 5
ENDMDL
MODEL 9
REMARK VINA RESULT:      -6.1      1.660      2.370
REMARK  Name = ZINC001228612316
REMARK  5 active torsions:
REMARK  status: ('A' for Active; 'I' for Inactive)
REMARK    1  A    between atoms: C_2  and  C_4
REMARK    2  A    between atoms: C_8  and  O_9
REMARK    3  A    between atoms: O_9  and  C_10
REMARK    4  A    between atoms: C_10  and  C_11
REMARK    5  A    between atoms: C_10  and  C_17
REMARK                            x       y       z     vdW  Elec       q    Type
REMARK                         _______ _______ _______ _____ _____    ______ ____
ROOT
ATOM      1  C   UNL     1      29.086  22.700  18.198  0.00  0.00    +0.040 A 
ATOM      2  C   UNL     1      27.898  22.100  17.763  0.00  0.00    +0.013 A 
ATOM      3  C   UNL     1      27.867  21.409  16.552  0.00  0.00    +0.004 A 
ATOM      4  C   UNL     1      29.019  21.311  15.767  0.00  0.00    +0.046 A 
ATOM      5  C   UNL     1      30.207  21.908  16.187  0.00  0.00    +0.122 A 
ATOM      6  C   UNL     1      30.236  22.600  17.406  0.00  0.00    +0.058 A 
ENDROOT
BRANCH   1   8
ATOM      7  N   UNL     1      27.971  24.165  19.803  0.00  0.00    -0.325 N 
ATOM      8  C   UNL     1      29.073  23.410  19.505  0.00  0.00    +0.242 C 
ATOM      9  O   UNL     1      29.992  23.299  20.308  0.00  0.00    -0.270 OA
ATOM     10  H   UNL     1      27.937  24.552  20.738  0.00  0.00    +0.145 HD
ATOM     11  H   UNL     1      27.105  24.094  19.292  0.00  0.00    +0.145 HD
ENDBRANCH   1   8
BRANCH   5  12
ATOM     12  O   UNL     1      31.376  21.944  15.477  0.00  0.00    -0.484 OA
BRANCH  12  13
ATOM     13  C   UNL     1      31.384  21.441  14.131  0.00  0.00    +0.208 C 
BRANCH  13  14
ATOM     14  C   UNL     1      31.707  22.502  13.096  0.00  0.00    +0.011 A 
ATOM     15  C   UNL     1      32.836  22.453  12.273  0.00  0.00    +0.010 A 
ATOM     16  C   UNL     1      33.013  23.421  11.287  0.00  0.00    +0.020 A 
ATOM     17  C   UNL     1      32.052  24.410  11.153  0.00  0.00    +0.111 A 
ATOM     18  N   UNL     1      30.955  24.498  11.933  0.00  0.00    -0.263 NA
ATOM     19  C   UNL     1      30.808  23.546  12.879  0.00  0.00    +0.118 A 
ENDBRANCH  13  14
BRANCH  13  20
ATOM     20  C   UNL     1      32.443  20.350  14.007  0.00  0.00    +0.034 C 
ATOM     21  C   UNL     1      32.135  19.062  13.281  0.00  0.00    +0.008 C 
ATOM     22  C   UNL     1      32.376  19.044  14.766  0.00  0.00    +0.008 C 
ENDBRANCH  13  20
ENDBRANCH  12  13
ENDBRANCH   5  12
TORSDOF 5
ENDMDL
