MODEL 1
REMARK VINA RESULT:      -7.1      0.000      0.000
REMARK  Name = ZINC000543478179
REMARK  8 active torsions:
REMARK  status: ('A' for Active; 'I' for Inactive)
REMARK    1  A    between atoms: C_1  and  C_2
REMARK    2  A    between atoms: C_2  and  N_3
REMARK    3  A    between atoms: N_9  and  C_10
REMARK    4  A    between atoms: C_10  and  C_11
REMARK    5  A    between atoms: C_10  and  C_12
REMARK    6  A    between atoms: C_15  and  O_16
REMARK    7  A    between atoms: O_16  and  C_17
REMARK    8  A    between atoms: C_17  and  C_18
REMARK                            x       y       z     vdW  Elec       q    Type
REMARK                         _______ _______ _______ _____ _____    ______ ____
ROOT
ATOM      1  C   UNL     1      30.629  23.705  13.176  0.00  0.00    +0.102 C 
ATOM      2  C   UNL     1      29.852  24.957  12.764  0.00  0.00    +0.033 C 
ENDROOT
BRANCH   1   9
ATOM      3  N   UNL     1      34.249  22.602   9.268  0.00  0.00    -0.299 N 
ATOM      4  C   UNL     1      35.193  22.806  10.366  0.00  0.00    +0.127 C 
ATOM      5  C   UNL     1      34.810  24.012  11.228  0.00  0.00    +0.129 C 
ATOM      6  N   UNL     1      33.450  23.854  11.752  0.00  0.00    -0.275 N 
ATOM      7  C   UNL     1      33.207  24.125  13.069  0.00  0.00    +0.303 C 
ATOM      8  O   UNL     1      34.112  24.480  13.831  0.00  0.00    -0.253 OA
ATOM      9  N   UNL     1      31.983  24.011  13.628  0.00  0.00    -0.293 N 
ATOM     10  C   UNL     1      32.468  23.427  10.768  0.00  0.00    +0.205 C 
ATOM     11  C   UNL     1      32.929  22.993   9.377  0.00  0.00    +0.233 C 
ATOM     12  O   UNL     1      32.112  22.885   8.459  0.00  0.00    -0.274 OA
ATOM     13  H   UNL     1      32.059  24.241  14.612  0.00  0.00    +0.151 HD
BRANCH   3  15
ATOM     14  C   UNL     1      34.584  20.438   8.175  0.00  0.00    +0.024 C 
ATOM     15  C   UNL     1      34.692  21.947   8.052  0.00  0.00    +0.104 C 
ENDBRANCH   3  15
ENDBRANCH   1   9
BRANCH   1  16
ATOM     16  C   UNL     1      29.896  22.900  14.234  0.00  0.00    -0.024 A 
ATOM     17  C   UNL     1      29.225  21.712  13.921  0.00  0.00    +0.009 A 
ATOM     18  C   UNL     1      28.540  20.996  14.903  0.00  0.00    +0.049 A 
ATOM     19  C   UNL     1      28.477  21.477  16.218  0.00  0.00    +0.156 A 
ATOM     20  C   UNL     1      29.177  22.638  16.538  0.00  0.00    +0.165 A 
ATOM     21  F   UNL     1      29.175  23.108  17.796  0.00  0.00    -0.202 F 
ATOM     22  C   UNL     1      29.869  23.353  15.564  0.00  0.00    +0.047 A 
BRANCH  19  23
ATOM     23  O   UNL     1      27.763  20.885  17.223  0.00  0.00    -0.489 OA
BRANCH  23  24
ATOM     24  C   UNL     1      26.353  20.830  17.009  0.00  0.00    +0.232 C 
BRANCH  24  25
ATOM     25  C   UNL     1      25.790  22.215  17.057  0.00  0.00    +0.027 C 
ATOM     26  C   UNL     1      25.836  22.985  18.353  0.00  0.00    +0.007 C 
ATOM     27  C   UNL     1      24.519  22.494  17.819  0.00  0.00    +0.007 C 
ENDBRANCH  24  25
ENDBRANCH  23  24
ENDBRANCH  19  23
ENDBRANCH   1  16
TORSDOF 6
ENDMDL
MODEL 2
REMARK VINA RESULT:      -7.0      3.300      8.665
REMARK  Name = ZINC000543478179
REMARK  8 active torsions:
REMARK  status: ('A' for Active; 'I' for Inactive)
REMARK    1  A    between atoms: C_1  and  C_2
REMARK    2  A    between atoms: C_2  and  N_3
REMARK    3  A    between atoms: N_9  and  C_10
REMARK    4  A    between atoms: C_10  and  C_11
REMARK    5  A    between atoms: C_10  and  C_12
REMARK    6  A    between atoms: C_15  and  O_16
REMARK    7  A    between atoms: O_16  and  C_17
REMARK    8  A    between atoms: C_17  and  C_18
REMARK                            x       y       z     vdW  Elec       q    Type
REMARK                         _______ _______ _______ _____ _____    ______ ____
ROOT
ATOM      1  C   UNL     1      30.634  24.502  12.674  0.00  0.00    +0.102 C 
ATOM      2  C   UNL     1      29.687  25.592  12.166  0.00  0.00    +0.033 C 
ENDROOT
BRANCH   1   9
ATOM      3  N   UNL     1      31.376  23.084  17.873  0.00  0.00    -0.299 N 
ATOM      4  C   UNL     1      30.784  21.832  17.406  0.00  0.00    +0.127 C 
ATOM      5  C   UNL     1      29.595  22.079  16.472  0.00  0.00    +0.129 C 
ATOM      6  N   UNL     1      30.005  22.903  15.331  0.00  0.00    -0.275 N 
ATOM      7  C   UNL     1      29.610  22.545  14.074  0.00  0.00    +0.303 C 
ATOM      8  O   UNL     1      28.933  21.531  13.875  0.00  0.00    -0.253 OA
ATOM      9  N   UNL     1      29.938  23.252  12.971  0.00  0.00    -0.293 N 
ATOM     10  C   UNL     1      30.803  24.068  15.681  0.00  0.00    +0.205 C 
ATOM     11  C   UNL     1      31.312  24.235  17.113  0.00  0.00    +0.233 C 
ATOM     12  O   UNL     1      31.754  25.323  17.490  0.00  0.00    -0.274 OA
ATOM     13  H   UNL     1      29.552  22.780  12.162  0.00  0.00    +0.151 HD
BRANCH   3  15
ATOM     14  C   UNL     1      33.212  22.114  19.167  0.00  0.00    +0.024 C 
ATOM     15  C   UNL     1      32.074  23.118  19.145  0.00  0.00    +0.104 C 
ENDBRANCH   3  15
ENDBRANCH   1   9
BRANCH   1  16
ATOM     16  C   UNL     1      31.778  24.244  11.711  0.00  0.00    -0.024 A 
ATOM     17  C   UNL     1      33.111  24.464  12.077  0.00  0.00    +0.009 A 
ATOM     18  C   UNL     1      34.149  24.241  11.171  0.00  0.00    +0.049 A 
ATOM     19  C   UNL     1      33.871  23.830   9.860  0.00  0.00    +0.156 A 
ATOM     20  C   UNL     1      32.548  23.574   9.508  0.00  0.00    +0.165 A 
ATOM     21  F   UNL     1      32.245  23.140   8.274  0.00  0.00    -0.202 F 
ATOM     22  C   UNL     1      31.508  23.787  10.410  0.00  0.00    +0.047 A 
BRANCH  19  23
ATOM     23  O   UNL     1      34.816  23.666   8.887  0.00  0.00    -0.489 OA
BRANCH  23  24
ATOM     24  C   UNL     1      35.531  22.431   8.943  0.00  0.00    +0.232 C 
BRANCH  24  25
ATOM     25  C   UNL     1      35.091  21.552   7.815  0.00  0.00    +0.027 C 
ATOM     26  C   UNL     1      34.130  20.423   8.094  0.00  0.00    +0.007 C 
ATOM     27  C   UNL     1      35.560  20.121   7.739  0.00  0.00    +0.007 C 
ENDBRANCH  24  25
ENDBRANCH  23  24
ENDBRANCH  19  23
ENDBRANCH   1  16
TORSDOF 6
ENDMDL
MODEL 3
REMARK VINA RESULT:      -6.6      1.547      2.031
REMARK  Name = ZINC000543478179
REMARK  8 active torsions:
REMARK  status: ('A' for Active; 'I' for Inactive)
REMARK    1  A    between atoms: C_1  and  C_2
REMARK    2  A    between atoms: C_2  and  N_3
REMARK    3  A    between atoms: N_9  and  C_10
REMARK    4  A    between atoms: C_10  and  C_11
REMARK    5  A    between atoms: C_10  and  C_12
REMARK    6  A    between atoms: C_15  and  O_16
REMARK    7  A    between atoms: O_16  and  C_17
REMARK    8  A    between atoms: C_17  and  C_18
REMARK                            x       y       z     vdW  Elec       q    Type
REMARK                         _______ _______ _______ _____ _____    ______ ____
ROOT
ATOM      1  C   UNL     1      31.453  23.692  12.472  0.00  0.00    +0.102 C 
ATOM      2  C   UNL     1      30.787  24.754  11.594  0.00  0.00    +0.033 C 
ENDROOT
BRANCH   1   9
ATOM      3  N   UNL     1      34.946  20.506   9.782  0.00  0.00    -0.299 N 
ATOM      4  C   UNL     1      35.898  21.106  10.714  0.00  0.00    +0.127 C 
ATOM      5  C   UNL     1      35.658  22.609  10.884  0.00  0.00    +0.129 C 
ATOM      6  N   UNL     1      34.284  22.858  11.332  0.00  0.00    -0.275 N 
ATOM      7  C   UNL     1      34.065  23.743  12.349  0.00  0.00    +0.303 C 
ATOM      8  O   UNL     1      34.999  24.321  12.913  0.00  0.00    -0.253 OA
ATOM      9  N   UNL     1      32.831  24.034  12.816  0.00  0.00    -0.293 N 
ATOM     10  C   UNL     1      33.265  22.120  10.600  0.00  0.00    +0.205 C 
ATOM     11  C   UNL     1      33.683  21.035   9.608  0.00  0.00    +0.233 C 
ATOM     12  O   UNL     1      32.866  20.591   8.797  0.00  0.00    -0.274 OA
ATOM     13  H   UNL     1      32.926  24.693  13.579  0.00  0.00    +0.151 HD
BRANCH   3  15
ATOM     14  C   UNL     1      35.996  19.669   7.736  0.00  0.00    +0.024 C 
ATOM     15  C   UNL     1      35.317  19.312   9.046  0.00  0.00    +0.104 C 
ENDBRANCH   3  15
ENDBRANCH   1   9
BRANCH   1  16
ATOM     16  C   UNL     1      30.657  23.413  13.734  0.00  0.00    -0.024 A 
ATOM     17  C   UNL     1      30.853  24.154  14.906  0.00  0.00    +0.009 A 
ATOM     18  C   UNL     1      30.125  23.870  16.062  0.00  0.00    +0.049 A 
ATOM     19  C   UNL     1      29.212  22.807  16.084  0.00  0.00    +0.156 A 
ATOM     20  C   UNL     1      28.990  22.095  14.908  0.00  0.00    +0.165 A 
ATOM     21  F   UNL     1      28.093  21.096  14.877  0.00  0.00    -0.202 F 
ATOM     22  C   UNL     1      29.706  22.378  13.747  0.00  0.00    +0.047 A 
BRANCH  19  23
ATOM     23  O   UNL     1      28.519  22.408  17.192  0.00  0.00    -0.489 OA
BRANCH  23  24
ATOM     24  C   UNL     1      27.374  23.201  17.505  0.00  0.00    +0.232 C 
BRANCH  24  25
ATOM     25  C   UNL     1      26.266  22.312  17.971  0.00  0.00    +0.027 C 
ATOM     26  C   UNL     1      25.782  21.203  17.070  0.00  0.00    +0.007 C 
ATOM     27  C   UNL     1      24.902  22.394  17.331  0.00  0.00    +0.007 C 
ENDBRANCH  24  25
ENDBRANCH  23  24
ENDBRANCH  19  23
ENDBRANCH   1  16
TORSDOF 6
ENDMDL
MODEL 4
REMARK VINA RESULT:      -6.4      2.758      8.753
REMARK  Name = ZINC000543478179
REMARK  8 active torsions:
REMARK  status: ('A' for Active; 'I' for Inactive)
REMARK    1  A    between atoms: C_1  and  C_2
REMARK    2  A    between atoms: C_2  and  N_3
REMARK    3  A    between atoms: N_9  and  C_10
REMARK    4  A    between atoms: C_10  and  C_11
REMARK    5  A    between atoms: C_10  and  C_12
REMARK    6  A    between atoms: C_15  and  O_16
REMARK    7  A    between atoms: O_16  and  C_17
REMARK    8  A    between atoms: C_17  and  C_18
REMARK                            x       y       z     vdW  Elec       q    Type
REMARK                         _______ _______ _______ _____ _____    ______ ____
ROOT
ATOM      1  C   UNL     1      32.169  21.926  15.186  0.00  0.00    +0.102 C 
ATOM      2  C   UNL     1      33.322  21.102  15.764  0.00  0.00    +0.033 C 
ENDROOT
BRANCH   1   9
ATOM      3  N   UNL     1      27.097  21.748  17.142  0.00  0.00    -0.299 N 
ATOM      4  C   UNL     1      27.390  23.143  17.469  0.00  0.00    +0.127 C 
ATOM      5  C   UNL     1      28.802  23.309  18.036  0.00  0.00    +0.129 C 
ATOM      6  N   UNL     1      29.796  22.790  17.091  0.00  0.00    -0.275 N 
ATOM      7  C   UNL     1      30.915  23.527  16.829  0.00  0.00    +0.303 C 
ATOM      8  O   UNL     1      31.098  24.631  17.354  0.00  0.00    -0.253 OA
ATOM      9  N   UNL     1      31.881  23.119  15.978  0.00  0.00    -0.293 N 
ATOM     10  C   UNL     1      29.475  21.486  16.530  0.00  0.00    +0.205 C 
ATOM     11  C   UNL     1      28.100  20.870  16.787  0.00  0.00    +0.233 C 
ATOM     12  O   UNL     1      27.904  19.675  16.551  0.00  0.00    -0.274 OA
ATOM     13  H   UNL     1      32.592  23.839  15.932  0.00  0.00    +0.151 HD
BRANCH   3  15
ATOM     14  C   UNL     1      24.768  22.409  17.501  0.00  0.00    +0.024 C 
ATOM     15  C   UNL     1      25.723  21.280  17.159  0.00  0.00    +0.104 C 
ENDBRANCH   3  15
ENDBRANCH   1   9
BRANCH   1  16
ATOM     16  C   UNL     1      32.411  22.310  13.737  0.00  0.00    -0.024 A 
ATOM     17  C   UNL     1      33.363  21.649  12.952  0.00  0.00    +0.009 A 
ATOM     18  C   UNL     1      33.587  22.029  11.628  0.00  0.00    +0.049 A 
ATOM     19  C   UNL     1      32.889  23.110  11.071  0.00  0.00    +0.156 A 
ATOM     20  C   UNL     1      31.915  23.741  11.840  0.00  0.00    +0.165 A 
ATOM     21  F   UNL     1      31.196  24.754  11.330  0.00  0.00    -0.202 F 
ATOM     22  C   UNL     1      31.681  23.362  13.161  0.00  0.00    +0.047 A 
BRANCH  19  23
ATOM     23  O   UNL     1      33.102  23.600   9.813  0.00  0.00    -0.489 OA
BRANCH  23  24
ATOM     24  C   UNL     1      34.349  23.230   9.225  0.00  0.00    +0.232 C 
BRANCH  24  25
ATOM     25  C   UNL     1      34.096  22.397   8.009  0.00  0.00    +0.027 C 
ATOM     26  C   UNL     1      34.158  20.894   8.120  0.00  0.00    +0.007 C 
ATOM     27  C   UNL     1      35.224  21.635   7.360  0.00  0.00    +0.007 C 
ENDBRANCH  24  25
ENDBRANCH  23  24
ENDBRANCH  19  23
ENDBRANCH   1  16
TORSDOF 6
ENDMDL
MODEL 5
REMARK VINA RESULT:      -6.4      3.357      8.923
REMARK  Name = ZINC000543478179
REMARK  8 active torsions:
REMARK  status: ('A' for Active; 'I' for Inactive)
REMARK    1  A    between atoms: C_1  and  C_2
REMARK    2  A    between atoms: C_2  and  N_3
REMARK    3  A    between atoms: N_9  and  C_10
REMARK    4  A    between atoms: C_10  and  C_11
REMARK    5  A    between atoms: C_10  and  C_12
REMARK    6  A    between atoms: C_15  and  O_16
REMARK    7  A    between atoms: O_16  and  C_17
REMARK    8  A    between atoms: C_17  and  C_18
REMARK                            x       y       z     vdW  Elec       q    Type
REMARK                         _______ _______ _______ _____ _____    ______ ____
ROOT
ATOM      1  C   UNL     1      30.859  24.285  12.561  0.00  0.00    +0.102 C 
ATOM      2  C   UNL     1      30.057  25.424  11.926  0.00  0.00    +0.033 C 
ENDROOT
BRANCH   1   9
ATOM      3  N   UNL     1      31.282  23.191  17.873  0.00  0.00    -0.299 N 
ATOM      4  C   UNL     1      30.569  21.978  17.474  0.00  0.00    +0.127 C 
ATOM      5  C   UNL     1      29.444  22.281  16.480  0.00  0.00    +0.129 C 
ATOM      6  N   UNL     1      29.977  22.968  15.299  0.00  0.00    -0.275 N 
ATOM      7  C   UNL     1      29.583  22.561  14.056  0.00  0.00    +0.303 C 
ATOM      8  O   UNL     1      28.804  21.613  13.905  0.00  0.00    -0.253 OA
ATOM      9  N   UNL     1      30.021  23.144  12.919  0.00  0.00    -0.293 N 
ATOM     10  C   UNL     1      30.888  24.063  15.596  0.00  0.00    +0.205 C 
ATOM     11  C   UNL     1      31.368  24.281  17.031  0.00  0.00    +0.233 C 
ATOM     12  O   UNL     1      31.915  25.341  17.346  0.00  0.00    -0.274 OA
ATOM     13  H   UNL     1      29.610  22.657  12.132  0.00  0.00    +0.151 HD
BRANCH   3  15
ATOM     14  C   UNL     1      33.173  22.360  19.184  0.00  0.00    +0.024 C 
ATOM     15  C   UNL     1      31.940  23.244  19.165  0.00  0.00    +0.104 C 
ENDBRANCH   3  15
ENDBRANCH   1   9
BRANCH   1  16
ATOM     16  C   UNL     1      32.006  23.831  11.677  0.00  0.00    -0.024 A 
ATOM     17  C   UNL     1      33.296  23.640  12.186  0.00  0.00    +0.009 A 
ATOM     18  C   UNL     1      34.343  23.242  11.353  0.00  0.00    +0.049 A 
ATOM     19  C   UNL     1      34.129  23.065   9.980  0.00  0.00    +0.156 A 
ATOM     20  C   UNL     1      32.838  23.217   9.480  0.00  0.00    +0.165 A 
ATOM     21  F   UNL     1      32.585  23.017   8.177  0.00  0.00    -0.202 F 
ATOM     22  C   UNL     1      31.787  23.607  10.307  0.00  0.00    +0.047 A 
BRANCH  19  23
ATOM     23  O   UNL     1      35.111  22.756   9.080  0.00  0.00    -0.489 OA
BRANCH  23  24
ATOM     24  C   UNL     1      35.784  23.880   8.512  0.00  0.00    +0.232 C 
BRANCH  24  25
ATOM     25  C   UNL     1      37.165  23.970   9.081  0.00  0.00    +0.027 C 
ATOM     26  C   UNL     1      37.514  25.125   9.985  0.00  0.00    +0.007 C 
ATOM     27  C   UNL     1      38.113  25.043   8.607  0.00  0.00    +0.007 C 
ENDBRANCH  24  25
ENDBRANCH  23  24
ENDBRANCH  19  23
ENDBRANCH   1  16
TORSDOF 6
ENDMDL
MODEL 6
REMARK VINA RESULT:      -6.4      5.297      8.071
REMARK  Name = ZINC000543478179
REMARK  8 active torsions:
REMARK  status: ('A' for Active; 'I' for Inactive)
REMARK    1  A    between atoms: C_1  and  C_2
REMARK    2  A    between atoms: C_2  and  N_3
REMARK    3  A    between atoms: N_9  and  C_10
REMARK    4  A    between atoms: C_10  and  C_11
REMARK    5  A    between atoms: C_10  and  C_12
REMARK    6  A    between atoms: C_15  and  O_16
REMARK    7  A    between atoms: O_16  and  C_17
REMARK    8  A    between atoms: C_17  and  C_18
REMARK                            x       y       z     vdW  Elec       q    Type
REMARK                         _______ _______ _______ _____ _____    ______ ____
ROOT
ATOM      1  C   UNL     1      31.918  24.914  18.557  0.00  0.00    +0.102 C 
ATOM      2  C   UNL     1      32.095  26.395  18.899  0.00  0.00    +0.033 C 
ENDROOT
BRANCH   1   9
ATOM      3  N   UNL     1      28.169  21.694  16.285  0.00  0.00    -0.299 N 
ATOM      4  C   UNL     1      29.184  21.591  15.238  0.00  0.00    +0.127 C 
ATOM      5  C   UNL     1      29.827  22.947  14.934  0.00  0.00    +0.129 C 
ATOM      6  N   UNL     1      30.410  23.520  16.151  0.00  0.00    -0.275 N 
ATOM      7  C   UNL     1      31.663  24.061  16.099  0.00  0.00    +0.303 C 
ATOM      8  O   UNL     1      32.323  24.060  15.055  0.00  0.00    -0.253 OA
ATOM      9  N   UNL     1      32.269  24.615  17.172  0.00  0.00    -0.293 N 
ATOM     10  C   UNL     1      29.547  23.463  17.320  0.00  0.00    +0.205 C 
ATOM     11  C   UNL     1      28.243  22.667  17.261  0.00  0.00    +0.233 C 
ATOM     12  O   UNL     1      27.384  22.821  18.133  0.00  0.00    -0.274 OA
ATOM     13  H   UNL     1      33.192  24.924  16.893  0.00  0.00    +0.151 HD
BRANCH   3  15
ATOM     14  C   UNL     1      27.555  19.385  16.814  0.00  0.00    +0.024 C 
ATOM     15  C   UNL     1      27.077  20.739  16.323  0.00  0.00    +0.104 C 
ENDBRANCH   3  15
ENDBRANCH   1   9
BRANCH   1  16
ATOM     16  C   UNL     1      32.698  24.013  19.498  0.00  0.00    -0.024 A 
ATOM     17  C   UNL     1      32.976  24.393  20.816  0.00  0.00    +0.009 A 
ATOM     18  C   UNL     1      33.712  23.560  21.660  0.00  0.00    +0.049 A 
ATOM     19  C   UNL     1      34.223  22.343  21.189  0.00  0.00    +0.156 A 
ATOM     20  C   UNL     1      33.913  21.948  19.890  0.00  0.00    +0.165 A 
ATOM     21  F   UNL     1      34.349  20.771  19.414  0.00  0.00    -0.202 F 
ATOM     22  C   UNL     1      33.172  22.771  19.044  0.00  0.00    +0.047 A 
BRANCH  19  23
ATOM     23  O   UNL     1      35.019  21.506  21.919  0.00  0.00    -0.489 OA
BRANCH  23  24
ATOM     24  C   UNL     1      34.371  20.862  23.016  0.00  0.00    +0.232 C 
BRANCH  24  25
ATOM     25  C   UNL     1      34.562  19.383  22.907  0.00  0.00    +0.027 C 
ATOM     26  C   UNL     1      35.291  18.820  21.713  0.00  0.00    +0.007 C 
ATOM     27  C   UNL     1      33.812  18.593  21.864  0.00  0.00    +0.007 C 
ENDBRANCH  24  25
ENDBRANCH  23  24
ENDBRANCH  19  23
ENDBRANCH   1  16
TORSDOF 6
ENDMDL
MODEL 7
REMARK VINA RESULT:      -6.3      3.052      4.577
REMARK  Name = ZINC000543478179
REMARK  8 active torsions:
REMARK  status: ('A' for Active; 'I' for Inactive)
REMARK    1  A    between atoms: C_1  and  C_2
REMARK    2  A    between atoms: C_2  and  N_3
REMARK    3  A    between atoms: N_9  and  C_10
REMARK    4  A    between atoms: C_10  and  C_11
REMARK    5  A    between atoms: C_10  and  C_12
REMARK    6  A    between atoms: C_15  and  O_16
REMARK    7  A    between atoms: O_16  and  C_17
REMARK    8  A    between atoms: C_17  and  C_18
REMARK                            x       y       z     vdW  Elec       q    Type
REMARK                         _______ _______ _______ _____ _____    ______ ____
ROOT
ATOM      1  C   UNL     1      29.815  22.025  14.374  0.00  0.00    +0.102 C 
ATOM      2  C   UNL     1      28.658  21.030  14.485  0.00  0.00    +0.033 C 
ENDROOT
BRANCH   1   9
ATOM      3  N   UNL     1      34.061  24.092  11.675  0.00  0.00    -0.299 N 
ATOM      4  C   UNL     1      33.162  25.236  11.542  0.00  0.00    +0.127 C 
ATOM      5  C   UNL     1      31.732  24.800  11.212  0.00  0.00    +0.129 C 
ATOM      6  N   UNL     1      31.230  23.878  12.235  0.00  0.00    -0.275 N 
ATOM      7  C   UNL     1      29.973  24.058  12.737  0.00  0.00    +0.303 C 
ATOM      8  O   UNL     1      29.257  24.993  12.362  0.00  0.00    -0.253 OA
ATOM      9  N   UNL     1      29.434  23.250  13.676  0.00  0.00    -0.293 N 
ATOM     10  C   UNL     1      32.159  22.820  12.604  0.00  0.00    +0.205 C 
ATOM     11  C   UNL     1      33.595  22.858  12.083  0.00  0.00    +0.233 C 
ATOM     12  O   UNL     1      34.309  21.855  12.161  0.00  0.00    -0.274 OA
ATOM     13  H   UNL     1      28.509  23.596  13.902  0.00  0.00    +0.151 HD
BRANCH   3  15
ATOM     14  C   UNL     1      35.755  24.225   9.913  0.00  0.00    +0.024 C 
ATOM     15  C   UNL     1      35.478  24.256  11.405  0.00  0.00    +0.104 C 
ENDBRANCH   3  15
ENDBRANCH   1   9
BRANCH   1  16
ATOM     16  C   UNL     1      30.411  22.362  15.728  0.00  0.00    -0.024 A 
ATOM     17  C   UNL     1      31.715  21.986  16.072  0.00  0.00    +0.009 A 
ATOM     18  C   UNL     1      32.239  22.287  17.330  0.00  0.00    +0.049 A 
ATOM     19  C   UNL     1      31.452  22.938  18.290  0.00  0.00    +0.156 A 
ATOM     20  C   UNL     1      30.169  23.346  17.935  0.00  0.00    +0.165 A 
ATOM     21  F   UNL     1      29.398  24.008  18.812  0.00  0.00    -0.202 F 
ATOM     22  C   UNL     1      29.642  23.056  16.678  0.00  0.00    +0.047 A 
BRANCH  19  23
ATOM     23  O   UNL     1      31.855  23.199  19.569  0.00  0.00    -0.489 OA
BRANCH  23  24
ATOM     24  C   UNL     1      33.204  23.650  19.696  0.00  0.00    +0.232 C 
BRANCH  24  25
ATOM     25  C   UNL     1      33.214  25.129  19.921  0.00  0.00    +0.027 C 
ATOM     26  C   UNL     1      32.441  26.022  18.984  0.00  0.00    +0.007 C 
ATOM     27  C   UNL     1      33.945  26.039  18.967  0.00  0.00    +0.007 C 
ENDBRANCH  24  25
ENDBRANCH  23  24
ENDBRANCH  19  23
ENDBRANCH   1  16
TORSDOF 6
ENDMDL
MODEL 8
REMARK VINA RESULT:      -6.3      5.862      7.206
REMARK  Name = ZINC000543478179
REMARK  8 active torsions:
REMARK  status: ('A' for Active; 'I' for Inactive)
REMARK    1  A    between atoms: C_1  and  C_2
REMARK    2  A    between atoms: C_2  and  N_3
REMARK    3  A    between atoms: N_9  and  C_10
REMARK    4  A    between atoms: C_10  and  C_11
REMARK    5  A    between atoms: C_10  and  C_12
REMARK    6  A    between atoms: C_15  and  O_16
REMARK    7  A    between atoms: O_16  and  C_17
REMARK    8  A    between atoms: C_17  and  C_18
REMARK                            x       y       z     vdW  Elec       q    Type
REMARK                         _______ _______ _______ _____ _____    ______ ____
ROOT
ATOM      1  C   UNL     1      34.015  22.733  19.329  0.00  0.00    +0.102 C 
ATOM      2  C   UNL     1      34.368  24.157  19.765  0.00  0.00    +0.033 C 
ENDROOT
BRANCH   1   9
ATOM      3  N   UNL     1      36.213  17.933  18.022  0.00  0.00    -0.299 N 
ATOM      4  C   UNL     1      35.581  17.530  19.277  0.00  0.00    +0.127 C 
ATOM      5  C   UNL     1      35.766  18.584  20.372  0.00  0.00    +0.129 C 
ATOM      6  N   UNL     1      35.237  19.878  19.929  0.00  0.00    -0.275 N 
ATOM      7  C   UNL     1      34.455  20.605  20.782  0.00  0.00    +0.303 C 
ATOM      8  O   UNL     1      34.169  20.187  21.909  0.00  0.00    -0.253 OA
ATOM      9  N   UNL     1      33.934  21.807  20.455  0.00  0.00    -0.293 N 
ATOM     10  C   UNL     1      35.633  20.266  18.585  0.00  0.00    +0.205 C 
ATOM     11  C   UNL     1      36.364  19.264  17.691  0.00  0.00    +0.233 C 
ATOM     12  O   UNL     1      36.935  19.649  16.668  0.00  0.00    -0.274 OA
ATOM     13  H   UNL     1      33.378  22.136  21.235  0.00  0.00    +0.151 HD
BRANCH   3  15
ATOM     14  C   UNL     1      35.499  16.335  16.312  0.00  0.00    +0.024 C 
ATOM     15  C   UNL     1      36.665  16.919  17.088  0.00  0.00    +0.104 C 
ENDBRANCH   3  15
ENDBRANCH   1   9
BRANCH   1  16
ATOM     16  C   UNL     1      32.730  22.686  18.523  0.00  0.00    -0.024 A 
ATOM     17  C   UNL     1      32.656  22.014  17.297  0.00  0.00    +0.009 A 
ATOM     18  C   UNL     1      31.471  21.998  16.560  0.00  0.00    +0.049 A 
ATOM     19  C   UNL     1      30.341  22.691  17.016  0.00  0.00    +0.156 A 
ATOM     20  C   UNL     1      30.403  23.326  18.253  0.00  0.00    +0.165 A 
ATOM     21  F   UNL     1      29.330  23.966  18.744  0.00  0.00    -0.202 F 
ATOM     22  C   UNL     1      31.581  23.340  18.998  0.00  0.00    +0.047 A 
BRANCH  19  23
ATOM     23  O   UNL     1      29.168  22.795  16.322  0.00  0.00    -0.489 OA
BRANCH  23  24
ATOM     24  C   UNL     1      28.635  21.558  15.848  0.00  0.00    +0.232 C 
BRANCH  24  25
ATOM     25  C   UNL     1      27.933  20.859  16.969  0.00  0.00    +0.027 C 
ATOM     26  C   UNL     1      27.553  19.409  16.809  0.00  0.00    +0.007 C 
ATOM     27  C   UNL     1      26.484  20.466  16.831  0.00  0.00    +0.007 C 
ENDBRANCH  24  25
ENDBRANCH  23  24
ENDBRANCH  19  23
ENDBRANCH   1  16
TORSDOF 6
ENDMDL
MODEL 9
REMARK VINA RESULT:      -6.3      2.625      3.257
REMARK  Name = ZINC000543478179
REMARK  8 active torsions:
REMARK  status: ('A' for Active; 'I' for Inactive)
REMARK    1  A    between atoms: C_1  and  C_2
REMARK    2  A    between atoms: C_2  and  N_3
REMARK    3  A    between atoms: N_9  and  C_10
REMARK    4  A    between atoms: C_10  and  C_11
REMARK    5  A    between atoms: C_10  and  C_12
REMARK    6  A    between atoms: C_15  and  O_16
REMARK    7  A    between atoms: O_16  and  C_17
REMARK    8  A    between atoms: C_17  and  C_18
REMARK                            x       y       z     vdW  Elec       q    Type
REMARK                         _______ _______ _______ _____ _____    ______ ____
ROOT
ATOM      1  C   UNL     1      31.119  24.404  12.019  0.00  0.00    +0.102 C 
ATOM      2  C   UNL     1      29.873  25.272  11.828  0.00  0.00    +0.033 C 
ENDROOT
BRANCH   1   9
ATOM      3  N   UNL     1      34.567  21.426   9.047  0.00  0.00    -0.299 N 
ATOM      4  C   UNL     1      35.497  22.486   9.433  0.00  0.00    +0.127 C 
ATOM      5  C   UNL     1      34.850  23.871   9.342  0.00  0.00    +0.129 C 
ATOM      6  N   UNL     1      33.644  23.926  10.175  0.00  0.00    -0.275 N 
ATOM      7  C   UNL     1      33.443  25.008  10.984  0.00  0.00    +0.303 C 
ATOM      8  O   UNL     1      34.263  25.929  11.046  0.00  0.00    -0.253 OA
ATOM      9  N   UNL     1      32.357  25.140  11.776  0.00  0.00    -0.293 N 
ATOM     10  C   UNL     1      32.753  22.787  10.026  0.00  0.00    +0.205 C 
ATOM     11  C   UNL     1      33.204  21.573   9.213  0.00  0.00    +0.233 C 
ATOM     12  O   UNL     1      32.381  20.726   8.857  0.00  0.00    -0.274 OA
ATOM     13  H   UNL     1      32.442  26.006  12.294  0.00  0.00    +0.151 HD
BRANCH   3  15
ATOM     14  C   UNL     1      35.265  20.273   7.005  0.00  0.00    +0.024 C 
ATOM     15  C   UNL     1      35.081  20.180   8.508  0.00  0.00    +0.104 C 
ENDBRANCH   3  15
ENDBRANCH   1   9
BRANCH   1  16
ATOM     16  C   UNL     1      31.160  23.757  13.392  0.00  0.00    -0.024 A 
ATOM     17  C   UNL     1      32.283  23.052  13.839  0.00  0.00    +0.009 A 
ATOM     18  C   UNL     1      32.295  22.446  15.096  0.00  0.00    +0.049 A 
ATOM     19  C   UNL     1      31.163  22.498  15.920  0.00  0.00    +0.156 A 
ATOM     20  C   UNL     1      30.059  23.232  15.492  0.00  0.00    +0.165 A 
ATOM     21  F   UNL     1      28.971  23.341  16.270  0.00  0.00    -0.202 F 
ATOM     22  C   UNL     1      30.044  23.846  14.241  0.00  0.00    +0.047 A 
BRANCH  19  23
ATOM     23  O   UNL     1      31.058  21.868  17.128  0.00  0.00    -0.489 OA
BRANCH  23  24
ATOM     24  C   UNL     1      31.959  22.335  18.132  0.00  0.00    +0.232 C 
BRANCH  24  25
ATOM     25  C   UNL     1      31.325  23.462  18.883  0.00  0.00    +0.027 C 
ATOM     26  C   UNL     1      31.642  24.882  18.485  0.00  0.00    +0.007 C 
ATOM     27  C   UNL     1      32.156  24.336  19.789  0.00  0.00    +0.007 C 
ENDBRANCH  24  25
ENDBRANCH  23  24
ENDBRANCH  19  23
ENDBRANCH   1  16
TORSDOF 6
ENDMDL
