MODEL 1
REMARK VINA RESULT:      -7.2      0.000      0.000
REMARK  Name = ZINC000329563636
REMARK  3 active torsions:
REMARK  status: ('A' for Active; 'I' for Inactive)
REMARK    1  A    between atoms: C_1  and  C_2
REMARK    2  A    between atoms: C_2  and  N_3
REMARK    3  A    between atoms: N_9  and  C_10
REMARK                            x       y       z     vdW  Elec       q    Type
REMARK                         _______ _______ _______ _____ _____    ______ ____
ROOT
ATOM      1  C   UNL     1      30.486  21.939  13.969  0.00  0.00    +0.112 C 
ATOM      2  C   UNL     1      29.394  20.876  13.809  0.00  0.00    +0.075 C 
ATOM      3  C   UNL     1      29.450  19.729  14.830  0.00  0.00    +0.113 C 
ATOM      4  C   UNL     1      28.753  20.027  16.182  0.00  0.00    +0.048 C 
ATOM      5  C   UNL     1      27.528  19.123  16.241  0.00  0.00    +0.004 C 
ATOM      6  C   UNL     1      27.924  17.911  15.422  0.00  0.00    +0.004 C 
ATOM      7  C   UNL     1      28.670  18.523  14.249  0.00  0.00    +0.048 C 
ATOM      8  O   UNL     1      30.801  19.288  15.064  0.00  0.00    -0.485 OA
ATOM      9  C   UNL     1      31.628  20.294  15.490  0.00  0.00    +0.126 A 
ATOM     10  C   UNL     1      32.615  19.967  16.418  0.00  0.00    +0.046 A 
ATOM     11  C   UNL     1      33.460  20.960  16.916  0.00  0.00    +0.004 A 
ATOM     12  C   UNL     1      33.331  22.274  16.471  0.00  0.00    +0.001 A 
ATOM     13  C   UNL     1      32.363  22.590  15.519  0.00  0.00    +0.009 A 
ATOM     14  C   UNL     1      31.501  21.599  15.020  0.00  0.00    +0.015 A 
ENDROOT
BRANCH   1  21
ATOM     15  N   UNL     1      33.938  24.100   9.172  0.00  0.00    -0.299 N 
ATOM     16  C   UNL     1      33.055  25.094   9.781  0.00  0.00    +0.127 C 
ATOM     17  C   UNL     1      31.639  24.562   9.982  0.00  0.00    +0.129 C 
ATOM     18  N   UNL     1      31.700  23.343  10.776  0.00  0.00    -0.275 N 
ATOM     19  C   UNL     1      31.040  23.296  11.982  0.00  0.00    +0.303 C 
ATOM     20  O   UNL     1      30.391  24.246  12.418  0.00  0.00    -0.253 OA
ATOM     21  N   UNL     1      31.173  22.139  12.693  0.00  0.00    -0.292 N 
ATOM     22  C   UNL     1      32.532  22.285  10.197  0.00  0.00    +0.205 C 
ATOM     23  C   UNL     1      33.707  22.735   9.303  0.00  0.00    +0.233 C 
ATOM     24  O   UNL     1      34.414  21.893   8.746  0.00  0.00    -0.274 OA
ATOM     25  H   UNL     1      31.382  21.294  12.187  0.00  0.00    +0.151 HD
BRANCH  15  27
ATOM     26  C   UNL     1      35.182  26.080   8.375  0.00  0.00    +0.024 C 
ATOM     27  C   UNL     1      35.154  24.568   8.514  0.00  0.00    +0.104 C 
ENDBRANCH  15  27
ENDBRANCH   1  21
TORSDOF 2
ENDMDL
MODEL 2
REMARK VINA RESULT:      -6.8      2.382      4.282
REMARK  Name = ZINC000329563636
REMARK  3 active torsions:
REMARK  status: ('A' for Active; 'I' for Inactive)
REMARK    1  A    between atoms: C_1  and  C_2
REMARK    2  A    between atoms: C_2  and  N_3
REMARK    3  A    between atoms: N_9  and  C_10
REMARK                            x       y       z     vdW  Elec       q    Type
REMARK                         _______ _______ _______ _____ _____    ______ ____
ROOT
ATOM      1  C   UNL     1      31.902  21.617  15.763  0.00  0.00    +0.112 C 
ATOM      2  C   UNL     1      32.313  22.420  17.001  0.00  0.00    +0.075 C 
ATOM      3  C   UNL     1      31.350  22.312  18.193  0.00  0.00    +0.113 C 
ATOM      4  C   UNL     1      31.578  21.078  19.104  0.00  0.00    +0.048 C 
ATOM      5  C   UNL     1      32.096  21.616  20.433  0.00  0.00    +0.004 C 
ATOM      6  C   UNL     1      31.475  22.994  20.540  0.00  0.00    +0.004 C 
ATOM      7  C   UNL     1      31.589  23.529  19.123  0.00  0.00    +0.048 C 
ATOM      8  O   UNL     1      29.973  22.361  17.775  0.00  0.00    -0.485 OA
ATOM      9  C   UNL     1      29.653  21.389  16.864  0.00  0.00    +0.126 A 
ATOM     10  C   UNL     1      28.380  20.828  16.940  0.00  0.00    +0.046 A 
ATOM     11  C   UNL     1      28.014  19.806  16.064  0.00  0.00    +0.004 A 
ATOM     12  C   UNL     1      28.914  19.358  15.099  0.00  0.00    +0.001 A 
ATOM     13  C   UNL     1      30.177  19.944  15.006  0.00  0.00    +0.009 A 
ATOM     14  C   UNL     1      30.556  20.966  15.892  0.00  0.00    +0.015 A 
ENDROOT
BRANCH   1  21
ATOM     15  N   UNL     1      32.679  24.181  10.069  0.00  0.00    -0.299 N 
ATOM     16  C   UNL     1      33.893  23.604  10.646  0.00  0.00    +0.127 C 
ATOM     17  C   UNL     1      34.101  24.031  12.096  0.00  0.00    +0.129 C 
ATOM     18  N   UNL     1      32.920  23.674  12.869  0.00  0.00    -0.275 N 
ATOM     19  C   UNL     1      33.052  22.811  13.933  0.00  0.00    +0.303 C 
ATOM     20  O   UNL     1      34.134  22.330  14.264  0.00  0.00    -0.253 OA
ATOM     21  N   UNL     1      31.898  22.486  14.587  0.00  0.00    -0.292 N 
ATOM     22  C   UNL     1      31.672  24.258  12.371  0.00  0.00    +0.205 C 
ATOM     23  C   UNL     1      31.597  24.554  10.858  0.00  0.00    +0.233 C 
ATOM     24  O   UNL     1      30.594  25.093  10.386  0.00  0.00    -0.274 OA
ATOM     25  H   UNL     1      31.130  23.135  14.542  0.00  0.00    +0.151 HD
BRANCH  15  27
ATOM     26  C   UNL     1      32.944  22.931   7.955  0.00  0.00    +0.024 C 
ATOM     27  C   UNL     1      32.570  24.247   8.616  0.00  0.00    +0.104 C 
ENDBRANCH  15  27
ENDBRANCH   1  21
TORSDOF 2
ENDMDL
MODEL 3
REMARK VINA RESULT:      -6.7      5.615      8.751
REMARK  Name = ZINC000329563636
REMARK  3 active torsions:
REMARK  status: ('A' for Active; 'I' for Inactive)
REMARK    1  A    between atoms: C_1  and  C_2
REMARK    2  A    between atoms: C_2  and  N_3
REMARK    3  A    between atoms: N_9  and  C_10
REMARK                            x       y       z     vdW  Elec       q    Type
REMARK                         _______ _______ _______ _____ _____    ______ ____
ROOT
ATOM      1  C   UNL     1      27.377  20.962  17.465  0.00  0.00    +0.112 C 
ATOM      2  C   UNL     1      27.378  20.034  16.246  0.00  0.00    +0.075 C 
ATOM      3  C   UNL     1      28.672  20.051  15.418  0.00  0.00    +0.113 C 
ATOM      4  C   UNL     1      29.793  19.117  15.943  0.00  0.00    +0.048 C 
ATOM      5  C   UNL     1      29.942  18.005  14.911  0.00  0.00    +0.004 C 
ATOM      6  C   UNL     1      29.542  18.660  13.604  0.00  0.00    +0.004 C 
ATOM      7  C   UNL     1      28.350  19.513  14.001  0.00  0.00    +0.048 C 
ATOM      8  O   UNL     1      29.187  21.386  15.258  0.00  0.00    -0.485 OA
ATOM      9  C   UNL     1      29.421  22.018  16.451  0.00  0.00    +0.126 A 
ATOM     10  C   UNL     1      30.520  22.872  16.523  0.00  0.00    +0.046 A 
ATOM     11  C   UNL     1      30.830  23.511  17.724  0.00  0.00    +0.004 A 
ATOM     12  C   UNL     1      30.030  23.312  18.847  0.00  0.00    +0.001 A 
ATOM     13  C   UNL     1      28.913  22.481  18.762  0.00  0.00    +0.009 A 
ATOM     14  C   UNL     1      28.601  21.826  17.559  0.00  0.00    +0.015 A 
ENDROOT
BRANCH   1  21
ATOM     15  N   UNL     1      23.133  25.535  18.284  0.00  0.00    -0.299 N 
ATOM     16  C   UNL     1      23.752  25.053  19.518  0.00  0.00    +0.127 C 
ATOM     17  C   UNL     1      23.774  23.529  19.594  0.00  0.00    +0.129 C 
ATOM     18  N   UNL     1      24.452  23.006  18.417  0.00  0.00    -0.275 N 
ATOM     19  C   UNL     1      25.585  22.242  18.580  0.00  0.00    +0.303 C 
ATOM     20  O   UNL     1      26.048  21.975  19.688  0.00  0.00    -0.253 OA
ATOM     21  N   UNL     1      26.192  21.819  17.434  0.00  0.00    -0.292 N 
ATOM     22  C   UNL     1      23.853  23.414  17.143  0.00  0.00    +0.205 C 
ATOM     23  C   UNL     1      23.115  24.769  17.124  0.00  0.00    +0.233 C 
ATOM     24  O   UNL     1      22.546  25.145  16.097  0.00  0.00    -0.274 OA
ATOM     25  H   UNL     1      25.630  21.736  16.603  0.00  0.00    +0.151 HD
BRANCH  15  27
ATOM     26  C   UNL     1      23.747  27.913  18.017  0.00  0.00    +0.024 C 
ATOM     27  C   UNL     1      22.634  26.906  18.252  0.00  0.00    +0.104 C 
ENDBRANCH  15  27
ENDBRANCH   1  21
TORSDOF 2
ENDMDL
MODEL 4
REMARK VINA RESULT:      -6.6      4.407      8.059
REMARK  Name = ZINC000329563636
REMARK  3 active torsions:
REMARK  status: ('A' for Active; 'I' for Inactive)
REMARK    1  A    between atoms: C_1  and  C_2
REMARK    2  A    between atoms: C_2  and  N_3
REMARK    3  A    between atoms: N_9  and  C_10
REMARK                            x       y       z     vdW  Elec       q    Type
REMARK                         _______ _______ _______ _____ _____    ______ ____
ROOT
ATOM      1  C   UNL     1      33.242  22.941  16.986  0.00  0.00    +0.112 C 
ATOM      2  C   UNL     1      33.471  24.390  16.549  0.00  0.00    +0.075 C 
ATOM      3  C   UNL     1      34.184  25.275  17.583  0.00  0.00    +0.113 C 
ATOM      4  C   UNL     1      35.732  25.182  17.563  0.00  0.00    +0.048 C 
ATOM      5  C   UNL     1      36.236  26.529  17.057  0.00  0.00    +0.004 C 
ATOM      6  C   UNL     1      35.173  27.512  17.506  0.00  0.00    +0.004 C 
ATOM      7  C   UNL     1      33.881  26.758  17.247  0.00  0.00    +0.048 C 
ATOM      8  O   UNL     1      33.699  25.035  18.917  0.00  0.00    -0.485 OA
ATOM      9  C   UNL     1      33.818  23.726  19.305  0.00  0.00    +0.126 A 
ATOM     10  C   UNL     1      34.125  23.475  20.641  0.00  0.00    +0.046 A 
ATOM     11  C   UNL     1      34.297  22.162  21.082  0.00  0.00    +0.004 A 
ATOM     12  C   UNL     1      34.144  21.101  20.192  0.00  0.00    +0.001 A 
ATOM     13  C   UNL     1      33.806  21.356  18.863  0.00  0.00    +0.009 A 
ATOM     14  C   UNL     1      33.641  22.675  18.409  0.00  0.00    +0.015 A 
ENDROOT
BRANCH   1  21
ATOM     15  N   UNL     1      27.764  20.012  15.979  0.00  0.00    -0.299 N 
ATOM     16  C   UNL     1      28.796  19.729  14.983  0.00  0.00    +0.127 C 
ATOM     17  C   UNL     1      29.487  20.997  14.491  0.00  0.00    +0.129 C 
ATOM     18  N   UNL     1      30.031  21.714  15.635  0.00  0.00    -0.275 N 
ATOM     19  C   UNL     1      31.385  21.948  15.696  0.00  0.00    +0.303 C 
ATOM     20  O   UNL     1      32.161  21.580  14.815  0.00  0.00    -0.253 OA
ATOM     21  N   UNL     1      31.833  22.589  16.816  0.00  0.00    -0.292 N 
ATOM     22  C   UNL     1      29.039  22.071  16.653  0.00  0.00    +0.205 C 
ATOM     23  C   UNL     1      27.809  21.148  16.779  0.00  0.00    +0.233 C 
ATOM     24  O   UNL     1      26.913  21.423  17.581  0.00  0.00    -0.274 OA
ATOM     25  H   UNL     1      31.186  23.175  17.316  0.00  0.00    +0.151 HD
BRANCH  15  27
ATOM     26  C   UNL     1      27.195  17.614  15.813  0.00  0.00    +0.024 C 
ATOM     27  C   UNL     1      26.733  19.005  16.211  0.00  0.00    +0.104 C 
ENDBRANCH  15  27
ENDBRANCH   1  21
TORSDOF 2
ENDMDL
MODEL 5
REMARK VINA RESULT:      -6.4      2.398      7.754
REMARK  Name = ZINC000329563636
REMARK  3 active torsions:
REMARK  status: ('A' for Active; 'I' for Inactive)
REMARK    1  A    between atoms: C_1  and  C_2
REMARK    2  A    between atoms: C_2  and  N_3
REMARK    3  A    between atoms: N_9  and  C_10
REMARK                            x       y       z     vdW  Elec       q    Type
REMARK                         _______ _______ _______ _____ _____    ______ ____
ROOT
ATOM      1  C   UNL     1      33.347  22.330  13.105  0.00  0.00    +0.112 C 
ATOM      2  C   UNL     1      34.472  21.445  12.557  0.00  0.00    +0.075 C 
ATOM      3  C   UNL     1      34.832  21.692  11.084  0.00  0.00    +0.113 C 
ATOM      4  C   UNL     1      35.831  22.853  10.845  0.00  0.00    +0.048 C 
ATOM      5  C   UNL     1      37.125  22.212  10.355  0.00  0.00    +0.004 C 
ATOM      6  C   UNL     1      36.666  20.956   9.641  0.00  0.00    +0.004 C 
ATOM      7  C   UNL     1      35.562  20.436  10.545  0.00  0.00    +0.048 C 
ATOM      8  O   UNL     1      33.659  21.884  10.272  0.00  0.00    -0.485 OA
ATOM      9  C   UNL     1      32.866  22.913  10.707  0.00  0.00    +0.126 A 
ATOM     10  C   UNL     1      32.215  23.678   9.741  0.00  0.00    +0.046 A 
ATOM     11  C   UNL     1      31.427  24.764  10.125  0.00  0.00    +0.004 A 
ATOM     12  C   UNL     1      31.273  25.071  11.476  0.00  0.00    +0.001 A 
ATOM     13  C   UNL     1      31.901  24.283  12.440  0.00  0.00    +0.009 A 
ATOM     14  C   UNL     1      32.705  23.195  12.061  0.00  0.00    +0.015 A 
ENDROOT
BRANCH   1  21
ATOM     15  N   UNL     1      28.335  20.115  16.200  0.00  0.00    -0.299 N 
ATOM     16  C   UNL     1      29.084  21.147  16.916  0.00  0.00    +0.127 C 
ATOM     17  C   UNL     1      30.587  20.884  16.900  0.00  0.00    +0.129 C 
ATOM     18  N   UNL     1      31.032  20.763  15.519  0.00  0.00    -0.275 N 
ATOM     19  C   UNL     1      31.979  21.639  15.041  0.00  0.00    +0.303 C 
ATOM     20  O   UNL     1      32.475  22.522  15.739  0.00  0.00    -0.253 OA
ATOM     21  N   UNL     1      32.320  21.495  13.727  0.00  0.00    -0.292 N 
ATOM     22  C   UNL     1      30.353  19.713  14.755  0.00  0.00    +0.205 C 
ATOM     23  C   UNL     1      28.911  19.365  15.181  0.00  0.00    +0.233 C 
ATOM     24  O   UNL     1      28.304  18.455  14.611  0.00  0.00    -0.274 OA
ATOM     25  H   UNL     1      32.191  20.592  13.301  0.00  0.00    +0.151 HD
BRANCH  15  27
ATOM     26  C   UNL     1      26.283  21.273  16.940  0.00  0.00    +0.024 C 
ATOM     27  C   UNL     1      26.914  19.966  16.492  0.00  0.00    +0.104 C 
ENDBRANCH  15  27
ENDBRANCH   1  21
TORSDOF 2
ENDMDL
MODEL 6
REMARK VINA RESULT:      -6.4      4.626      7.549
REMARK  Name = ZINC000329563636
REMARK  3 active torsions:
REMARK  status: ('A' for Active; 'I' for Inactive)
REMARK    1  A    between atoms: C_1  and  C_2
REMARK    2  A    between atoms: C_2  and  N_3
REMARK    3  A    between atoms: N_9  and  C_10
REMARK                            x       y       z     vdW  Elec       q    Type
REMARK                         _______ _______ _______ _____ _____    ______ ____
ROOT
ATOM      1  C   UNL     1      33.450  21.960  17.345  0.00  0.00    +0.112 C 
ATOM      2  C   UNL     1      33.818  23.347  16.810  0.00  0.00    +0.075 C 
ATOM      3  C   UNL     1      33.582  24.505  17.793  0.00  0.00    +0.113 C 
ATOM      4  C   UNL     1      34.736  24.750  18.798  0.00  0.00    +0.048 C 
ATOM      5  C   UNL     1      35.359  26.089  18.418  0.00  0.00    +0.004 C 
ATOM      6  C   UNL     1      34.211  26.869  17.809  0.00  0.00    +0.004 C 
ATOM      7  C   UNL     1      33.489  25.821  16.980  0.00  0.00    +0.048 C 
ATOM      8  O   UNL     1      32.339  24.357  18.505  0.00  0.00    -0.485 OA
ATOM      9  C   UNL     1      32.251  23.175  19.192  0.00  0.00    +0.126 A 
ATOM     10  C   UNL     1      31.588  23.189  20.417  0.00  0.00    +0.046 A 
ATOM     11  C   UNL     1      31.503  22.023  21.179  0.00  0.00    +0.004 A 
ATOM     12  C   UNL     1      32.063  20.838  20.705  0.00  0.00    +0.001 A 
ATOM     13  C   UNL     1      32.698  20.821  19.464  0.00  0.00    +0.009 A 
ATOM     14  C   UNL     1      32.797  21.994  18.696  0.00  0.00    +0.015 A 
ENDROOT
BRANCH   1  21
ATOM     15  N   UNL     1      29.785  17.871  14.270  0.00  0.00    -0.299 N 
ATOM     16  C   UNL     1      31.083  17.336  14.678  0.00  0.00    +0.127 C 
ATOM     17  C   UNL     1      32.231  18.280  14.331  0.00  0.00    +0.129 C 
ATOM     18  N   UNL     1      31.974  19.579  14.937  0.00  0.00    -0.275 N 
ATOM     19  C   UNL     1      32.878  20.085  15.843  0.00  0.00    +0.303 C 
ATOM     20  O   UNL     1      33.904  19.485  16.160  0.00  0.00    -0.253 OA
ATOM     21  N   UNL     1      32.555  21.287  16.403  0.00  0.00    -0.292 N 
ATOM     22  C   UNL     1      30.708  20.195  14.534  0.00  0.00    +0.205 C 
ATOM     23  C   UNL     1      29.563  19.238  14.142  0.00  0.00    +0.233 C 
ATOM     24  O   UNL     1      28.489  19.694  13.744  0.00  0.00    -0.274 OA
ATOM     25  H   UNL     1      31.942  21.899  15.890  0.00  0.00    +0.151 HD
BRANCH  15  27
ATOM     26  C   UNL     1      27.966  16.672  15.432  0.00  0.00    +0.024 C 
ATOM     27  C   UNL     1      28.672  16.941  14.115  0.00  0.00    +0.104 C 
ENDBRANCH  15  27
ENDBRANCH   1  21
TORSDOF 2
ENDMDL
MODEL 7
REMARK VINA RESULT:      -6.4      4.361      7.612
REMARK  Name = ZINC000329563636
REMARK  3 active torsions:
REMARK  status: ('A' for Active; 'I' for Inactive)
REMARK    1  A    between atoms: C_1  and  C_2
REMARK    2  A    between atoms: C_2  and  N_3
REMARK    3  A    between atoms: N_9  and  C_10
REMARK                            x       y       z     vdW  Elec       q    Type
REMARK                         _______ _______ _______ _____ _____    ______ ____
ROOT
ATOM      1  C   UNL     1      31.536  19.764  14.131  0.00  0.00    +0.112 C 
ATOM      2  C   UNL     1      32.833  19.333  13.440  0.00  0.00    +0.075 C 
ATOM      3  C   UNL     1      32.796  17.935  12.803  0.00  0.00    +0.113 C 
ATOM      4  C   UNL     1      32.195  17.887  11.374  0.00  0.00    +0.048 C 
ATOM      5  C   UNL     1      33.348  17.548  10.436  0.00  0.00    +0.004 C 
ATOM      6  C   UNL     1      34.287  16.721  11.290  0.00  0.00    +0.004 C 
ATOM      7  C   UNL     1      34.254  17.441  12.627  0.00  0.00    +0.048 C 
ATOM      8  O   UNL     1      32.123  16.981  13.646  0.00  0.00    -0.485 OA
ATOM      9  C   UNL     1      30.843  17.352  13.963  0.00  0.00    +0.126 A 
ATOM     10  C   UNL     1      29.887  16.344  14.069  0.00  0.00    +0.046 A 
ATOM     11  C   UNL     1      28.559  16.669  14.350  0.00  0.00    +0.004 A 
ATOM     12  C   UNL     1      28.192  17.998  14.544  0.00  0.00    +0.001 A 
ATOM     13  C   UNL     1      29.158  19.001  14.468  0.00  0.00    +0.009 A 
ATOM     14  C   UNL     1      30.495  18.684  14.175  0.00  0.00    +0.015 A 
ENDROOT
BRANCH   1  21
ATOM     15  N   UNL     1      31.330  22.217  19.922  0.00  0.00    -0.299 N 
ATOM     16  C   UNL     1      30.862  23.113  18.866  0.00  0.00    +0.127 C 
ATOM     17  C   UNL     1      31.815  23.150  17.676  0.00  0.00    +0.129 C 
ATOM     18  N   UNL     1      32.006  21.794  17.180  0.00  0.00    -0.275 N 
ATOM     19  C   UNL     1      31.657  21.500  15.882  0.00  0.00    +0.303 C 
ATOM     20  O   UNL     1      31.193  22.343  15.115  0.00  0.00    -0.253 OA
ATOM     21  N   UNL     1      31.824  20.201  15.497  0.00  0.00    -0.292 N 
ATOM     22  C   UNL     1      32.520  20.852  18.178  0.00  0.00    +0.205 C 
ATOM     23  C   UNL     1      32.166  21.139  19.653  0.00  0.00    +0.233 C 
ATOM     24  O   UNL     1      32.611  20.413  20.544  0.00  0.00    -0.274 OA
ATOM     25  H   UNL     1      32.507  19.647  15.984  0.00  0.00    +0.151 HD
BRANCH  15  27
ATOM     26  C   UNL     1      31.835  22.986  22.214  0.00  0.00    +0.024 C 
ATOM     27  C   UNL     1      30.800  22.401  21.269  0.00  0.00    +0.104 C 
ENDBRANCH  15  27
ENDBRANCH   1  21
TORSDOF 2
ENDMDL
MODEL 8
REMARK VINA RESULT:      -6.3      1.938      2.497
REMARK  Name = ZINC000329563636
REMARK  3 active torsions:
REMARK  status: ('A' for Active; 'I' for Inactive)
REMARK    1  A    between atoms: C_1  and  C_2
REMARK    2  A    between atoms: C_2  and  N_3
REMARK    3  A    between atoms: N_9  and  C_10
REMARK                            x       y       z     vdW  Elec       q    Type
REMARK                         _______ _______ _______ _____ _____    ______ ____
ROOT
ATOM      1  C   UNL     1      31.309  22.807  12.852  0.00  0.00    +0.112 C 
ATOM      2  C   UNL     1      30.271  21.784  13.324  0.00  0.00    +0.075 C 
ATOM      3  C   UNL     1      30.390  21.373  14.799  0.00  0.00    +0.113 C 
ATOM      4  C   UNL     1      29.687  22.326  15.800  0.00  0.00    +0.048 C 
ATOM      5  C   UNL     1      28.509  21.549  16.376  0.00  0.00    +0.004 C 
ATOM      6  C   UNL     1      28.961  20.103  16.326  0.00  0.00    +0.004 C 
ATOM      7  C   UNL     1      29.668  20.014  14.985  0.00  0.00    +0.048 C 
ATOM      8  O   UNL     1      31.763  21.181  15.191  0.00  0.00    -0.485 OA
ATOM      9  C   UNL     1      32.541  22.289  14.981  0.00  0.00    +0.126 A 
ATOM     10  C   UNL     1      33.549  22.553  15.907  0.00  0.00    +0.046 A 
ATOM     11  C   UNL     1      34.346  23.690  15.765  0.00  0.00    +0.004 A 
ATOM     12  C   UNL     1      34.149  24.550  14.687  0.00  0.00    +0.001 A 
ATOM     13  C   UNL     1      33.160  24.264  13.746  0.00  0.00    +0.009 A 
ATOM     14  C   UNL     1      32.347  23.128  13.888  0.00  0.00    +0.015 A 
ENDROOT
BRANCH   1  21
ATOM     15  N   UNL     1      34.939  22.042   7.768  0.00  0.00    -0.299 N 
ATOM     16  C   UNL     1      34.276  23.343   7.851  0.00  0.00    +0.127 C 
ATOM     17  C   UNL     1      32.794  23.215   8.189  0.00  0.00    +0.129 C 
ATOM     18  N   UNL     1      32.655  22.464   9.428  0.00  0.00    -0.275 N 
ATOM     19  C   UNL     1      32.038  23.058  10.506  0.00  0.00    +0.303 C 
ATOM     20  O   UNL     1      31.591  24.204  10.463  0.00  0.00    -0.253 OA
ATOM     21  N   UNL     1      31.978  22.313  11.648  0.00  0.00    -0.292 N 
ATOM     22  C   UNL     1      33.257  21.128   9.398  0.00  0.00    +0.205 C 
ATOM     23  C   UNL     1      34.464  20.931   8.457  0.00  0.00    +0.233 C 
ATOM     24  O   UNL     1      34.983  19.818   8.347  0.00  0.00    -0.274 OA
ATOM     25  H   UNL     1      32.010  21.311  11.561  0.00  0.00    +0.151 HD
BRANCH  15  27
ATOM     26  C   UNL     1      35.982  21.936   5.532  0.00  0.00    +0.024 C 
ATOM     27  C   UNL     1      36.197  21.953   7.035  0.00  0.00    +0.104 C 
ENDBRANCH  15  27
ENDBRANCH   1  21
TORSDOF 2
ENDMDL
MODEL 9
REMARK VINA RESULT:      -6.2      4.934      7.738
REMARK  Name = ZINC000329563636
REMARK  3 active torsions:
REMARK  status: ('A' for Active; 'I' for Inactive)
REMARK    1  A    between atoms: C_1  and  C_2
REMARK    2  A    between atoms: C_2  and  N_3
REMARK    3  A    between atoms: N_9  and  C_10
REMARK                            x       y       z     vdW  Elec       q    Type
REMARK                         _______ _______ _______ _____ _____    ______ ____
ROOT
ATOM      1  C   UNL     1      31.877  16.708  13.883  0.00  0.00    +0.112 C 
ATOM      2  C   UNL     1      31.978  16.635  12.356  0.00  0.00    +0.075 C 
ATOM      3  C   UNL     1      33.410  16.583  11.803  0.00  0.00    +0.113 C 
ATOM      4  C   UNL     1      34.042  15.167  11.763  0.00  0.00    +0.048 C 
ATOM      5  C   UNL     1      34.177  14.800  10.290  0.00  0.00    +0.004 C 
ATOM      6  C   UNL     1      34.358  16.134   9.593  0.00  0.00    +0.004 C 
ATOM      7  C   UNL     1      33.376  17.034  10.321  0.00  0.00    +0.048 C 
ATOM      8  O   UNL     1      34.287  17.487  12.502  0.00  0.00    -0.485 OA
ATOM      9  C   UNL     1      34.330  17.258  13.852  0.00  0.00    +0.126 A 
ATOM     10  C   UNL     1      35.549  17.451  14.499  0.00  0.00    +0.046 A 
ATOM     11  C   UNL     1      35.661  17.193  15.866  0.00  0.00    +0.004 A 
ATOM     12  C   UNL     1      34.551  16.762  16.588  0.00  0.00    +0.001 A 
ATOM     13  C   UNL     1      33.325  16.601  15.943  0.00  0.00    +0.009 A 
ATOM     14  C   UNL     1      33.207  16.848  14.564  0.00  0.00    +0.015 A 
ENDROOT
BRANCH   1  21
ATOM     15  N   UNL     1      27.888  20.632  16.763  0.00  0.00    -0.299 N 
ATOM     16  C   UNL     1      27.410  19.254  16.651  0.00  0.00    +0.127 C 
ATOM     17  C   UNL     1      27.597  18.692  15.245  0.00  0.00    +0.129 C 
ATOM     18  N   UNL     1      29.000  18.802  14.874  0.00  0.00    -0.275 N 
ATOM     19  C   UNL     1      29.704  17.660  14.569  0.00  0.00    +0.303 C 
ATOM     20  O   UNL     1      29.193  16.542  14.593  0.00  0.00    -0.253 OA
ATOM     21  N   UNL     1      31.025  17.832  14.270  0.00  0.00    -0.292 N 
ATOM     22  C   UNL     1      29.532  20.167  14.919  0.00  0.00    +0.205 C 
ATOM     23  C   UNL     1      28.876  21.136  15.925  0.00  0.00    +0.233 C 
ATOM     24  O   UNL     1      29.244  22.312  15.975  0.00  0.00    -0.274 OA
ATOM     25  H   UNL     1      31.317  18.727  13.914  0.00  0.00    +0.151 HD
BRANCH  15  27
ATOM     26  C   UNL     1      25.908  21.749  17.729  0.00  0.00    +0.024 C 
ATOM     27  C   UNL     1      27.391  21.448  17.866  0.00  0.00    +0.104 C 
ENDBRANCH  15  27
ENDBRANCH   1  21
TORSDOF 2
ENDMDL
