MODEL 1
REMARK VINA RESULT:      -6.3      0.000      0.000
REMARK  Name = ZINC000543478179
REMARK  8 active torsions:
REMARK  status: ('A' for Active; 'I' for Inactive)
REMARK    1  A    between atoms: C_1  and  C_2
REMARK    2  A    between atoms: C_2  and  N_3
REMARK    3  A    between atoms: N_9  and  C_10
REMARK    4  A    between atoms: C_10  and  C_11
REMARK    5  A    between atoms: C_10  and  C_12
REMARK    6  A    between atoms: C_15  and  O_16
REMARK    7  A    between atoms: O_16  and  C_17
REMARK    8  A    between atoms: C_17  and  C_18
REMARK                            x       y       z     vdW  Elec       q    Type
REMARK                         _______ _______ _______ _____ _____    ______ ____
ROOT
ATOM      1  C   UNL     1      27.708  23.472  19.052  0.00  0.00    +0.102 C 
ATOM      2  C   UNL     1      26.428  23.272  19.875  0.00  0.00    +0.033 C 
ENDROOT
BRANCH   1   9
ATOM      3  N   UNL     1      32.955  24.684  22.496  0.00  0.00    -0.299 N 
ATOM      4  C   UNL     1      32.683  25.678  21.457  0.00  0.00    +0.127 C 
ATOM      5  C   UNL     1      32.301  25.024  20.126  0.00  0.00    +0.129 C 
ATOM      6  N   UNL     1      31.125  24.182  20.323  0.00  0.00    -0.275 N 
ATOM      7  C   UNL     1      30.014  24.339  19.506  0.00  0.00    +0.303 C 
ATOM      8  O   UNL     1      29.975  25.134  18.576  0.00  0.00    -0.253 OA
ATOM      9  N   UNL     1      28.939  23.554  19.843  0.00  0.00    -0.293 N 
ATOM     10  C   UNL     1      31.230  23.228  21.428  0.00  0.00    +0.205 C 
ATOM     11  C   UNL     1      32.369  23.422  22.447  0.00  0.00    +0.233 C 
ATOM     12  O   UNL     1      32.633  22.536  23.261  0.00  0.00    -0.274 OA
ATOM     13  H   UNL     1      29.184  22.686  20.287  0.00  0.00    +0.151 HD
BRANCH   3  15
ATOM     14  C   UNL     1      35.070  25.089  23.708  0.00  0.00    +0.024 C 
ATOM     15  C   UNL     1      33.548  25.125  23.758  0.00  0.00    +0.104 C 
ENDBRANCH   3  15
ENDBRANCH   1   9
BRANCH   1  16
ATOM     16  C   UNL     1      27.869  22.321  18.066  0.00  0.00    -0.024 A 
ATOM     17  C   UNL     1      27.619  21.001  18.489  0.00  0.00    +0.009 A 
ATOM     18  C   UNL     1      27.838  19.919  17.641  0.00  0.00    +0.049 A 
ATOM     19  C   UNL     1      28.359  20.125  16.364  0.00  0.00    +0.156 A 
ATOM     20  C   UNL     1      28.548  21.434  15.913  0.00  0.00    +0.165 A 
ATOM     21  F   UNL     1      29.002  21.664  14.672  0.00  0.00    -0.202 F 
ATOM     22  C   UNL     1      28.311  22.527  16.752  0.00  0.00    +0.047 A 
BRANCH  19  23
ATOM     23  O   UNL     1      28.720  19.106  15.521  0.00  0.00    -0.489 OA
BRANCH  23  24
ATOM     24  C   UNL     1      29.636  18.165  16.089  0.00  0.00    +0.232 C 
BRANCH  24  25
ATOM     25  C   UNL     1      31.031  18.646  15.859  0.00  0.00    +0.027 C 
ATOM     26  C   UNL     1      32.188  17.980  16.557  0.00  0.00    +0.007 C 
ATOM     27  C   UNL     1      31.784  19.377  16.944  0.00  0.00    +0.007 C 
ENDBRANCH  24  25
ENDBRANCH  23  24
ENDBRANCH  19  23
ENDBRANCH   1  16
TORSDOF 6
ENDMDL
MODEL 2
REMARK VINA RESULT:      -6.3      2.917      4.195
REMARK  Name = ZINC000543478179
REMARK  8 active torsions:
REMARK  status: ('A' for Active; 'I' for Inactive)
REMARK    1  A    between atoms: C_1  and  C_2
REMARK    2  A    between atoms: C_2  and  N_3
REMARK    3  A    between atoms: N_9  and  C_10
REMARK    4  A    between atoms: C_10  and  C_11
REMARK    5  A    between atoms: C_10  and  C_12
REMARK    6  A    between atoms: C_15  and  O_16
REMARK    7  A    between atoms: O_16  and  C_17
REMARK    8  A    between atoms: C_17  and  C_18
REMARK                            x       y       z     vdW  Elec       q    Type
REMARK                         _______ _______ _______ _____ _____    ______ ____
ROOT
ATOM      1  C   UNL     1      28.708  20.257  16.458  0.00  0.00    +0.102 C 
ATOM      2  C   UNL     1      27.566  19.620  17.263  0.00  0.00    +0.033 C 
ENDROOT
BRANCH   1   9
ATOM      3  N   UNL     1      31.789  24.235  20.401  0.00  0.00    -0.299 N 
ATOM      4  C   UNL     1      30.331  24.319  20.491  0.00  0.00    +0.127 C 
ATOM      5  C   UNL     1      29.673  24.344  19.108  0.00  0.00    +0.129 C 
ATOM      6  N   UNL     1      30.052  23.141  18.373  0.00  0.00    -0.275 N 
ATOM      7  C   UNL     1      29.074  22.337  17.805  0.00  0.00    +0.303 C 
ATOM      8  O   UNL     1      27.880  22.604  17.848  0.00  0.00    -0.253 OA
ATOM      9  N   UNL     1      29.546  21.190  17.216  0.00  0.00    -0.293 N 
ATOM     10  C   UNL     1      31.492  22.879  18.324  0.00  0.00    +0.205 C 
ATOM     11  C   UNL     1      32.402  23.658  19.292  0.00  0.00    +0.233 C 
ATOM     12  O   UNL     1      33.625  23.637  19.147  0.00  0.00    -0.274 OA
ATOM     13  H   UNL     1      30.482  21.265  16.857  0.00  0.00    +0.151 HD
BRANCH   3  15
ATOM     14  C   UNL     1      32.264  23.375  22.668  0.00  0.00    +0.024 C 
ATOM     15  C   UNL     1      32.584  24.426  21.613  0.00  0.00    +0.104 C 
ENDBRANCH   3  15
ENDBRANCH   1   9
BRANCH   1  16
ATOM     16  C   UNL     1      29.617  19.165  15.905  0.00  0.00    -0.024 A 
ATOM     17  C   UNL     1      31.003  19.228  16.140  0.00  0.00    +0.009 A 
ATOM     18  C   UNL     1      31.872  18.297  15.580  0.00  0.00    +0.049 A 
ATOM     19  C   UNL     1      31.383  17.305  14.729  0.00  0.00    +0.156 A 
ATOM     20  C   UNL     1      30.002  17.196  14.542  0.00  0.00    +0.165 A 
ATOM     21  F   UNL     1      29.498  16.224  13.768  0.00  0.00    -0.202 F 
ATOM     22  C   UNL     1      29.121  18.117  15.118  0.00  0.00    +0.047 A 
BRANCH  19  23
ATOM     23  O   UNL     1      32.186  16.435  14.041  0.00  0.00    -0.489 OA
BRANCH  23  24
ATOM     24  C   UNL     1      33.422  17.000  13.591  0.00  0.00    +0.232 C 
BRANCH  24  25
ATOM     25  C   UNL     1      33.635  16.624  12.161  0.00  0.00    +0.027 C 
ATOM     26  C   UNL     1      35.027  16.575  11.588  0.00  0.00    +0.007 C 
ATOM     27  C   UNL     1      34.075  17.655  11.150  0.00  0.00    +0.007 C 
ENDBRANCH  24  25
ENDBRANCH  23  24
ENDBRANCH  19  23
ENDBRANCH   1  16
TORSDOF 6
ENDMDL
MODEL 3
REMARK VINA RESULT:      -6.2      6.829      8.672
REMARK  Name = ZINC000543478179
REMARK  8 active torsions:
REMARK  status: ('A' for Active; 'I' for Inactive)
REMARK    1  A    between atoms: C_1  and  C_2
REMARK    2  A    between atoms: C_2  and  N_3
REMARK    3  A    between atoms: N_9  and  C_10
REMARK    4  A    between atoms: C_10  and  C_11
REMARK    5  A    between atoms: C_10  and  C_12
REMARK    6  A    between atoms: C_15  and  O_16
REMARK    7  A    between atoms: O_16  and  C_17
REMARK    8  A    between atoms: C_17  and  C_18
REMARK                            x       y       z     vdW  Elec       q    Type
REMARK                         _______ _______ _______ _____ _____    ______ ____
ROOT
ATOM      1  C   UNL     1      31.364  25.824  12.976  0.00  0.00    +0.102 C 
ATOM      2  C   UNL     1      30.188  26.711  12.545  0.00  0.00    +0.033 C 
ENDROOT
BRANCH   1   9
ATOM      3  N   UNL     1      29.424  20.840  16.479  0.00  0.00    -0.299 N 
ATOM      4  C   UNL     1      30.031  21.917  17.262  0.00  0.00    +0.127 C 
ATOM      5  C   UNL     1      31.315  22.443  16.613  0.00  0.00    +0.129 C 
ATOM      6  N   UNL     1      31.013  22.922  15.267  0.00  0.00    -0.275 N 
ATOM      7  C   UNL     1      31.394  24.200  14.884  0.00  0.00    +0.303 C 
ATOM      8  O   UNL     1      32.022  24.957  15.611  0.00  0.00    -0.253 OA
ATOM      9  N   UNL     1      30.978  24.569  13.627  0.00  0.00    -0.293 N 
ATOM     10  C   UNL     1      30.286  21.970  14.425  0.00  0.00    +0.205 C 
ATOM     11  C   UNL     1      29.635  20.752  15.105  0.00  0.00    +0.233 C 
ATOM     12  O   UNL     1      29.203  19.818  14.428  0.00  0.00    -0.274 OA
ATOM     13  H   UNL     1      30.876  23.802  12.985  0.00  0.00    +0.151 HD
BRANCH   3  15
ATOM     14  C   UNL     1      27.721  20.788  18.268  0.00  0.00    +0.024 C 
ATOM     15  C   UNL     1      28.322  20.076  17.063  0.00  0.00    +0.104 C 
ENDBRANCH   3  15
ENDBRANCH   1   9
BRANCH   1  16
ATOM     16  C   UNL     1      32.213  25.470  11.761  0.00  0.00    -0.024 A 
ATOM     17  C   UNL     1      32.271  26.358  10.669  0.00  0.00    +0.009 A 
ATOM     18  C   UNL     1      32.966  26.030   9.509  0.00  0.00    +0.049 A 
ATOM     19  C   UNL     1      33.584  24.785   9.392  0.00  0.00    +0.156 A 
ATOM     20  C   UNL     1      33.588  23.925  10.493  0.00  0.00    +0.165 A 
ATOM     21  F   UNL     1      34.214  22.741  10.426  0.00  0.00    -0.202 F 
ATOM     22  C   UNL     1      32.907  24.256  11.669  0.00  0.00    +0.047 A 
BRANCH  19  23
ATOM     23  O   UNL     1      34.176  24.341   8.239  0.00  0.00    -0.489 OA
BRANCH  23  24
ATOM     24  C   UNL     1      35.527  24.779   8.061  0.00  0.00    +0.232 C 
BRANCH  24  25
ATOM     25  C   UNL     1      36.302  23.698   7.381  0.00  0.00    +0.027 C 
ATOM     26  C   UNL     1      35.889  22.257   7.532  0.00  0.00    +0.007 C 
ATOM     27  C   UNL     1      37.158  22.744   8.178  0.00  0.00    +0.007 C 
ENDBRANCH  24  25
ENDBRANCH  23  24
ENDBRANCH  19  23
ENDBRANCH   1  16
TORSDOF 6
ENDMDL
MODEL 4
REMARK VINA RESULT:      -6.2      4.764      7.781
REMARK  Name = ZINC000543478179
REMARK  8 active torsions:
REMARK  status: ('A' for Active; 'I' for Inactive)
REMARK    1  A    between atoms: C_1  and  C_2
REMARK    2  A    between atoms: C_2  and  N_3
REMARK    3  A    between atoms: N_9  and  C_10
REMARK    4  A    between atoms: C_10  and  C_11
REMARK    5  A    between atoms: C_10  and  C_12
REMARK    6  A    between atoms: C_15  and  O_16
REMARK    7  A    between atoms: O_16  and  C_17
REMARK    8  A    between atoms: C_17  and  C_18
REMARK                            x       y       z     vdW  Elec       q    Type
REMARK                         _______ _______ _______ _____ _____    ______ ____
ROOT
ATOM      1  C   UNL     1      30.193  20.885  15.734  0.00  0.00    +0.102 C 
ATOM      2  C   UNL     1      29.559  19.782  14.875  0.00  0.00    +0.033 C 
ENDROOT
BRANCH   1   9
ATOM      3  N   UNL     1      32.227  25.658  12.001  0.00  0.00    -0.299 N 
ATOM      4  C   UNL     1      33.205  24.585  12.180  0.00  0.00    +0.127 C 
ATOM      5  C   UNL     1      33.305  24.140  13.642  0.00  0.00    +0.129 C 
ATOM      6  N   UNL     1      31.993  23.692  14.099  0.00  0.00    -0.275 N 
ATOM      7  C   UNL     1      31.853  22.445  14.693  0.00  0.00    +0.303 C 
ATOM      8  O   UNL     1      32.797  21.694  14.901  0.00  0.00    -0.253 OA
ATOM      9  N   UNL     1      30.560  22.099  15.001  0.00  0.00    -0.293 N 
ATOM     10  C   UNL     1      30.901  24.636  13.854  0.00  0.00    +0.205 C 
ATOM     11  C   UNL     1      31.156  25.801  12.880  0.00  0.00    +0.233 C 
ATOM     12  O   UNL     1      30.358  26.735  12.805  0.00  0.00    -0.274 OA
ATOM     13  H   UNL     1      29.959  22.880  15.199  0.00  0.00    +0.151 HD
BRANCH   3  15
ATOM     14  C   UNL     1      33.548  26.788  10.246  0.00  0.00    +0.024 C 
ATOM     15  C   UNL     1      32.167  26.352  10.715  0.00  0.00    +0.104 C 
ENDBRANCH   3  15
ENDBRANCH   1   9
BRANCH   1  16
ATOM     16  C   UNL     1      29.228  21.290  16.843  0.00  0.00    -0.024 A 
ATOM     17  C   UNL     1      27.982  21.854  16.510  0.00  0.00    +0.009 A 
ATOM     18  C   UNL     1      27.113  22.313  17.494  0.00  0.00    +0.049 A 
ATOM     19  C   UNL     1      27.486  22.264  18.837  0.00  0.00    +0.156 A 
ATOM     20  C   UNL     1      28.692  21.646  19.182  0.00  0.00    +0.165 A 
ATOM     21  F   UNL     1      29.056  21.541  20.468  0.00  0.00    -0.202 F 
ATOM     22  C   UNL     1      29.563  21.164  18.198  0.00  0.00    +0.047 A 
BRANCH  19  23
ATOM     23  O   UNL     1      26.743  22.810  19.850  0.00  0.00    -0.489 OA
BRANCH  23  24
ATOM     24  C   UNL     1      26.231  24.116  19.570  0.00  0.00    +0.232 C 
BRANCH  24  25
ATOM     25  C   UNL     1      24.745  24.099  19.726  0.00  0.00    +0.027 C 
ATOM     26  C   UNL     1      23.857  24.534  18.589  0.00  0.00    +0.007 C 
ATOM     27  C   UNL     1      23.964  25.386  19.825  0.00  0.00    +0.007 C 
ENDBRANCH  24  25
ENDBRANCH  23  24
ENDBRANCH  19  23
ENDBRANCH   1  16
TORSDOF 6
ENDMDL
MODEL 5
REMARK VINA RESULT:      -6.2      4.340      6.601
REMARK  Name = ZINC000543478179
REMARK  8 active torsions:
REMARK  status: ('A' for Active; 'I' for Inactive)
REMARK    1  A    between atoms: C_1  and  C_2
REMARK    2  A    between atoms: C_2  and  N_3
REMARK    3  A    between atoms: N_9  and  C_10
REMARK    4  A    between atoms: C_10  and  C_11
REMARK    5  A    between atoms: C_10  and  C_12
REMARK    6  A    between atoms: C_15  and  O_16
REMARK    7  A    between atoms: O_16  and  C_17
REMARK    8  A    between atoms: C_17  and  C_18
REMARK                            x       y       z     vdW  Elec       q    Type
REMARK                         _______ _______ _______ _____ _____    ______ ____
ROOT
ATOM      1  C   UNL     1      27.653  22.694  19.350  0.00  0.00    +0.102 C 
ATOM      2  C   UNL     1      28.389  21.796  20.354  0.00  0.00    +0.033 C 
ENDROOT
BRANCH   1   9
ATOM      3  N   UNL     1      24.240  27.269  22.227  0.00  0.00    -0.299 N 
ATOM      4  C   UNL     1      23.429  26.192  21.658  0.00  0.00    +0.127 C 
ATOM      5  C   UNL     1      23.893  25.811  20.249  0.00  0.00    +0.129 C 
ATOM      6  N   UNL     1      25.293  25.400  20.297  0.00  0.00    -0.275 N 
ATOM      7  C   UNL     1      25.680  24.184  19.753  0.00  0.00    +0.303 C 
ATOM      8  O   UNL     1      24.904  23.430  19.182  0.00  0.00    -0.253 OA
ATOM      9  N   UNL     1      27.005  23.869  19.937  0.00  0.00    -0.293 N 
ATOM     10  C   UNL     1      26.188  26.348  20.965  0.00  0.00    +0.205 C 
ATOM     11  C   UNL     1      25.556  27.465  21.816  0.00  0.00    +0.233 C 
ATOM     12  O   UNL     1      26.242  28.406  22.217  0.00  0.00    -0.274 OA
ATOM     13  H   UNL     1      27.613  24.666  20.005  0.00  0.00    +0.151 HD
BRANCH   3  15
ATOM     14  C   UNL     1      23.390  26.877  24.514  0.00  0.00    +0.024 C 
ATOM     15  C   UNL     1      23.798  27.906  23.467  0.00  0.00    +0.104 C 
ENDBRANCH   3  15
ENDBRANCH   1   9
BRANCH   1  16
ATOM     16  C   UNL     1      28.631  23.188  18.290  0.00  0.00    -0.024 A 
ATOM     17  C   UNL     1      28.637  22.591  17.015  0.00  0.00    +0.009 A 
ATOM     18  C   UNL     1      29.572  22.958  16.052  0.00  0.00    +0.049 A 
ATOM     19  C   UNL     1      30.556  23.899  16.354  0.00  0.00    +0.156 A 
ATOM     20  C   UNL     1      30.518  24.544  17.593  0.00  0.00    +0.165 A 
ATOM     21  F   UNL     1      31.423  25.487  17.895  0.00  0.00    -0.202 F 
ATOM     22  C   UNL     1      29.569  24.194  18.560  0.00  0.00    +0.047 A 
BRANCH  19  23
ATOM     23  O   UNL     1      31.584  24.217  15.506  0.00  0.00    -0.489 OA
BRANCH  23  24
ATOM     24  C   UNL     1      31.215  24.280  14.125  0.00  0.00    +0.232 C 
BRANCH  24  25
ATOM     25  C   UNL     1      31.579  25.624  13.586  0.00  0.00    +0.027 C 
ATOM     26  C   UNL     1      30.614  26.378  12.709  0.00  0.00    +0.007 C 
ATOM     27  C   UNL     1      31.876  25.813  12.118  0.00  0.00    +0.007 C 
ENDBRANCH  24  25
ENDBRANCH  23  24
ENDBRANCH  19  23
ENDBRANCH   1  16
TORSDOF 6
ENDMDL
MODEL 6
REMARK VINA RESULT:      -6.0      7.697      9.509
REMARK  Name = ZINC000543478179
REMARK  8 active torsions:
REMARK  status: ('A' for Active; 'I' for Inactive)
REMARK    1  A    between atoms: C_1  and  C_2
REMARK    2  A    between atoms: C_2  and  N_3
REMARK    3  A    between atoms: N_9  and  C_10
REMARK    4  A    between atoms: C_10  and  C_11
REMARK    5  A    between atoms: C_10  and  C_12
REMARK    6  A    between atoms: C_15  and  O_16
REMARK    7  A    between atoms: O_16  and  C_17
REMARK    8  A    between atoms: C_17  and  C_18
REMARK                            x       y       z     vdW  Elec       q    Type
REMARK                         _______ _______ _______ _____ _____    ______ ____
ROOT
ATOM      1  C   UNL     1      32.598  25.325  11.744  0.00  0.00    +0.102 C 
ATOM      2  C   UNL     1      31.749  26.443  11.123  0.00  0.00    +0.033 C 
ENDROOT
BRANCH   1   9
ATOM      3  N   UNL     1      29.044  22.023  15.907  0.00  0.00    -0.299 N 
ATOM      4  C   UNL     1      29.595  23.265  16.450  0.00  0.00    +0.127 C 
ATOM      5  C   UNL     1      31.071  23.446  16.079  0.00  0.00    +0.129 C 
ATOM      6  N   UNL     1      31.206  23.441  14.626  0.00  0.00    -0.275 N 
ATOM      7  C   UNL     1      31.874  24.476  13.987  0.00  0.00    +0.303 C 
ATOM      8  O   UNL     1      32.409  25.398  14.588  0.00  0.00    -0.253 OA
ATOM      9  N   UNL     1      31.860  24.406  12.615  0.00  0.00    -0.293 N 
ATOM     10  C   UNL     1      30.575  22.303  13.954  0.00  0.00    +0.205 C 
ATOM     11  C   UNL     1      29.583  21.445  14.761  0.00  0.00    +0.233 C 
ATOM     12  O   UNL     1      29.194  20.363  14.319  0.00  0.00    -0.274 OA
ATOM     13  H   UNL     1      31.804  23.471  12.249  0.00  0.00    +0.151 HD
BRANCH   3  15
ATOM     14  C   UNL     1      27.813  20.570  17.480  0.00  0.00    +0.024 C 
ATOM     15  C   UNL     1      27.721  21.586  16.349  0.00  0.00    +0.104 C 
ENDBRANCH   3  15
ENDBRANCH   1   9
BRANCH   1  16
ATOM     16  C   UNL     1      33.242  24.496  10.639  0.00  0.00    -0.024 A 
ATOM     17  C   UNL     1      33.747  23.215  10.933  0.00  0.00    +0.009 A 
ATOM     18  C   UNL     1      34.416  22.465   9.971  0.00  0.00    +0.049 A 
ATOM     19  C   UNL     1      34.641  22.996   8.701  0.00  0.00    +0.156 A 
ATOM     20  C   UNL     1      34.088  24.238   8.380  0.00  0.00    +0.165 A 
ATOM     21  F   UNL     1      34.246  24.753   7.152  0.00  0.00    -0.202 F 
ATOM     22  C   UNL     1      33.396  24.989   9.336  0.00  0.00    +0.047 A 
BRANCH  19  23
ATOM     23  O   UNL     1      35.400  22.374   7.745  0.00  0.00    -0.489 OA
BRANCH  23  24
ATOM     24  C   UNL     1      36.790  22.711   7.781  0.00  0.00    +0.232 C 
BRANCH  24  25
ATOM     25  C   UNL     1      37.208  23.191   6.430  0.00  0.00    +0.027 C 
ATOM     26  C   UNL     1      38.618  23.669   6.196  0.00  0.00    +0.007 C 
ATOM     27  C   UNL     1      37.481  24.655   6.181  0.00  0.00    +0.007 C 
ENDBRANCH  24  25
ENDBRANCH  23  24
ENDBRANCH  19  23
ENDBRANCH   1  16
TORSDOF 6
ENDMDL
MODEL 7
REMARK VINA RESULT:      -6.0      3.909      8.107
REMARK  Name = ZINC000543478179
REMARK  8 active torsions:
REMARK  status: ('A' for Active; 'I' for Inactive)
REMARK    1  A    between atoms: C_1  and  C_2
REMARK    2  A    between atoms: C_2  and  N_3
REMARK    3  A    between atoms: N_9  and  C_10
REMARK    4  A    between atoms: C_10  and  C_11
REMARK    5  A    between atoms: C_10  and  C_12
REMARK    6  A    between atoms: C_15  and  O_16
REMARK    7  A    between atoms: O_16  and  C_17
REMARK    8  A    between atoms: C_17  and  C_18
REMARK                            x       y       z     vdW  Elec       q    Type
REMARK                         _______ _______ _______ _____ _____    ______ ____
ROOT
ATOM      1  C   UNL     1      28.836  19.661  16.810  0.00  0.00    +0.102 C 
ATOM      2  C   UNL     1      27.533  19.892  16.033  0.00  0.00    +0.033 C 
ENDROOT
BRANCH   1   9
ATOM      3  N   UNL     1      33.667  18.255  12.866  0.00  0.00    -0.299 N 
ATOM      4  C   UNL     1      33.047  17.085  13.488  0.00  0.00    +0.127 C 
ATOM      5  C   UNL     1      32.803  17.294  14.986  0.00  0.00    +0.129 C 
ATOM      6  N   UNL     1      31.948  18.463  15.174  0.00  0.00    -0.275 N 
ATOM      7  C   UNL     1      30.796  18.364  15.942  0.00  0.00    +0.303 C 
ATOM      8  O   UNL     1      30.464  17.338  16.521  0.00  0.00    -0.253 OA
ATOM      9  N   UNL     1      30.030  19.503  15.974  0.00  0.00    -0.293 N 
ATOM     10  C   UNL     1      32.401  19.674  14.487  0.00  0.00    +0.205 C 
ATOM     11  C   UNL     1      33.486  19.527  13.404  0.00  0.00    +0.233 C 
ATOM     12  O   UNL     1      34.053  20.524  12.952  0.00  0.00    -0.274 OA
ATOM     13  H   UNL     1      30.551  20.356  15.862  0.00  0.00    +0.151 HD
BRANCH   3  15
ATOM     14  C   UNL     1      35.556  17.510  11.459  0.00  0.00    +0.024 C 
ATOM     15  C   UNL     1      34.172  18.145  11.499  0.00  0.00    +0.104 C 
ENDBRANCH   3  15
ENDBRANCH   1   9
BRANCH   1  16
ATOM     16  C   UNL     1      29.086  20.831  17.754  0.00  0.00    -0.024 A 
ATOM     17  C   UNL     1      30.221  21.644  17.571  0.00  0.00    +0.009 A 
ATOM     18  C   UNL     1      30.526  22.668  18.463  0.00  0.00    +0.049 A 
ATOM     19  C   UNL     1      29.729  22.876  19.588  0.00  0.00    +0.156 A 
ATOM     20  C   UNL     1      28.565  22.119  19.743  0.00  0.00    +0.165 A 
ATOM     21  F   UNL     1      27.754  22.329  20.790  0.00  0.00    -0.202 F 
ATOM     22  C   UNL     1      28.242  21.100  18.840  0.00  0.00    +0.047 A 
BRANCH  19  23
ATOM     23  O   UNL     1      30.035  23.777  20.575  0.00  0.00    -0.489 OA
BRANCH  23  24
ATOM     24  C   UNL     1      31.436  23.939  20.815  0.00  0.00    +0.232 C 
BRANCH  24  25
ATOM     25  C   UNL     1      31.684  23.906  22.287  0.00  0.00    +0.027 C 
ATOM     26  C   UNL     1      32.988  24.408  22.849  0.00  0.00    +0.007 C 
ATOM     27  C   UNL     1      32.677  22.936  22.880  0.00  0.00    +0.007 C 
ENDBRANCH  24  25
ENDBRANCH  23  24
ENDBRANCH  19  23
ENDBRANCH   1  16
TORSDOF 6
ENDMDL
MODEL 8
REMARK VINA RESULT:      -6.0      3.968      5.747
REMARK  Name = ZINC000543478179
REMARK  8 active torsions:
REMARK  status: ('A' for Active; 'I' for Inactive)
REMARK    1  A    between atoms: C_1  and  C_2
REMARK    2  A    between atoms: C_2  and  N_3
REMARK    3  A    between atoms: N_9  and  C_10
REMARK    4  A    between atoms: C_10  and  C_11
REMARK    5  A    between atoms: C_10  and  C_12
REMARK    6  A    between atoms: C_15  and  O_16
REMARK    7  A    between atoms: O_16  and  C_17
REMARK    8  A    between atoms: C_17  and  C_18
REMARK                            x       y       z     vdW  Elec       q    Type
REMARK                         _______ _______ _______ _____ _____    ______ ____
ROOT
ATOM      1  C   UNL     1      32.339  24.870  21.163  0.00  0.00    +0.102 C 
ATOM      2  C   UNL     1      33.211  23.784  21.809  0.00  0.00    +0.033 C 
ENDROOT
BRANCH   1   9
ATOM      3  N   UNL     1      35.951  28.885  17.742  0.00  0.00    -0.299 N 
ATOM      4  C   UNL     1      35.753  29.300  19.131  0.00  0.00    +0.127 C 
ATOM      5  C   UNL     1      34.294  29.149  19.571  0.00  0.00    +0.129 C 
ATOM      6  N   UNL     1      33.884  27.757  19.410  0.00  0.00    -0.275 N 
ATOM      7  C   UNL     1      33.309  27.074  20.472  0.00  0.00    +0.303 C 
ATOM      8  O   UNL     1      33.080  27.595  21.556  0.00  0.00    -0.253 OA
ATOM      9  N   UNL     1      33.047  25.748  20.227  0.00  0.00    -0.293 N 
ATOM     10  C   UNL     1      34.152  27.187  18.088  0.00  0.00    +0.205 C 
ATOM     11  C   UNL     1      35.104  27.951  17.149  0.00  0.00    +0.233 C 
ATOM     12  O   UNL     1      35.194  27.635  15.962  0.00  0.00    -0.274 OA
ATOM     13  H   UNL     1      32.858  25.536  19.263  0.00  0.00    +0.151 HD
BRANCH   3  15
ATOM     14  C   UNL     1      37.307  30.618  16.619  0.00  0.00    +0.024 C 
ATOM     15  C   UNL     1      37.229  29.173  17.094  0.00  0.00    +0.104 C 
ENDBRANCH   3  15
ENDBRANCH   1   9
BRANCH   1  16
ATOM     16  C   UNL     1      31.188  24.220  20.404  0.00  0.00    -0.024 A 
ATOM     17  C   UNL     1      30.765  24.767  19.178  0.00  0.00    +0.009 A 
ATOM     18  C   UNL     1      29.664  24.252  18.500  0.00  0.00    +0.049 A 
ATOM     19  C   UNL     1      28.927  23.206  19.054  0.00  0.00    +0.156 A 
ATOM     20  C   UNL     1      29.377  22.614  20.238  0.00  0.00    +0.165 A 
ATOM     21  F   UNL     1      28.717  21.575  20.770  0.00  0.00    -0.202 F 
ATOM     22  C   UNL     1      30.495  23.114  20.914  0.00  0.00    +0.047 A 
BRANCH  19  23
ATOM     23  O   UNL     1      27.762  22.731  18.513  0.00  0.00    -0.489 OA
BRANCH  23  24
ATOM     24  C   UNL     1      27.912  22.122  17.227  0.00  0.00    +0.232 C 
BRANCH  24  25
ATOM     25  C   UNL     1      27.901  20.637  17.390  0.00  0.00    +0.027 C 
ATOM     26  C   UNL     1      28.877  19.782  16.624  0.00  0.00    +0.007 C 
ATOM     27  C   UNL     1      27.414  19.742  16.276  0.00  0.00    +0.007 C 
ENDBRANCH  24  25
ENDBRANCH  23  24
ENDBRANCH  19  23
ENDBRANCH   1  16
TORSDOF 6
ENDMDL
MODEL 9
REMARK VINA RESULT:      -6.0      5.268      8.963
REMARK  Name = ZINC000543478179
REMARK  8 active torsions:
REMARK  status: ('A' for Active; 'I' for Inactive)
REMARK    1  A    between atoms: C_1  and  C_2
REMARK    2  A    between atoms: C_2  and  N_3
REMARK    3  A    between atoms: N_9  and  C_10
REMARK    4  A    between atoms: C_10  and  C_11
REMARK    5  A    between atoms: C_10  and  C_12
REMARK    6  A    between atoms: C_15  and  O_16
REMARK    7  A    between atoms: O_16  and  C_17
REMARK    8  A    between atoms: C_17  and  C_18
REMARK                            x       y       z     vdW  Elec       q    Type
REMARK                         _______ _______ _______ _____ _____    ______ ____
ROOT
ATOM      1  C   UNL     1      30.895  17.330  14.915  0.00  0.00    +0.102 C 
ATOM      2  C   UNL     1      29.847  16.635  14.035  0.00  0.00    +0.033 C 
ENDROOT
BRANCH   1   9
ATOM      3  N   UNL     1      35.837  18.936  11.190  0.00  0.00    -0.299 N 
ATOM      4  C   UNL     1      35.621  17.493  11.302  0.00  0.00    +0.127 C 
ATOM      5  C   UNL     1      35.356  17.064  12.749  0.00  0.00    +0.129 C 
ATOM      6  N   UNL     1      34.188  17.778  13.256  0.00  0.00    -0.275 N 
ATOM      7  C   UNL     1      33.139  17.074  13.830  0.00  0.00    +0.303 C 
ATOM      8  O   UNL     1      33.151  15.859  13.979  0.00  0.00    -0.253 OA
ATOM      9  N   UNL     1      32.061  17.845  14.190  0.00  0.00    -0.293 N 
ATOM     10  C   UNL     1      34.232  19.231  13.082  0.00  0.00    +0.205 C 
ATOM     11  C   UNL     1      35.286  19.813  12.121  0.00  0.00    +0.233 C 
ATOM     12  O   UNL     1      35.508  21.025  12.102  0.00  0.00    -0.274 OA
ATOM     13  H   UNL     1      32.292  18.793  14.432  0.00  0.00    +0.151 HD
BRANCH   3  15
ATOM     14  C   UNL     1      37.238  18.501   9.203  0.00  0.00    +0.024 C 
ATOM     15  C   UNL     1      36.322  19.481   9.924  0.00  0.00    +0.104 C 
ENDBRANCH   3  15
ENDBRANCH   1   9
BRANCH   1  16
ATOM     16  C   UNL     1      30.254  18.503  15.648  0.00  0.00    -0.024 A 
ATOM     17  C   UNL     1      28.875  18.744  15.504  0.00  0.00    +0.009 A 
ATOM     18  C   UNL     1      28.272  19.853  16.090  0.00  0.00    +0.049 A 
ATOM     19  C   UNL     1      29.041  20.777  16.796  0.00  0.00    +0.156 A 
ATOM     20  C   UNL     1      30.398  20.512  17.000  0.00  0.00    +0.165 A 
ATOM     21  F   UNL     1      31.154  21.357  17.716  0.00  0.00    -0.202 F 
ATOM     22  C   UNL     1      31.007  19.388  16.430  0.00  0.00    +0.047 A 
BRANCH  19  23
ATOM     23  O   UNL     1      28.545  21.954  17.291  0.00  0.00    -0.489 OA
BRANCH  23  24
ATOM     24  C   UNL     1      27.475  21.798  18.227  0.00  0.00    +0.232 C 
BRANCH  24  25
ATOM     25  C   UNL     1      27.852  22.462  19.511  0.00  0.00    +0.027 C 
ATOM     26  C   UNL     1      29.258  22.961  19.723  0.00  0.00    +0.007 C 
ATOM     27  C   UNL     1      28.761  21.771  20.499  0.00  0.00    +0.007 C 
ENDBRANCH  24  25
ENDBRANCH  23  24
ENDBRANCH  19  23
ENDBRANCH   1  16
TORSDOF 6
ENDMDL
