MODEL 1
REMARK VINA RESULT:      -6.6      0.000      0.000
REMARK  Name = ZINC000329563636
REMARK  3 active torsions:
REMARK  status: ('A' for Active; 'I' for Inactive)
REMARK    1  A    between atoms: C_1  and  C_2
REMARK    2  A    between atoms: C_2  and  N_3
REMARK    3  A    between atoms: N_9  and  C_10
REMARK                            x       y       z     vdW  Elec       q    Type
REMARK                         _______ _______ _______ _____ _____    ______ ____
ROOT
ATOM      1  C   UNL     1      34.077  22.170  14.398  0.00  0.00    +0.112 C 
ATOM      2  C   UNL     1      34.611  23.310  15.272  0.00  0.00    +0.075 C 
ATOM      3  C   UNL     1      33.766  23.624  16.514  0.00  0.00    +0.113 C 
ATOM      4  C   UNL     1      34.064  22.731  17.747  0.00  0.00    +0.048 C 
ATOM      5  C   UNL     1      34.719  23.636  18.783  0.00  0.00    +0.004 C 
ATOM      6  C   UNL     1      34.119  25.001  18.507  0.00  0.00    +0.004 C 
ATOM      7  C   UNL     1      34.106  25.062  16.988  0.00  0.00    +0.048 C 
ATOM      8  O   UNL     1      32.354  23.600  16.224  0.00  0.00    -0.485 OA
ATOM      9  C   UNL     1      31.937  22.405  15.698  0.00  0.00    +0.126 A 
ATOM     10  C   UNL     1      30.667  21.956  16.056  0.00  0.00    +0.046 A 
ATOM     11  C   UNL     1      30.203  20.726  15.586  0.00  0.00    +0.004 A 
ATOM     12  C   UNL     1      31.000  19.960  14.738  0.00  0.00    +0.001 A 
ATOM     13  C   UNL     1      32.257  20.429  14.356  0.00  0.00    +0.009 A 
ATOM     14  C   UNL     1      32.737  21.658  14.836  0.00  0.00    +0.015 A 
ENDROOT
BRANCH   1  21
ATOM     15  N   UNL     1      34.068  22.642   8.099  0.00  0.00    -0.299 N 
ATOM     16  C   UNL     1      35.184  21.897   8.679  0.00  0.00    +0.127 C 
ATOM     17  C   UNL     1      35.823  22.654   9.838  0.00  0.00    +0.129 C 
ATOM     18  N   UNL     1      34.808  22.900  10.852  0.00  0.00    -0.275 N 
ATOM     19  C   UNL     1      34.983  22.372  12.112  0.00  0.00    +0.303 C 
ATOM     20  O   UNL     1      35.965  21.696  12.413  0.00  0.00    -0.253 OA
ATOM     21  N   UNL     1      33.984  22.616  13.007  0.00  0.00    -0.292 N 
ATOM     22  C   UNL     1      33.641  23.645  10.370  0.00  0.00    +0.205 C 
ATOM     23  C   UNL     1      33.244  23.438   8.893  0.00  0.00    +0.233 C 
ATOM     24  O   UNL     1      32.242  23.998   8.443  0.00  0.00    -0.274 OA
ATOM     25  H   UNL     1      33.406  23.429  12.862  0.00  0.00    +0.151 HD
BRANCH  15  27
ATOM     26  C   UNL     1      34.763  21.851   5.854  0.00  0.00    +0.024 C 
ATOM     27  C   UNL     1      33.617  22.274   6.761  0.00  0.00    +0.104 C 
ENDBRANCH  15  27
ENDBRANCH   1  21
TORSDOF 2
ENDMDL
MODEL 2
REMARK VINA RESULT:      -6.1      3.468      5.801
REMARK  Name = ZINC000329563636
REMARK  3 active torsions:
REMARK  status: ('A' for Active; 'I' for Inactive)
REMARK    1  A    between atoms: C_1  and  C_2
REMARK    2  A    between atoms: C_2  and  N_3
REMARK    3  A    between atoms: N_9  and  C_10
REMARK                            x       y       z     vdW  Elec       q    Type
REMARK                         _______ _______ _______ _____ _____    ______ ____
ROOT
ATOM      1  C   UNL     1      32.862  21.587  14.834  0.00  0.00    +0.112 C 
ATOM      2  C   UNL     1      32.974  21.853  16.339  0.00  0.00    +0.075 C 
ATOM      3  C   UNL     1      33.935  22.988  16.725  0.00  0.00    +0.113 C 
ATOM      4  C   UNL     1      33.319  24.410  16.663  0.00  0.00    +0.048 C 
ATOM      5  C   UNL     1      33.224  24.899  18.104  0.00  0.00    +0.004 C 
ATOM      6  C   UNL     1      34.379  24.206  18.801  0.00  0.00    +0.004 C 
ATOM      7  C   UNL     1      34.336  22.805  18.212  0.00  0.00    +0.048 C 
ATOM      8  O   UNL     1      35.151  22.948  15.953  0.00  0.00    -0.485 OA
ATOM      9  C   UNL     1      34.929  23.000  14.602  0.00  0.00    +0.126 A 
ATOM     10  C   UNL     1      35.856  23.694  13.827  0.00  0.00    +0.046 A 
ATOM     11  C   UNL     1      35.662  23.817  12.449  0.00  0.00    +0.004 A 
ATOM     12  C   UNL     1      34.554  23.225  11.847  0.00  0.00    +0.001 A 
ATOM     13  C   UNL     1      33.645  22.504  12.623  0.00  0.00    +0.009 A 
ATOM     14  C   UNL     1      33.826  22.387  14.010  0.00  0.00    +0.015 A 
ENDROOT
BRANCH   1  21
ATOM     15  N   UNL     1      32.677  15.660  12.655  0.00  0.00    -0.299 N 
ATOM     16  C   UNL     1      31.379  16.295  12.883  0.00  0.00    +0.127 C 
ATOM     17  C   UNL     1      31.316  16.967  14.250  0.00  0.00    +0.129 C 
ATOM     18  N   UNL     1      32.376  17.959  14.334  0.00  0.00    -0.275 N 
ATOM     19  C   UNL     1      32.039  19.281  14.526  0.00  0.00    +0.303 C 
ATOM     20  O   UNL     1      30.872  19.656  14.626  0.00  0.00    -0.253 OA
ATOM     21  N   UNL     1      33.077  20.163  14.568  0.00  0.00    -0.292 N 
ATOM     22  C   UNL     1      33.724  17.423  14.119  0.00  0.00    +0.205 C 
ATOM     23  C   UNL     1      33.848  16.215  13.166  0.00  0.00    +0.233 C 
ATOM     24  O   UNL     1      34.962  15.751  12.907  0.00  0.00    -0.274 OA
ATOM     25  H   UNL     1      33.984  19.816  14.838  0.00  0.00    +0.151 HD
BRANCH  15  27
ATOM     26  C   UNL     1      31.579  14.672  10.663  0.00  0.00    +0.024 C 
ATOM     27  C   UNL     1      32.773  14.649  11.607  0.00  0.00    +0.104 C 
ENDBRANCH  15  27
ENDBRANCH   1  21
TORSDOF 2
ENDMDL
MODEL 3
REMARK VINA RESULT:      -6.1      2.351      8.038
REMARK  Name = ZINC000329563636
REMARK  3 active torsions:
REMARK  status: ('A' for Active; 'I' for Inactive)
REMARK    1  A    between atoms: C_1  and  C_2
REMARK    2  A    between atoms: C_2  and  N_3
REMARK    3  A    between atoms: N_9  and  C_10
REMARK                            x       y       z     vdW  Elec       q    Type
REMARK                         _______ _______ _______ _____ _____    ______ ____
ROOT
ATOM      1  C   UNL     1      35.370  22.195  10.114  0.00  0.00    +0.112 C 
ATOM      2  C   UNL     1      35.273  21.500   8.751  0.00  0.00    +0.075 C 
ATOM      3  C   UNL     1      35.201  22.449   7.545  0.00  0.00    +0.113 C 
ATOM      4  C   UNL     1      36.574  22.953   7.031  0.00  0.00    +0.048 C 
ATOM      5  C   UNL     1      36.783  22.309   5.666  0.00  0.00    +0.004 C 
ATOM      6  C   UNL     1      35.378  22.137   5.124  0.00  0.00    +0.004 C 
ATOM      7  C   UNL     1      34.601  21.671   6.344  0.00  0.00    +0.048 C 
ATOM      8  O   UNL     1      34.332  23.571   7.796  0.00  0.00    -0.485 OA
ATOM      9  C   UNL     1      34.695  24.292   8.902  0.00  0.00    +0.126 A 
ATOM     10  C   UNL     1      34.509  25.673   8.857  0.00  0.00    +0.046 A 
ATOM     11  C   UNL     1      34.899  26.466   9.937  0.00  0.00    +0.004 A 
ATOM     12  C   UNL     1      35.451  25.875  11.071  0.00  0.00    +0.001 A 
ATOM     13  C   UNL     1      35.606  24.489  11.125  0.00  0.00    +0.009 A 
ATOM     14  C   UNL     1      35.229  23.686  10.037  0.00  0.00    +0.015 A 
ENDROOT
BRANCH   1  21
ATOM     15  N   UNL     1      31.524  20.934  14.964  0.00  0.00    -0.299 N 
ATOM     16  C   UNL     1      32.935  21.117  15.302  0.00  0.00    +0.127 C 
ATOM     17  C   UNL     1      33.842  20.311  14.379  0.00  0.00    +0.129 C 
ATOM     18  N   UNL     1      33.602  20.727  13.005  0.00  0.00    -0.275 N 
ATOM     19  C   UNL     1      34.641  21.270  12.282  0.00  0.00    +0.303 C 
ATOM     20  O   UNL     1      35.766  21.421  12.755  0.00  0.00    -0.253 OA
ATOM     21  N   UNL     1      34.343  21.665  11.012  0.00  0.00    -0.292 N 
ATOM     22  C   UNL     1      32.211  20.583  12.565  0.00  0.00    +0.205 C 
ATOM     23  C   UNL     1      31.118  20.753  13.643  0.00  0.00    +0.233 C 
ATOM     24  O   UNL     1      29.928  20.692  13.324  0.00  0.00    -0.274 OA
ATOM     25  H   UNL     1      33.565  21.222  10.548  0.00  0.00    +0.151 HD
BRANCH  15  27
ATOM     26  C   UNL     1      31.045  22.304  16.974  0.00  0.00    +0.024 C 
ATOM     27  C   UNL     1      30.525  21.289  15.966  0.00  0.00    +0.104 C 
ENDBRANCH  15  27
ENDBRANCH   1  21
TORSDOF 2
ENDMDL
MODEL 4
REMARK VINA RESULT:      -5.9      2.812      4.189
REMARK  Name = ZINC000329563636
REMARK  3 active torsions:
REMARK  status: ('A' for Active; 'I' for Inactive)
REMARK    1  A    between atoms: C_1  and  C_2
REMARK    2  A    between atoms: C_2  and  N_3
REMARK    3  A    between atoms: N_9  and  C_10
REMARK                            x       y       z     vdW  Elec       q    Type
REMARK                         _______ _______ _______ _____ _____    ______ ____
ROOT
ATOM      1  C   UNL     1      33.885  21.242  12.087  0.00  0.00    +0.112 C 
ATOM      2  C   UNL     1      32.644  21.824  12.773  0.00  0.00    +0.075 C 
ATOM      3  C   UNL     1      31.796  20.806  13.550  0.00  0.00    +0.113 C 
ATOM      4  C   UNL     1      32.285  20.521  14.994  0.00  0.00    +0.048 C 
ATOM      5  C   UNL     1      31.232  21.108  15.926  0.00  0.00    +0.004 C 
ATOM      6  C   UNL     1      29.942  20.997  15.137  0.00  0.00    +0.004 C 
ATOM      7  C   UNL     1      30.372  21.392  13.733  0.00  0.00    +0.048 C 
ATOM      8  O   UNL     1      31.651  19.566  12.830  0.00  0.00    -0.485 OA
ATOM      9  C   UNL     1      32.853  18.989  12.513  0.00  0.00    +0.126 A 
ATOM     10  C   UNL     1      32.920  17.597  12.536  0.00  0.00    +0.046 A 
ATOM     11  C   UNL     1      34.128  16.951  12.263  0.00  0.00    +0.004 A 
ATOM     12  C   UNL     1      35.259  17.698  11.944  0.00  0.00    +0.001 A 
ATOM     13  C   UNL     1      35.179  19.090  11.889  0.00  0.00    +0.009 A 
ATOM     14  C   UNL     1      33.972  19.747  12.176  0.00  0.00    +0.015 A 
ENDROOT
BRANCH   1  21
ATOM     15  N   UNL     1      35.304  23.562   6.385  0.00  0.00    -0.299 N 
ATOM     16  C   UNL     1      35.579  24.445   7.518  0.00  0.00    +0.127 C 
ATOM     17  C   UNL     1      34.391  24.520   8.472  0.00  0.00    +0.129 C 
ATOM     18  N   UNL     1      34.089  23.179   8.949  0.00  0.00    -0.275 N 
ATOM     19  C   UNL     1      34.169  22.918  10.299  0.00  0.00    +0.303 C 
ATOM     20  O   UNL     1      34.492  23.777  11.119  0.00  0.00    -0.253 OA
ATOM     21  N   UNL     1      33.900  21.636  10.677  0.00  0.00    -0.292 N 
ATOM     22  C   UNL     1      33.797  22.211   7.887  0.00  0.00    +0.205 C 
ATOM     23  C   UNL     1      34.513  22.424   6.536  0.00  0.00    +0.233 C 
ATOM     24  O   UNL     1      34.347  21.614   5.620  0.00  0.00    -0.274 OA
ATOM     25  H   UNL     1      33.316  21.077  10.077  0.00  0.00    +0.151 HD
BRANCH  15  27
ATOM     26  C   UNL     1      36.785  25.061   5.079  0.00  0.00    +0.024 C 
ATOM     27  C   UNL     1      36.141  23.687   5.197  0.00  0.00    +0.104 C 
ENDBRANCH  15  27
ENDBRANCH   1  21
TORSDOF 2
ENDMDL
MODEL 5
REMARK VINA RESULT:      -5.9      3.453      5.399
REMARK  Name = ZINC000329563636
REMARK  3 active torsions:
REMARK  status: ('A' for Active; 'I' for Inactive)
REMARK    1  A    between atoms: C_1  and  C_2
REMARK    2  A    between atoms: C_2  and  N_3
REMARK    3  A    between atoms: N_9  and  C_10
REMARK                            x       y       z     vdW  Elec       q    Type
REMARK                         _______ _______ _______ _____ _____    ______ ____
ROOT
ATOM      1  C   UNL     1      32.960  20.053  11.576  0.00  0.00    +0.112 C 
ATOM      2  C   UNL     1      33.864  18.817  11.526  0.00  0.00    +0.075 C 
ATOM      3  C   UNL     1      33.652  17.814  12.669  0.00  0.00    +0.113 C 
ATOM      4  C   UNL     1      32.498  16.803  12.441  0.00  0.00    +0.048 C 
ATOM      5  C   UNL     1      33.153  15.439  12.258  0.00  0.00    +0.004 C 
ATOM      6  C   UNL     1      34.419  15.527  13.088  0.00  0.00    +0.004 C 
ATOM      7  C   UNL     1      34.921  16.930  12.788  0.00  0.00    +0.048 C 
ATOM      8  O   UNL     1      33.479  18.474  13.938  0.00  0.00    -0.485 OA
ATOM      9  C   UNL     1      32.440  19.368  13.938  0.00  0.00    +0.126 A 
ATOM     10  C   UNL     1      31.700  19.490  15.113  0.00  0.00    +0.046 A 
ATOM     11  C   UNL     1      30.604  20.354  15.162  0.00  0.00    +0.004 A 
ATOM     12  C   UNL     1      30.267  21.112  14.044  0.00  0.00    +0.001 A 
ATOM     13  C   UNL     1      31.031  21.012  12.880  0.00  0.00    +0.009 A 
ATOM     14  C   UNL     1      32.126  20.135  12.819  0.00  0.00    +0.015 A 
ENDROOT
BRANCH   1  21
ATOM     15  N   UNL     1      35.208  25.852  10.466  0.00  0.00    -0.299 N 
ATOM     16  C   UNL     1      34.430  25.253   9.382  0.00  0.00    +0.127 C 
ATOM     17  C   UNL     1      34.879  23.825   9.092  0.00  0.00    +0.129 C 
ATOM     18  N   UNL     1      34.734  23.033  10.304  0.00  0.00    -0.275 N 
ATOM     19  C   UNL     1      33.886  21.948  10.294  0.00  0.00    +0.303 C 
ATOM     20  O   UNL     1      33.242  21.623   9.298  0.00  0.00    -0.253 OA
ATOM     21  N   UNL     1      33.775  21.265  11.469  0.00  0.00    -0.292 N 
ATOM     22  C   UNL     1      35.478  23.551  11.457  0.00  0.00    +0.205 C 
ATOM     23  C   UNL     1      35.667  25.081  11.533  0.00  0.00    +0.233 C 
ATOM     24  O   UNL     1      36.242  25.580  12.504  0.00  0.00    -0.274 OA
ATOM     25  H   UNL     1      34.540  21.317  12.122  0.00  0.00    +0.151 HD
BRANCH  15  27
ATOM     26  C   UNL     1      36.355  27.966   9.863  0.00  0.00    +0.024 C 
ATOM     27  C   UNL     1      35.198  27.304  10.598  0.00  0.00    +0.104 C 
ENDBRANCH  15  27
ENDBRANCH   1  21
TORSDOF 2
ENDMDL
MODEL 6
REMARK VINA RESULT:      -5.9      3.966      7.906
REMARK  Name = ZINC000329563636
REMARK  3 active torsions:
REMARK  status: ('A' for Active; 'I' for Inactive)
REMARK    1  A    between atoms: C_1  and  C_2
REMARK    2  A    between atoms: C_2  and  N_3
REMARK    3  A    between atoms: N_9  and  C_10
REMARK                            x       y       z     vdW  Elec       q    Type
REMARK                         _______ _______ _______ _____ _____    ______ ____
ROOT
ATOM      1  C   UNL     1      33.040  18.279  13.940  0.00  0.00    +0.112 C 
ATOM      2  C   UNL     1      32.786  18.050  12.446  0.00  0.00    +0.075 C 
ATOM      3  C   UNL     1      33.654  16.959  11.802  0.00  0.00    +0.113 C 
ATOM      4  C   UNL     1      33.113  15.514  11.970  0.00  0.00    +0.048 C 
ATOM      5  C   UNL     1      32.680  15.056  10.582  0.00  0.00    +0.004 C 
ATOM      6  C   UNL     1      33.608  15.804   9.645  0.00  0.00    +0.004 C 
ATOM      7  C   UNL     1      33.673  17.188  10.268  0.00  0.00    +0.048 C 
ATOM      8  O   UNL     1      35.021  17.022  12.254  0.00  0.00    -0.485 OA
ATOM      9  C   UNL     1      35.138  16.932  13.616  0.00  0.00    +0.126 A 
ATOM     10  C   UNL     1      36.247  16.254  14.120  0.00  0.00    +0.046 A 
ATOM     11  C   UNL     1      36.401  16.092  15.498  0.00  0.00    +0.004 A 
ATOM     12  C   UNL     1      35.458  16.632  16.371  0.00  0.00    +0.001 A 
ATOM     13  C   UNL     1      34.367  17.339  15.863  0.00  0.00    +0.009 A 
ATOM     14  C   UNL     1      34.199  17.493  14.478  0.00  0.00    +0.015 A 
ENDROOT
BRANCH   1  21
ATOM     15  N   UNL     1      33.510  24.076  16.405  0.00  0.00    -0.299 N 
ATOM     16  C   UNL     1      32.279  23.351  16.714  0.00  0.00    +0.127 C 
ATOM     17  C   UNL     1      31.661  22.734  15.464  0.00  0.00    +0.129 C 
ATOM     18  N   UNL     1      32.630  21.832  14.860  0.00  0.00    -0.275 N 
ATOM     19  C   UNL     1      32.313  20.498  14.738  0.00  0.00    +0.303 C 
ATOM     20  O   UNL     1      31.240  20.037  15.124  0.00  0.00    -0.253 OA
ATOM     21  N   UNL     1      33.274  19.702  14.189  0.00  0.00    -0.292 N 
ATOM     22  C   UNL     1      33.906  22.463  14.510  0.00  0.00    +0.205 C 
ATOM     23  C   UNL     1      34.370  23.637  15.400  0.00  0.00    +0.233 C 
ATOM     24  O   UNL     1      35.459  24.176  15.185  0.00  0.00    -0.274 OA
ATOM     25  H   UNL     1      33.953  20.130  13.579  0.00  0.00    +0.151 HD
BRANCH  15  27
ATOM     26  C   UNL     1      33.242  24.985  18.696  0.00  0.00    +0.024 C 
ATOM     27  C   UNL     1      34.000  25.047  17.378  0.00  0.00    +0.104 C 
ENDBRANCH  15  27
ENDBRANCH   1  21
TORSDOF 2
ENDMDL
MODEL 7
REMARK VINA RESULT:      -5.8      2.287      8.165
REMARK  Name = ZINC000329563636
REMARK  3 active torsions:
REMARK  status: ('A' for Active; 'I' for Inactive)
REMARK    1  A    between atoms: C_1  and  C_2
REMARK    2  A    between atoms: C_2  and  N_3
REMARK    3  A    between atoms: N_9  and  C_10
REMARK                            x       y       z     vdW  Elec       q    Type
REMARK                         _______ _______ _______ _____ _____    ______ ____
ROOT
ATOM      1  C   UNL     1      35.060  21.824  10.117  0.00  0.00    +0.112 C 
ATOM      2  C   UNL     1      35.854  20.682   9.473  0.00  0.00    +0.075 C 
ATOM      3  C   UNL     1      35.549  20.439   7.988  0.00  0.00    +0.113 C 
ATOM      4  C   UNL     1      36.332  21.348   7.005  0.00  0.00    +0.048 C 
ATOM      5  C   UNL     1      37.308  20.439   6.267  0.00  0.00    +0.004 C 
ATOM      6  C   UNL     1      36.603  19.097   6.233  0.00  0.00    +0.004 C 
ATOM      7  C   UNL     1      35.997  18.999   7.623  0.00  0.00    +0.048 C 
ATOM      8  O   UNL     1      34.137  20.523   7.709  0.00  0.00    -0.485 OA
ATOM      9  C   UNL     1      33.589  21.722   8.081  0.00  0.00    +0.126 A 
ATOM     10  C   UNL     1      32.574  22.239   7.277  0.00  0.00    +0.046 A 
ATOM     11  C   UNL     1      32.005  23.477   7.581  0.00  0.00    +0.004 A 
ATOM     12  C   UNL     1      32.434  24.184   8.702  0.00  0.00    +0.001 A 
ATOM     13  C   UNL     1      33.428  23.647   9.522  0.00  0.00    +0.009 A 
ATOM     14  C   UNL     1      34.014  22.409   9.215  0.00  0.00    +0.015 A 
ENDROOT
BRANCH   1  21
ATOM     15  N   UNL     1      31.734  21.197  15.450  0.00  0.00    -0.299 N 
ATOM     16  C   UNL     1      32.491  22.441  15.315  0.00  0.00    +0.127 C 
ATOM     17  C   UNL     1      33.927  22.179  14.878  0.00  0.00    +0.129 C 
ATOM     18  N   UNL     1      33.908  21.468  13.608  0.00  0.00    -0.275 N 
ATOM     19  C   UNL     1      34.495  22.053  12.508  0.00  0.00    +0.303 C 
ATOM     20  O   UNL     1      35.034  23.158  12.557  0.00  0.00    -0.253 OA
ATOM     21  N   UNL     1      34.419  21.348  11.344  0.00  0.00    -0.292 N 
ATOM     22  C   UNL     1      33.171  20.202  13.636  0.00  0.00    +0.205 C 
ATOM     23  C   UNL     1      31.973  20.115  14.607  0.00  0.00    +0.233 C 
ATOM     24  O   UNL     1      31.284  19.092  14.639  0.00  0.00    -0.274 OA
ATOM     25  H   UNL     1      34.309  20.348  11.401  0.00  0.00    +0.151 HD
BRANCH  15  27
ATOM     26  C   UNL     1      30.532  22.277  17.331  0.00  0.00    +0.024 C 
ATOM     27  C   UNL     1      30.503  21.223  16.234  0.00  0.00    +0.104 C 
ENDBRANCH  15  27
ENDBRANCH   1  21
TORSDOF 2
ENDMDL
MODEL 8
REMARK VINA RESULT:      -5.8      2.612      4.235
REMARK  Name = ZINC000329563636
REMARK  3 active torsions:
REMARK  status: ('A' for Active; 'I' for Inactive)
REMARK    1  A    between atoms: C_1  and  C_2
REMARK    2  A    between atoms: C_2  and  N_3
REMARK    3  A    between atoms: N_9  and  C_10
REMARK                            x       y       z     vdW  Elec       q    Type
REMARK                         _______ _______ _______ _____ _____    ______ ____
ROOT
ATOM      1  C   UNL     1      32.548  19.945  12.029  0.00  0.00    +0.112 C 
ATOM      2  C   UNL     1      33.356  18.706  12.432  0.00  0.00    +0.075 C 
ATOM      3  C   UNL     1      33.493  18.487  13.945  0.00  0.00    +0.113 C 
ATOM      4  C   UNL     1      32.300  17.747  14.605  0.00  0.00    +0.048 C 
ATOM      5  C   UNL     1      32.826  16.382  15.033  0.00  0.00    +0.004 C 
ATOM      6  C   UNL     1      34.292  16.632  15.328  0.00  0.00    +0.004 C 
ATOM      7  C   UNL     1      34.710  17.559  14.199  0.00  0.00    +0.048 C 
ATOM      8  O   UNL     1      33.751  19.719  14.646  0.00  0.00    -0.485 OA
ATOM      9  C   UNL     1      32.790  20.671  14.424  0.00  0.00    +0.126 A 
ATOM     10  C   UNL     1      32.467  21.514  15.486  0.00  0.00    +0.046 A 
ATOM     11  C   UNL     1      31.467  22.477  15.333  0.00  0.00    +0.004 A 
ATOM     12  C   UNL     1      30.811  22.611  14.112  0.00  0.00    +0.001 A 
ATOM     13  C   UNL     1      31.161  21.787  13.042  0.00  0.00    +0.009 A 
ATOM     14  C   UNL     1      32.156  20.808  13.191  0.00  0.00    +0.015 A 
ENDROOT
BRANCH   1  21
ATOM     15  N   UNL     1      34.860  22.852   6.919  0.00  0.00    -0.299 N 
ATOM     16  C   UNL     1      34.487  21.449   6.739  0.00  0.00    +0.127 C 
ATOM     17  C   UNL     1      35.047  20.572   7.853  0.00  0.00    +0.129 C 
ATOM     18  N   UNL     1      34.546  21.059   9.130  0.00  0.00    -0.275 N 
ATOM     19  C   UNL     1      33.778  20.222   9.908  0.00  0.00    +0.303 C 
ATOM     20  O   UNL     1      33.495  19.076   9.563  0.00  0.00    -0.253 OA
ATOM     21  N   UNL     1      33.318  20.749  11.078  0.00  0.00    -0.292 N 
ATOM     22  C   UNL     1      34.868  22.462   9.409  0.00  0.00    +0.205 C 
ATOM     23  C   UNL     1      34.978  23.407   8.192  0.00  0.00    +0.233 C 
ATOM     24  O   UNL     1      35.198  24.608   8.367  0.00  0.00    -0.274 OA
ATOM     25  H   UNL     1      33.833  21.510  11.490  0.00  0.00    +0.151 HD
BRANCH  15  27
ATOM     26  C   UNL     1      35.852  23.478   4.735  0.00  0.00    +0.024 C 
ATOM     27  C   UNL     1      34.766  23.742   5.768  0.00  0.00    +0.104 C 
ENDBRANCH  15  27
ENDBRANCH   1  21
TORSDOF 2
ENDMDL
MODEL 9
REMARK VINA RESULT:      -5.8      4.523      5.538
REMARK  Name = ZINC000329563636
REMARK  3 active torsions:
REMARK  status: ('A' for Active; 'I' for Inactive)
REMARK    1  A    between atoms: C_1  and  C_2
REMARK    2  A    between atoms: C_2  and  N_3
REMARK    3  A    between atoms: N_9  and  C_10
REMARK                            x       y       z     vdW  Elec       q    Type
REMARK                         _______ _______ _______ _____ _____    ______ ____
ROOT
ATOM      1  C   UNL     1      34.255  19.978  14.240  0.00  0.00    +0.112 C 
ATOM      2  C   UNL     1      35.310  21.031  13.885  0.00  0.00    +0.075 C 
ATOM      3  C   UNL     1      34.792  22.476  13.839  0.00  0.00    +0.113 C 
ATOM      4  C   UNL     1      34.744  23.193  15.214  0.00  0.00    +0.048 C 
ATOM      5  C   UNL     1      35.812  24.280  15.166  0.00  0.00    +0.004 C 
ATOM      6  C   UNL     1      35.875  24.666  13.701  0.00  0.00    +0.004 C 
ATOM      7  C   UNL     1      35.778  23.324  12.995  0.00  0.00    +0.048 C 
ATOM      8  O   UNL     1      33.504  22.565  13.198  0.00  0.00    -0.485 OA
ATOM      9  C   UNL     1      32.555  21.776  13.793  0.00  0.00    +0.126 A 
ATOM     10  C   UNL     1      31.249  22.262  13.832  0.00  0.00    +0.046 A 
ATOM     11  C   UNL     1      30.246  21.522  14.460  0.00  0.00    +0.004 A 
ATOM     12  C   UNL     1      30.546  20.285  15.027  0.00  0.00    +0.001 A 
ATOM     13  C   UNL     1      31.848  19.787  14.957  0.00  0.00    +0.009 A 
ATOM     14  C   UNL     1      32.864  20.532  14.338  0.00  0.00    +0.015 A 
ENDROOT
BRANCH   1  21
ATOM     15  N   UNL     1      33.436  14.642  10.960  0.00  0.00    -0.299 N 
ATOM     16  C   UNL     1      33.702  14.476  12.388  0.00  0.00    +0.127 C 
ATOM     17  C   UNL     1      34.890  15.319  12.839  0.00  0.00    +0.129 C 
ATOM     18  N   UNL     1      34.612  16.716  12.544  0.00  0.00    -0.275 N 
ATOM     19  C   UNL     1      34.563  17.619  13.583  0.00  0.00    +0.303 C 
ATOM     20  O   UNL     1      34.743  17.289  14.754  0.00  0.00    -0.253 OA
ATOM     21  N   UNL     1      34.271  18.907  13.242  0.00  0.00    -0.292 N 
ATOM     22  C   UNL     1      34.330  16.991  11.132  0.00  0.00    +0.205 C 
ATOM     23  C   UNL     1      33.649  15.864  10.326  0.00  0.00    +0.233 C 
ATOM     24  O   UNL     1      33.342  16.055   9.146  0.00  0.00    -0.274 OA
ATOM     25  H   UNL     1      34.479  19.208  12.304  0.00  0.00    +0.151 HD
BRANCH  15  27
ATOM     26  C   UNL     1      33.424  12.388   9.927  0.00  0.00    +0.024 C 
ATOM     27  C   UNL     1      32.625  13.631  10.290  0.00  0.00    +0.104 C 
ENDBRANCH  15  27
ENDBRANCH   1  21
TORSDOF 2
ENDMDL
