MODEL 1
REMARK VINA RESULT:      -6.3      0.000      0.000
REMARK  Name = ZINC000435351830
REMARK  5 active torsions:
REMARK  status: ('A' for Active; 'I' for Inactive)
REMARK    1  A    between atoms: C_2  and  C_3
REMARK    2  A    between atoms: C_7  and  C_8
REMARK    3  A    between atoms: C_8  and  C_9
REMARK    4  A    between atoms: N_11  and  C_12
REMARK    5  A    between atoms: C_12  and  C_13
REMARK                            x       y       z     vdW  Elec       q    Type
REMARK                         _______ _______ _______ _____ _____    ______ ____
ROOT
ATOM      1  C   UNL     1      33.474  19.906  12.884  0.00  0.00    +0.224 C 
ATOM      2  O   UNL     1      34.639  19.783  13.248  0.00  0.00    -0.275 OA
ATOM      3  N   UNL     1      33.091  20.410  11.669  0.00  0.00    -0.309 N 
ATOM      4  H   UNL     1      32.111  20.448  11.427  0.00  0.00    +0.149 HD
ENDROOT
BRANCH   1   5
ATOM      5  C   UNL     1      32.338  19.553  13.810  0.00  0.00    +0.072 C 
ATOM      6  C   UNL     1      31.348  18.481  13.369  0.00  0.00    +0.022 C 
ATOM      7  C   UNL     1      32.353  18.147  14.422  0.00  0.00    +0.022 C 
BRANCH   5  12
ATOM      8  C   UNL     1      32.490  22.701  15.998  0.00  0.00    +0.052 A 
ATOM      9  C   UNL     1      31.276  22.647  16.684  0.00  0.00    +0.019 A 
ATOM     10  C   UNL     1      30.369  21.625  16.406  0.00  0.00    +0.002 A 
ATOM     11  C   UNL     1      30.683  20.642  15.463  0.00  0.00    +0.005 A 
ATOM     12  C   UNL     1      31.912  20.654  14.780  0.00  0.00    -0.031 A 
ATOM     13  C   UNL     1      32.791  21.721  15.047  0.00  0.00    +0.023 A 
BRANCH   8  15
ATOM     14  N   UNL     1      34.219  24.567  16.503  0.00  0.00    -0.191 NA
ATOM     15  C   UNL     1      33.443  23.730  16.285  0.00  0.00    +0.099 C 
ENDBRANCH   8  15
ENDBRANCH   5  12
ENDBRANCH   1   5
BRANCH   3  16
ATOM     16  C   UNL     1      34.055  20.936  10.727  0.00  0.00    +0.159 C 
BRANCH  16  17
ATOM     17  C   UNL     1      33.449  21.889   9.721  0.00  0.00    +0.058 A 
ATOM     18  C   UNL     1      33.152  23.204  10.088  0.00  0.00    +0.028 A 
ATOM     19  C   UNL     1      32.570  24.056   9.151  0.00  0.00    +0.042 A 
ATOM     20  C   UNL     1      32.309  23.570   7.881  0.00  0.00    +0.141 A 
ATOM     21  F   UNL     1      31.743  24.357   6.958  0.00  0.00    -0.204 F 
ATOM     22  C   UNL     1      32.639  22.260   7.585  0.00  0.00    +0.149 A 
ATOM     23  N   UNL     1      33.209  21.408   8.472  0.00  0.00    -0.255 NA
ENDBRANCH  16  17
ENDBRANCH   3  16
TORSDOF 5
ENDMDL
MODEL 2
REMARK VINA RESULT:      -6.2      1.928      3.535
REMARK  Name = ZINC000435351830
REMARK  5 active torsions:
REMARK  status: ('A' for Active; 'I' for Inactive)
REMARK    1  A    between atoms: C_2  and  C_3
REMARK    2  A    between atoms: C_7  and  C_8
REMARK    3  A    between atoms: C_8  and  C_9
REMARK    4  A    between atoms: N_11  and  C_12
REMARK    5  A    between atoms: C_12  and  C_13
REMARK                            x       y       z     vdW  Elec       q    Type
REMARK                         _______ _______ _______ _____ _____    ______ ____
ROOT
ATOM      1  C   UNL     1      32.970  21.334  13.217  0.00  0.00    +0.224 C 
ATOM      2  O   UNL     1      33.443  22.361  13.691  0.00  0.00    -0.275 OA
ATOM      3  N   UNL     1      33.335  20.797  12.010  0.00  0.00    -0.309 N 
ATOM      4  H   UNL     1      32.924  19.927  11.703  0.00  0.00    +0.149 HD
ENDROOT
BRANCH   1   5
ATOM      5  C   UNL     1      31.869  20.594  13.932  0.00  0.00    +0.072 C 
ATOM      6  C   UNL     1      30.922  21.387  14.826  0.00  0.00    +0.022 C 
ATOM      7  C   UNL     1      30.430  20.905  13.501  0.00  0.00    +0.022 C 
BRANCH   5  12
ATOM      8  C   UNL     1      33.588  17.400  15.180  0.00  0.00    +0.052 A 
ATOM      9  C   UNL     1      32.800  16.396  14.616  0.00  0.00    +0.019 A 
ATOM     10  C   UNL     1      31.670  16.738  13.873  0.00  0.00    +0.002 A 
ATOM     11  C   UNL     1      31.341  18.082  13.672  0.00  0.00    +0.005 A 
ATOM     12  C   UNL     1      32.136  19.114  14.202  0.00  0.00    -0.031 A 
ATOM     13  C   UNL     1      33.245  18.740  14.984  0.00  0.00    +0.023 A 
BRANCH   8  15
ATOM     14  N   UNL     1      35.725  16.811  16.527  0.00  0.00    -0.191 NA
ATOM     15  C   UNL     1      34.763  17.068  15.928  0.00  0.00    +0.099 C 
ENDBRANCH   8  15
ENDBRANCH   5  12
ENDBRANCH   1   5
BRANCH   3  16
ATOM     16  C   UNL     1      34.268  21.468  11.132  0.00  0.00    +0.159 C 
BRANCH  16  17
ATOM     17  C   UNL     1      33.592  22.239  10.020  0.00  0.00    +0.058 A 
ATOM     18  C   UNL     1      33.090  23.521  10.257  0.00  0.00    +0.028 A 
ATOM     19  C   UNL     1      32.449  24.202   9.223  0.00  0.00    +0.042 A 
ATOM     20  C   UNL     1      32.334  23.584   7.990  0.00  0.00    +0.141 A 
ATOM     21  F   UNL     1      31.718  24.205   6.976  0.00  0.00    -0.204 F 
ATOM     22  C   UNL     1      32.866  22.318   7.824  0.00  0.00    +0.149 A 
ATOM     23  N   UNL     1      33.497  21.631   8.806  0.00  0.00    -0.255 NA
ENDBRANCH  16  17
ENDBRANCH   3  16
TORSDOF 5
ENDMDL
MODEL 3
REMARK VINA RESULT:      -6.2      2.066      4.386
REMARK  Name = ZINC000435351830
REMARK  5 active torsions:
REMARK  status: ('A' for Active; 'I' for Inactive)
REMARK    1  A    between atoms: C_2  and  C_3
REMARK    2  A    between atoms: C_7  and  C_8
REMARK    3  A    between atoms: C_8  and  C_9
REMARK    4  A    between atoms: N_11  and  C_12
REMARK    5  A    between atoms: C_12  and  C_13
REMARK                            x       y       z     vdW  Elec       q    Type
REMARK                         _______ _______ _______ _____ _____    ______ ____
ROOT
ATOM      1  C   UNL     1      32.878  21.200  13.235  0.00  0.00    +0.224 C 
ATOM      2  O   UNL     1      33.092  22.238  13.850  0.00  0.00    -0.275 OA
ATOM      3  N   UNL     1      33.440  20.884  12.026  0.00  0.00    -0.309 N 
ATOM      4  H   UNL     1      33.241  19.992  11.596  0.00  0.00    +0.149 HD
ENDROOT
BRANCH   1   5
ATOM      5  C   UNL     1      31.894  20.185  13.759  0.00  0.00    +0.072 C 
ATOM      6  C   UNL     1      30.756  20.670  14.650  0.00  0.00    +0.022 C 
ATOM      7  C   UNL     1      30.454  20.282  13.240  0.00  0.00    +0.022 C 
BRANCH   5  12
ATOM      8  C   UNL     1      32.405  16.449  13.052  0.00  0.00    +0.052 A 
ATOM      9  C   UNL     1      33.216  16.053  14.115  0.00  0.00    +0.019 A 
ATOM     10  C   UNL     1      33.656  16.998  15.041  0.00  0.00    +0.002 A 
ATOM     11  C   UNL     1      33.265  18.335  14.922  0.00  0.00    +0.005 A 
ATOM     12  C   UNL     1      32.421  18.756  13.879  0.00  0.00    -0.031 A 
ATOM     13  C   UNL     1      32.029  17.790  12.933  0.00  0.00    +0.023 A 
BRANCH   8  15
ATOM     14  N   UNL     1      31.550  14.701  11.338  0.00  0.00    -0.191 NA
ATOM     15  C   UNL     1      31.927  15.490  12.104  0.00  0.00    +0.099 C 
ENDBRANCH   8  15
ENDBRANCH   5  12
ENDBRANCH   1   5
BRANCH   3  16
ATOM     16  C   UNL     1      34.287  21.818  11.316  0.00  0.00    +0.159 C 
BRANCH  16  17
ATOM     17  C   UNL     1      33.599  22.472  10.138  0.00  0.00    +0.058 A 
ATOM     18  C   UNL     1      32.998  23.725  10.282  0.00  0.00    +0.028 A 
ATOM     19  C   UNL     1      32.347  24.295   9.189  0.00  0.00    +0.042 A 
ATOM     20  C   UNL     1      32.324  23.601   7.992  0.00  0.00    +0.141 A 
ATOM     21  F   UNL     1      31.702  24.115   6.923  0.00  0.00    -0.204 F 
ATOM     22  C   UNL     1      32.951  22.370   7.919  0.00  0.00    +0.149 A 
ATOM     23  N   UNL     1      33.594  21.790   8.961  0.00  0.00    -0.255 NA
ENDBRANCH  16  17
ENDBRANCH   3  16
TORSDOF 5
ENDMDL
MODEL 4
REMARK VINA RESULT:      -6.1      4.132      7.394
REMARK  Name = ZINC000435351830
REMARK  5 active torsions:
REMARK  status: ('A' for Active; 'I' for Inactive)
REMARK    1  A    between atoms: C_2  and  C_3
REMARK    2  A    between atoms: C_7  and  C_8
REMARK    3  A    between atoms: C_8  and  C_9
REMARK    4  A    between atoms: N_11  and  C_12
REMARK    5  A    between atoms: C_12  and  C_13
REMARK                            x       y       z     vdW  Elec       q    Type
REMARK                         _______ _______ _______ _____ _____    ______ ____
ROOT
ATOM      1  C   UNL     1      32.387  18.571  13.086  0.00  0.00    +0.224 C 
ATOM      2  O   UNL     1      33.204  19.311  12.550  0.00  0.00    -0.275 OA
ATOM      3  N   UNL     1      31.131  18.956  13.478  0.00  0.00    -0.309 N 
ATOM      4  H   UNL     1      30.501  18.279  13.882  0.00  0.00    +0.149 HD
ENDROOT
BRANCH   1   5
ATOM      5  C   UNL     1      32.743  17.144  13.417  0.00  0.00    +0.072 C 
ATOM      6  C   UNL     1      33.979  16.883  14.271  0.00  0.00    +0.022 C 
ATOM      7  C   UNL     1      32.629  16.724  14.888  0.00  0.00    +0.022 C 
BRANCH   5  12
ATOM      8  C   UNL     1      32.775  14.475  10.662  0.00  0.00    +0.052 A 
ATOM      9  C   UNL     1      31.415  14.249  10.450  0.00  0.00    +0.019 A 
ATOM     10  C   UNL     1      30.471  14.913  11.234  0.00  0.00    +0.002 A 
ATOM     11  C   UNL     1      30.884  15.822  12.212  0.00  0.00    +0.005 A 
ATOM     12  C   UNL     1      32.247  16.094  12.425  0.00  0.00    -0.031 A 
ATOM     13  C   UNL     1      33.179  15.377  11.651  0.00  0.00    +0.023 A 
BRANCH   8  15
ATOM     14  N   UNL     1      34.563  13.298   9.199  0.00  0.00    -0.191 NA
ATOM     15  C   UNL     1      33.757  13.819   9.853  0.00  0.00    +0.099 C 
ENDBRANCH   8  15
ENDBRANCH   5  12
ENDBRANCH   1   5
BRANCH   3  16
ATOM     16  C   UNL     1      30.691  20.330  13.370  0.00  0.00    +0.159 C 
BRANCH  16  17
ATOM     17  C   UNL     1      31.045  21.167  14.578  0.00  0.00    +0.058 A 
ATOM     18  C   UNL     1      30.283  21.074  15.746  0.00  0.00    +0.028 A 
ATOM     19  C   UNL     1      30.613  21.875  16.838  0.00  0.00    +0.042 A 
ATOM     20  C   UNL     1      31.692  22.735  16.731  0.00  0.00    +0.141 A 
ATOM     21  F   UNL     1      32.033  23.524  17.758  0.00  0.00    -0.204 F 
ATOM     22  C   UNL     1      32.408  22.766  15.549  0.00  0.00    +0.149 A 
ATOM     23  N   UNL     1      32.116  21.999  14.470  0.00  0.00    -0.255 NA
ENDBRANCH  16  17
ENDBRANCH   3  16
TORSDOF 5
ENDMDL
MODEL 5
REMARK VINA RESULT:      -6.0      4.418      7.146
REMARK  Name = ZINC000435351830
REMARK  5 active torsions:
REMARK  status: ('A' for Active; 'I' for Inactive)
REMARK    1  A    between atoms: C_2  and  C_3
REMARK    2  A    between atoms: C_7  and  C_8
REMARK    3  A    between atoms: C_8  and  C_9
REMARK    4  A    between atoms: N_11  and  C_12
REMARK    5  A    between atoms: C_12  and  C_13
REMARK                            x       y       z     vdW  Elec       q    Type
REMARK                         _______ _______ _______ _____ _____    ______ ____
ROOT
ATOM      1  C   UNL     1      32.803  21.456  14.154  0.00  0.00    +0.224 C 
ATOM      2  O   UNL     1      33.466  21.470  13.123  0.00  0.00    -0.275 OA
ATOM      3  N   UNL     1      32.982  22.319  15.203  0.00  0.00    -0.309 N 
ATOM      4  H   UNL     1      32.372  22.267  16.007  0.00  0.00    +0.149 HD
ENDROOT
BRANCH   1   5
ATOM      5  C   UNL     1      31.743  20.406  14.372  0.00  0.00    +0.072 C 
ATOM      6  C   UNL     1      30.533  20.762  15.228  0.00  0.00    +0.022 C 
ATOM      7  C   UNL     1      30.368  20.669  13.747  0.00  0.00    +0.022 C 
BRANCH   5  12
ATOM      8  C   UNL     1      31.875  16.719  13.322  0.00  0.00    +0.052 A 
ATOM      9  C   UNL     1      32.917  16.222  14.105  0.00  0.00    +0.019 A 
ATOM     10  C   UNL     1      33.628  17.085  14.939  0.00  0.00    +0.002 A 
ATOM     11  C   UNL     1      33.282  18.437  15.012  0.00  0.00    +0.005 A 
ATOM     12  C   UNL     1      32.216  18.958  14.258  0.00  0.00    -0.031 A 
ATOM     13  C   UNL     1      31.544  18.075  13.391  0.00  0.00    +0.023 A 
BRANCH   8  15
ATOM     14  N   UNL     1      30.496  15.136  11.799  0.00  0.00    -0.191 NA
ATOM     15  C   UNL     1      31.120  15.845  12.476  0.00  0.00    +0.099 C 
ENDBRANCH   8  15
ENDBRANCH   5  12
ENDBRANCH   1   5
BRANCH   3  16
ATOM     16  C   UNL     1      34.058  23.286  15.215  0.00  0.00    +0.159 C 
BRANCH  16  17
ATOM     17  C   UNL     1      34.019  24.208  16.413  0.00  0.00    +0.058 A 
ATOM     18  C   UNL     1      33.067  24.016  17.418  0.00  0.00    +0.028 A 
ATOM     19  C   UNL     1      33.034  24.894  18.500  0.00  0.00    +0.042 A 
ATOM     20  C   UNL     1      33.953  25.928  18.546  0.00  0.00    +0.141 A 
ATOM     21  F   UNL     1      33.947  26.795  19.567  0.00  0.00    -0.204 F 
ATOM     22  C   UNL     1      34.875  26.050  17.522  0.00  0.00    +0.149 A 
ATOM     23  N   UNL     1      34.935  25.212  16.459  0.00  0.00    -0.255 NA
ENDBRANCH  16  17
ENDBRANCH   3  16
TORSDOF 5
ENDMDL
MODEL 6
REMARK VINA RESULT:      -5.9      1.691      2.042
REMARK  Name = ZINC000435351830
REMARK  5 active torsions:
REMARK  status: ('A' for Active; 'I' for Inactive)
REMARK    1  A    between atoms: C_2  and  C_3
REMARK    2  A    between atoms: C_7  and  C_8
REMARK    3  A    between atoms: C_8  and  C_9
REMARK    4  A    between atoms: N_11  and  C_12
REMARK    5  A    between atoms: C_12  and  C_13
REMARK                            x       y       z     vdW  Elec       q    Type
REMARK                         _______ _______ _______ _____ _____    ______ ____
ROOT
ATOM      1  C   UNL     1      33.080  20.436  12.905  0.00  0.00    +0.224 C 
ATOM      2  O   UNL     1      34.176  20.062  13.308  0.00  0.00    -0.275 OA
ATOM      3  N   UNL     1      32.872  21.091  11.720  0.00  0.00    -0.309 N 
ATOM      4  H   UNL     1      31.933  21.336  11.440  0.00  0.00    +0.149 HD
ENDROOT
BRANCH   1   5
ATOM      5  C   UNL     1      31.846  20.244  13.749  0.00  0.00    +0.072 C 
ATOM      6  C   UNL     1      30.617  19.612  13.105  0.00  0.00    +0.022 C 
ATOM      7  C   UNL     1      31.432  18.800  14.056  0.00  0.00    +0.022 C 
BRANCH   5  12
ATOM      8  C   UNL     1      32.619  23.062  16.235  0.00  0.00    +0.052 A 
ATOM      9  C   UNL     1      31.599  22.918  17.176  0.00  0.00    +0.019 A 
ATOM     10  C   UNL     1      30.616  21.947  16.988  0.00  0.00    +0.002 A 
ATOM     11  C   UNL     1      30.664  21.102  15.876  0.00  0.00    +0.005 A 
ATOM     12  C   UNL     1      31.699  21.203  14.929  0.00  0.00    -0.031 A 
ATOM     13  C   UNL     1      32.653  22.220  15.119  0.00  0.00    +0.023 A 
BRANCH   8  15
ATOM     14  N   UNL     1      34.477  24.838  16.583  0.00  0.00    -0.191 NA
ATOM     15  C   UNL     1      33.649  24.038  16.421  0.00  0.00    +0.099 C 
ENDBRANCH   8  15
ENDBRANCH   5  12
ENDBRANCH   1   5
BRANCH   3  16
ATOM     16  C   UNL     1      33.972  21.486  10.867  0.00  0.00    +0.159 C 
BRANCH  16  17
ATOM     17  C   UNL     1      34.050  22.980  10.647  0.00  0.00    +0.058 A 
ATOM     18  C   UNL     1      33.134  23.615   9.804  0.00  0.00    +0.028 A 
ATOM     19  C   UNL     1      33.242  24.989   9.596  0.00  0.00    +0.042 A 
ATOM     20  C   UNL     1      34.253  25.682  10.238  0.00  0.00    +0.141 A 
ATOM     21  F   UNL     1      34.391  27.002  10.056  0.00  0.00    -0.204 F 
ATOM     22  C   UNL     1      35.117  24.990  11.068  0.00  0.00    +0.149 A 
ATOM     23  N   UNL     1      35.037  23.656  11.293  0.00  0.00    -0.255 NA
ENDBRANCH  16  17
ENDBRANCH   3  16
TORSDOF 5
ENDMDL
MODEL 7
REMARK VINA RESULT:      -5.9      3.935      6.964
REMARK  Name = ZINC000435351830
REMARK  5 active torsions:
REMARK  status: ('A' for Active; 'I' for Inactive)
REMARK    1  A    between atoms: C_2  and  C_3
REMARK    2  A    between atoms: C_7  and  C_8
REMARK    3  A    between atoms: C_8  and  C_9
REMARK    4  A    between atoms: N_11  and  C_12
REMARK    5  A    between atoms: C_12  and  C_13
REMARK                            x       y       z     vdW  Elec       q    Type
REMARK                         _______ _______ _______ _____ _____    ______ ____
ROOT
ATOM      1  C   UNL     1      33.495  22.346  10.605  0.00  0.00    +0.224 C 
ATOM      2  O   UNL     1      33.933  21.373  10.001  0.00  0.00    -0.275 OA
ATOM      3  N   UNL     1      32.867  22.286  11.822  0.00  0.00    -0.309 N 
ATOM      4  H   UNL     1      32.564  23.138  12.273  0.00  0.00    +0.149 HD
ENDROOT
BRANCH   1   5
ATOM      5  C   UNL     1      33.569  23.724   9.998  0.00  0.00    +0.072 C 
ATOM      6  C   UNL     1      33.123  23.905   8.551  0.00  0.00    +0.022 C 
ATOM      7  C   UNL     1      32.238  24.400   9.648  0.00  0.00    +0.022 C 
BRANCH   5  12
ATOM      8  C   UNL     1      35.776  26.813  10.545  0.00  0.00    +0.052 A 
ATOM      9  C   UNL     1      36.607  26.406  11.588  0.00  0.00    +0.019 A 
ATOM     10  C   UNL     1      36.427  25.150  12.167  0.00  0.00    +0.002 A 
ATOM     11  C   UNL     1      35.435  24.290  11.687  0.00  0.00    +0.005 A 
ATOM     12  C   UNL     1      34.604  24.662  10.616  0.00  0.00    -0.031 A 
ATOM     13  C   UNL     1      34.778  25.952  10.080  0.00  0.00    +0.023 A 
BRANCH   8  15
ATOM     14  N   UNL     1      36.112  29.120   9.407  0.00  0.00    -0.191 NA
ATOM     15  C   UNL     1      35.960  28.090   9.924  0.00  0.00    +0.099 C 
ENDBRANCH   8  15
ENDBRANCH   5  12
ENDBRANCH   1   5
BRANCH   3  16
ATOM     16  C   UNL     1      32.581  21.024  12.467  0.00  0.00    +0.159 C 
BRANCH  16  17
ATOM     17  C   UNL     1      31.916  21.179  13.816  0.00  0.00    +0.058 A 
ATOM     18  C   UNL     1      30.899  20.303  14.204  0.00  0.00    +0.028 A 
ATOM     19  C   UNL     1      30.283  20.483  15.442  0.00  0.00    +0.042 A 
ATOM     20  C   UNL     1      30.705  21.524  16.250  0.00  0.00    +0.141 A 
ATOM     21  F   UNL     1      30.131  21.731  17.442  0.00  0.00    -0.204 F 
ATOM     22  C   UNL     1      31.725  22.345  15.806  0.00  0.00    +0.149 A 
ATOM     23  N   UNL     1      32.346  22.196  14.611  0.00  0.00    -0.255 NA
ENDBRANCH  16  17
ENDBRANCH   3  16
TORSDOF 5
ENDMDL
MODEL 8
REMARK VINA RESULT:      -5.8      2.558      4.249
REMARK  Name = ZINC000435351830
REMARK  5 active torsions:
REMARK  status: ('A' for Active; 'I' for Inactive)
REMARK    1  A    between atoms: C_2  and  C_3
REMARK    2  A    between atoms: C_7  and  C_8
REMARK    3  A    between atoms: C_8  and  C_9
REMARK    4  A    between atoms: N_11  and  C_12
REMARK    5  A    between atoms: C_12  and  C_13
REMARK                            x       y       z     vdW  Elec       q    Type
REMARK                         _______ _______ _______ _____ _____    ______ ____
ROOT
ATOM      1  C   UNL     1      31.638  21.807  13.381  0.00  0.00    +0.224 C 
ATOM      2  O   UNL     1      30.724  22.479  12.916  0.00  0.00    -0.275 OA
ATOM      3  N   UNL     1      32.911  21.771  12.875  0.00  0.00    -0.309 N 
ATOM      4  H   UNL     1      33.620  21.219  13.336  0.00  0.00    +0.149 HD
ENDROOT
BRANCH   1   5
ATOM      5  C   UNL     1      31.397  20.892  14.555  0.00  0.00    +0.072 C 
ATOM      6  C   UNL     1      31.355  21.498  15.953  0.00  0.00    +0.022 C 
ATOM      7  C   UNL     1      30.076  21.068  15.313  0.00  0.00    +0.022 C 
BRANCH   5  12
ATOM      8  C   UNL     1      33.365  17.615  14.883  0.00  0.00    +0.052 A 
ATOM      9  C   UNL     1      32.757  16.804  13.925  0.00  0.00    +0.019 A 
ATOM     10  C   UNL     1      31.666  17.286  13.201  0.00  0.00    +0.002 A 
ATOM     11  C   UNL     1      31.199  18.586  13.415  0.00  0.00    +0.005 A 
ATOM     12  C   UNL     1      31.813  19.436  14.351  0.00  0.00    -0.031 A 
ATOM     13  C   UNL     1      32.883  18.909  15.099  0.00  0.00    +0.023 A 
BRANCH   8  15
ATOM     14  N   UNL     1      35.420  16.752  16.209  0.00  0.00    -0.191 NA
ATOM     15  C   UNL     1      34.499  17.145  15.620  0.00  0.00    +0.099 C 
ENDBRANCH   8  15
ENDBRANCH   5  12
ENDBRANCH   1   5
BRANCH   3  16
ATOM     16  C   UNL     1      33.265  22.474  11.661  0.00  0.00    +0.159 C 
BRANCH  16  17
ATOM     17  C   UNL     1      33.671  21.551  10.534  0.00  0.00    +0.058 A 
ATOM     18  C   UNL     1      33.526  20.168  10.670  0.00  0.00    +0.028 A 
ATOM     19  C   UNL     1      33.933  19.336   9.628  0.00  0.00    +0.042 A 
ATOM     20  C   UNL     1      34.463  19.911   8.486  0.00  0.00    +0.141 A 
ATOM     21  F   UNL     1      34.871  19.142   7.468  0.00  0.00    -0.204 F 
ATOM     22  C   UNL     1      34.566  21.288   8.416  0.00  0.00    +0.149 A 
ATOM     23  N   UNL     1      34.178  22.124   9.409  0.00  0.00    -0.255 NA
ENDBRANCH  16  17
ENDBRANCH   3  16
TORSDOF 5
ENDMDL
MODEL 9
REMARK VINA RESULT:      -5.8      1.304      1.572
REMARK  Name = ZINC000435351830
REMARK  5 active torsions:
REMARK  status: ('A' for Active; 'I' for Inactive)
REMARK    1  A    between atoms: C_2  and  C_3
REMARK    2  A    between atoms: C_7  and  C_8
REMARK    3  A    between atoms: C_8  and  C_9
REMARK    4  A    between atoms: N_11  and  C_12
REMARK    5  A    between atoms: C_12  and  C_13
REMARK                            x       y       z     vdW  Elec       q    Type
REMARK                         _______ _______ _______ _____ _____    ______ ____
ROOT
ATOM      1  C   UNL     1      33.376  19.571  12.558  0.00  0.00    +0.224 C 
ATOM      2  O   UNL     1      34.566  19.332  12.731  0.00  0.00    -0.275 OA
ATOM      3  N   UNL     1      32.855  20.139  11.425  0.00  0.00    -0.309 N 
ATOM      4  H   UNL     1      31.858  20.273  11.343  0.00  0.00    +0.149 HD
ENDROOT
BRANCH   1   5
ATOM      5  C   UNL     1      32.372  19.299  13.649  0.00  0.00    +0.072 C 
ATOM      6  C   UNL     1      31.378  18.160  13.455  0.00  0.00    +0.022 C 
ATOM      7  C   UNL     1      32.513  17.974  14.408  0.00  0.00    +0.022 C 
BRANCH   5  12
ATOM      8  C   UNL     1      32.735  22.584  15.598  0.00  0.00    +0.052 A 
ATOM      9  C   UNL     1      31.523  22.660  16.284  0.00  0.00    +0.019 A 
ATOM     10  C   UNL     1      30.550  21.681  16.081  0.00  0.00    +0.002 A 
ATOM     11  C   UNL     1      30.797  20.613  15.214  0.00  0.00    +0.005 A 
ATOM     12  C   UNL     1      32.022  20.494  14.535  0.00  0.00    -0.031 A 
ATOM     13  C   UNL     1      32.968  21.519  14.723  0.00  0.00    +0.023 A 
BRANCH   8  15
ATOM     14  N   UNL     1      34.570  24.376  15.978  0.00  0.00    -0.191 NA
ATOM     15  C   UNL     1      33.753  23.567  15.809  0.00  0.00    +0.099 C 
ENDBRANCH   8  15
ENDBRANCH   5  12
ENDBRANCH   1   5
BRANCH   3  16
ATOM     16  C   UNL     1      33.704  20.599  10.347  0.00  0.00    +0.159 C 
BRANCH  16  17
ATOM     17  C   UNL     1      33.840  22.104  10.295  0.00  0.00    +0.058 A 
ATOM     18  C   UNL     1      34.668  22.768  11.204  0.00  0.00    +0.028 A 
ATOM     19  C   UNL     1      34.756  24.158  11.153  0.00  0.00    +0.042 A 
ATOM     20  C   UNL     1      34.023  24.837  10.195  0.00  0.00    +0.141 A 
ATOM     21  F   UNL     1      34.078  26.173  10.121  0.00  0.00    -0.204 F 
ATOM     22  C   UNL     1      33.234  24.113   9.320  0.00  0.00    +0.149 A 
ATOM     23  N   UNL     1      33.128  22.762   9.341  0.00  0.00    -0.255 NA
ENDBRANCH  16  17
ENDBRANCH   3  16
TORSDOF 5
ENDMDL
