MODEL 1
REMARK VINA RESULT:      -6.3      0.000      0.000
REMARK  Name = ZINC000583127796
REMARK  2 active torsions:
REMARK  status: ('A' for Active; 'I' for Inactive)
REMARK    1  A    between atoms: C_2  and  C_4
REMARK    2  A    between atoms: C_7  and  C_8
REMARK                            x       y       z     vdW  Elec       q    Type
REMARK                         _______ _______ _______ _____ _____    ______ ____
ROOT
ATOM      1  C   UNL     1      32.732  23.618  14.570  0.00  0.00    +0.247 C 
ATOM      2  O   UNL     1      33.726  22.901  14.474  0.00  0.00    -0.270 OA
ATOM      3  N   UNL     1      32.545  24.765  13.780  0.00  0.00    -0.297 N 
ATOM      4  C   UNL     1      31.394  25.671  13.820  0.00  0.00    +0.108 C 
ATOM      5  C   UNL     1      30.752  25.851  12.456  0.00  0.00    +0.020 C 
ATOM      6  C   UNL     1      31.780  26.212  11.400  0.00  0.00    +0.011 C 
ATOM      7  C   UNL     1      32.978  25.232  11.363  0.00  0.00    -0.004 C 
ATOM      8  C   UNL     1      33.991  25.796  10.344  0.00  0.00    +0.020 C 
ATOM      9  C   UNL     1      34.864  24.678   9.815  0.00  0.00    +0.070 C 
ATOM     10  S   UNL     1      33.724  23.305   9.585  0.00  0.00    -0.160 S 
ATOM     11  C   UNL     1      32.545  23.836  10.858  0.00  0.00    +0.077 C 
ATOM     12  C   UNL     1      33.576  25.122  12.792  0.00  0.00    +0.115 C 
ENDROOT
BRANCH   1  16
ATOM     13  C   UNL     1      29.397  22.542  17.022  0.00  0.00    +0.037 A 
ATOM     14  C   UNL     1      30.386  23.380  17.546  0.00  0.00    +0.014 A 
ATOM     15  C   UNL     1      31.538  23.647  16.801  0.00  0.00    +0.014 A 
ATOM     16  C   UNL     1      31.656  23.164  15.494  0.00  0.00    +0.037 A 
ATOM     17  C   UNL     1      30.715  22.243  15.013  0.00  0.00    +0.014 A 
ATOM     18  C   UNL     1      29.593  21.923  15.782  0.00  0.00    +0.014 A 
BRANCH  13  20
ATOM     19  N   UNL     1      27.864  23.105  18.824  0.00  0.00    -0.325 N 
ATOM     20  C   UNL     1      28.130  22.293  17.757  0.00  0.00    +0.242 C 
ATOM     21  O   UNL     1      27.338  21.438  17.391  0.00  0.00    -0.270 OA
ATOM     22  H   UNL     1      26.942  23.009  19.232  0.00  0.00    +0.145 HD
ATOM     23  H   UNL     1      28.350  23.979  18.970  0.00  0.00    +0.145 HD
ENDBRANCH  13  20
ENDBRANCH   1  16
TORSDOF 2
ENDMDL
MODEL 2
REMARK VINA RESULT:      -6.1      2.883      4.767
REMARK  Name = ZINC000583127796
REMARK  2 active torsions:
REMARK  status: ('A' for Active; 'I' for Inactive)
REMARK    1  A    between atoms: C_2  and  C_4
REMARK    2  A    between atoms: C_7  and  C_8
REMARK                            x       y       z     vdW  Elec       q    Type
REMARK                         _______ _______ _______ _____ _____    ______ ____
ROOT
ATOM      1  C   UNL     1      33.668  25.139  10.361  0.00  0.00    +0.247 C 
ATOM      2  O   UNL     1      34.282  26.204  10.320  0.00  0.00    -0.270 OA
ATOM      3  N   UNL     1      33.795  24.152   9.370  0.00  0.00    -0.297 N 
ATOM      4  C   UNL     1      33.112  22.856   9.339  0.00  0.00    +0.108 C 
ATOM      5  C   UNL     1      34.081  21.695   9.205  0.00  0.00    +0.020 C 
ATOM      6  C   UNL     1      35.047  21.905   8.054  0.00  0.00    +0.011 C 
ATOM      7  C   UNL     1      35.771  23.273   8.116  0.00  0.00    -0.004 C 
ATOM      8  C   UNL     1      36.610  23.398   6.825  0.00  0.00    +0.020 C 
ATOM      9  C   UNL     1      37.755  24.362   7.049  0.00  0.00    +0.070 C 
ATOM     10  S   UNL     1      38.340  23.970   8.706  0.00  0.00    -0.160 S 
ATOM     11  C   UNL     1      36.751  23.336   9.311  0.00  0.00    +0.077 C 
ATOM     12  C   UNL     1      34.704  24.396   8.238  0.00  0.00    +0.115 C 
ENDROOT
BRANCH   1  16
ATOM     13  C   UNL     1      31.220  24.040  13.692  0.00  0.00    +0.037 A 
ATOM     14  C   UNL     1      30.772  25.033  12.814  0.00  0.00    +0.014 A 
ATOM     15  C   UNL     1      31.608  25.485  11.790  0.00  0.00    +0.014 A 
ATOM     16  C   UNL     1      32.849  24.876  11.577  0.00  0.00    +0.037 A 
ATOM     17  C   UNL     1      33.336  23.958  12.518  0.00  0.00    +0.014 A 
ATOM     18  C   UNL     1      32.526  23.549  13.581  0.00  0.00    +0.014 A 
BRANCH  13  20
ATOM     19  N   UNL     1      30.036  24.306  15.799  0.00  0.00    -0.325 N 
ATOM     20  C   UNL     1      30.332  23.486  14.747  0.00  0.00    +0.242 C 
ATOM     21  O   UNL     1      29.845  22.370  14.650  0.00  0.00    -0.270 OA
ATOM     22  H   UNL     1      29.330  23.964  16.441  0.00  0.00    +0.145 HD
ATOM     23  H   UNL     1      30.189  25.304  15.765  0.00  0.00    +0.145 HD
ENDBRANCH  13  20
ENDBRANCH   1  16
TORSDOF 2
ENDMDL
MODEL 3
REMARK VINA RESULT:      -6.0      2.987      3.544
REMARK  Name = ZINC000583127796
REMARK  2 active torsions:
REMARK  status: ('A' for Active; 'I' for Inactive)
REMARK    1  A    between atoms: C_2  and  C_4
REMARK    2  A    between atoms: C_7  and  C_8
REMARK                            x       y       z     vdW  Elec       q    Type
REMARK                         _______ _______ _______ _____ _____    ______ ____
ROOT
ATOM      1  C   UNL     1      33.678  23.974  14.870  0.00  0.00    +0.247 C 
ATOM      2  O   UNL     1      34.854  24.295  15.029  0.00  0.00    -0.270 OA
ATOM      3  N   UNL     1      32.695  24.881  14.441  0.00  0.00    -0.297 N 
ATOM      4  C   UNL     1      31.277  24.587  14.218  0.00  0.00    +0.108 C 
ATOM      5  C   UNL     1      30.818  24.977  12.824  0.00  0.00    +0.020 C 
ATOM      6  C   UNL     1      31.208  26.405  12.488  0.00  0.00    +0.011 C 
ATOM      7  C   UNL     1      32.713  26.689  12.714  0.00  0.00    -0.004 C 
ATOM      8  C   UNL     1      32.931  28.196  12.462  0.00  0.00    +0.020 C 
ATOM      9  C   UNL     1      34.375  28.450  12.086  0.00  0.00    +0.070 C 
ATOM     10  S   UNL     1      34.790  27.082  10.992  0.00  0.00    -0.160 S 
ATOM     11  C   UNL     1      33.588  25.920  11.697  0.00  0.00    +0.077 C 
ATOM     12  C   UNL     1      33.086  26.273  14.164  0.00  0.00    +0.115 C 
ENDROOT
BRANCH   1  16
ATOM     13  C   UNL     1      32.370  19.913  15.189  0.00  0.00    +0.037 A 
ATOM     14  C   UNL     1      32.389  20.716  16.334  0.00  0.00    +0.014 A 
ATOM     15  C   UNL     1      32.921  22.007  16.271  0.00  0.00    +0.014 A 
ATOM     16  C   UNL     1      33.340  22.534  15.045  0.00  0.00    +0.037 A 
ATOM     17  C   UNL     1      33.417  21.694  13.925  0.00  0.00    +0.014 A 
ATOM     18  C   UNL     1      32.943  20.381  14.001  0.00  0.00    +0.014 A 
BRANCH  13  20
ATOM     19  N   UNL     1      31.738  17.874  14.025  0.00  0.00    -0.325 N 
ATOM     20  C   UNL     1      31.748  18.564  15.204  0.00  0.00    +0.242 C 
ATOM     21  O   UNL     1      31.314  18.074  16.235  0.00  0.00    -0.270 OA
ATOM     22  H   UNL     1      31.429  16.911  14.080  0.00  0.00    +0.145 HD
ATOM     23  H   UNL     1      32.327  18.131  13.245  0.00  0.00    +0.145 HD
ENDBRANCH  13  20
ENDBRANCH   1  16
TORSDOF 2
ENDMDL
MODEL 4
REMARK VINA RESULT:      -5.9      5.078      5.904
REMARK  Name = ZINC000583127796
REMARK  2 active torsions:
REMARK  status: ('A' for Active; 'I' for Inactive)
REMARK    1  A    between atoms: C_2  and  C_4
REMARK    2  A    between atoms: C_7  and  C_8
REMARK                            x       y       z     vdW  Elec       q    Type
REMARK                         _______ _______ _______ _____ _____    ______ ____
ROOT
ATOM      1  C   UNL     1      34.079  19.652  15.880  0.00  0.00    +0.247 C 
ATOM      2  O   UNL     1      34.772  19.143  16.759  0.00  0.00    -0.270 OA
ATOM      3  N   UNL     1      34.368  19.517  14.512  0.00  0.00    -0.297 N 
ATOM      4  C   UNL     1      33.599  20.080  13.399  0.00  0.00    +0.108 C 
ATOM      5  C   UNL     1      33.185  19.024  12.390  0.00  0.00    +0.020 C 
ATOM      6  C   UNL     1      34.366  18.178  11.952  0.00  0.00    +0.011 C 
ATOM      7  C   UNL     1      35.154  17.579  13.142  0.00  0.00    -0.004 C 
ATOM      8  C   UNL     1      36.389  16.864  12.551  0.00  0.00    +0.020 C 
ATOM      9  C   UNL     1      36.870  15.796  13.510  0.00  0.00    +0.070 C 
ATOM     10  S   UNL     1      35.356  15.044  14.126  0.00  0.00    -0.160 S 
ATOM     11  C   UNL     1      34.318  16.515  13.890  0.00  0.00    +0.077 C 
ATOM     12  C   UNL     1      35.546  18.730  14.110  0.00  0.00    +0.115 C 
ENDROOT
BRANCH   1  16
ATOM     13  C   UNL     1      30.412  21.676  16.751  0.00  0.00    +0.037 A 
ATOM     14  C   UNL     1      31.625  22.340  16.963  0.00  0.00    +0.014 A 
ATOM     15  C   UNL     1      32.832  21.656  16.794  0.00  0.00    +0.014 A 
ATOM     16  C   UNL     1      32.833  20.342  16.315  0.00  0.00    +0.037 A 
ATOM     17  C   UNL     1      31.619  19.648  16.204  0.00  0.00    +0.014 A 
ATOM     18  C   UNL     1      30.411  20.312  16.434  0.00  0.00    +0.014 A 
BRANCH  13  20
ATOM     19  N   UNL     1      29.107  23.711  16.497  0.00  0.00    -0.325 N 
ATOM     20  C   UNL     1      29.115  22.392  16.852  0.00  0.00    +0.242 C 
ATOM     21  O   UNL     1      28.092  21.813  17.187  0.00  0.00    -0.270 OA
ATOM     22  H   UNL     1      28.194  24.149  16.447  0.00  0.00    +0.145 HD
ATOM     23  H   UNL     1      29.854  24.129  15.960  0.00  0.00    +0.145 HD
ENDBRANCH  13  20
ENDBRANCH   1  16
TORSDOF 2
ENDMDL
MODEL 5
REMARK VINA RESULT:      -5.9      5.940      8.757
REMARK  Name = ZINC000583127796
REMARK  2 active torsions:
REMARK  status: ('A' for Active; 'I' for Inactive)
REMARK    1  A    between atoms: C_2  and  C_4
REMARK    2  A    between atoms: C_7  and  C_8
REMARK                            x       y       z     vdW  Elec       q    Type
REMARK                         _______ _______ _______ _____ _____    ______ ____
ROOT
ATOM      1  C   UNL     1      33.656  24.261  20.103  0.00  0.00    +0.247 C 
ATOM      2  O   UNL     1      34.604  24.966  19.761  0.00  0.00    -0.270 OA
ATOM      3  N   UNL     1      33.451  23.858  21.432  0.00  0.00    -0.297 N 
ATOM      4  C   UNL     1      32.351  23.028  21.931  0.00  0.00    +0.108 C 
ATOM      5  C   UNL     1      31.597  23.690  23.070  0.00  0.00    +0.020 C 
ATOM      6  C   UNL     1      32.540  24.173  24.156  0.00  0.00    +0.011 C 
ATOM      7  C   UNL     1      33.684  25.062  23.611  0.00  0.00    -0.004 C 
ATOM      8  C   UNL     1      34.627  25.363  24.796  0.00  0.00    +0.020 C 
ATOM      9  C   UNL     1      35.396  26.639  24.529  0.00  0.00    +0.070 C 
ATOM     10  S   UNL     1      34.179  27.737  23.787  0.00  0.00    -0.160 S 
ATOM     11  C   UNL     1      33.145  26.417  23.094  0.00  0.00    +0.077 C 
ATOM     12  C   UNL     1      34.404  24.300  22.463  0.00  0.00    +0.115 C 
ENDROOT
BRANCH   1  16
ATOM     13  C   UNL     1      30.539  23.161  17.387  0.00  0.00    +0.037 A 
ATOM     14  C   UNL     1      31.732  22.430  17.389  0.00  0.00    +0.014 A 
ATOM     15  C   UNL     1      32.802  22.846  18.186  0.00  0.00    +0.014 A 
ATOM     16  C   UNL     1      32.648  23.929  19.057  0.00  0.00    +0.037 A 
ATOM     17  C   UNL     1      31.493  24.719  18.976  0.00  0.00    +0.014 A 
ATOM     18  C   UNL     1      30.445  24.342  18.133  0.00  0.00    +0.014 A 
BRANCH  13  20
ATOM     19  N   UNL     1      28.143  22.779  17.226  0.00  0.00    -0.325 N 
ATOM     20  C   UNL     1      29.359  22.707  16.607  0.00  0.00    +0.242 C 
ATOM     21  O   UNL     1      29.466  22.338  15.447  0.00  0.00    -0.270 OA
ATOM     22  H   UNL     1      27.338  22.590  16.641  0.00  0.00    +0.145 HD
ATOM     23  H   UNL     1      27.994  23.332  18.059  0.00  0.00    +0.145 HD
ENDBRANCH  13  20
ENDBRANCH   1  16
TORSDOF 2
ENDMDL
MODEL 6
REMARK VINA RESULT:      -5.8      4.278      6.928
REMARK  Name = ZINC000583127796
REMARK  2 active torsions:
REMARK  status: ('A' for Active; 'I' for Inactive)
REMARK    1  A    between atoms: C_2  and  C_4
REMARK    2  A    between atoms: C_7  and  C_8
REMARK                            x       y       z     vdW  Elec       q    Type
REMARK                         _______ _______ _______ _____ _____    ______ ____
ROOT
ATOM      1  C   UNL     1      33.896  21.947  15.170  0.00  0.00    +0.247 C 
ATOM      2  O   UNL     1      34.864  22.487  15.702  0.00  0.00    -0.270 OA
ATOM      3  N   UNL     1      33.610  20.581  15.327  0.00  0.00    -0.297 N 
ATOM      4  C   UNL     1      32.480  19.855  14.740  0.00  0.00    +0.108 C 
ATOM      5  C   UNL     1      31.659  19.120  15.784  0.00  0.00    +0.020 C 
ATOM      6  C   UNL     1      32.534  18.267  16.683  0.00  0.00    +0.011 C 
ATOM      7  C   UNL     1      33.710  19.057  17.307  0.00  0.00    -0.004 C 
ATOM      8  C   UNL     1      34.578  18.040  18.079  0.00  0.00    +0.020 C 
ATOM      9  C   UNL     1      35.364  18.752  19.159  0.00  0.00    +0.070 C 
ATOM     10  S   UNL     1      34.196  19.939  19.840  0.00  0.00    -0.160 S 
ATOM     11  C   UNL     1      33.205  20.102  18.329  0.00  0.00    +0.077 C 
ATOM     12  C   UNL     1      34.498  19.761  16.167  0.00  0.00    +0.115 C 
ENDROOT
BRANCH   1  16
ATOM     13  C   UNL     1      31.450  24.763  13.076  0.00  0.00    +0.037 A 
ATOM     14  C   UNL     1      31.066  24.343  14.354  0.00  0.00    +0.014 A 
ATOM     15  C   UNL     1      31.789  23.339  15.003  0.00  0.00    +0.014 A 
ATOM     16  C   UNL     1      32.954  22.827  14.424  0.00  0.00    +0.037 A 
ATOM     17  C   UNL     1      33.276  23.173  13.104  0.00  0.00    +0.014 A 
ATOM     18  C   UNL     1      32.517  24.131  12.427  0.00  0.00    +0.014 A 
BRANCH  13  20
ATOM     19  N   UNL     1      29.666  26.415  13.028  0.00  0.00    -0.325 N 
ATOM     20  C   UNL     1      30.747  25.876  12.388  0.00  0.00    +0.242 C 
ATOM     21  O   UNL     1      31.149  26.323  11.325  0.00  0.00    -0.270 OA
ATOM     22  H   UNL     1      29.278  27.252  12.610  0.00  0.00    +0.145 HD
ATOM     23  H   UNL     1      29.489  26.259  14.010  0.00  0.00    +0.145 HD
ENDBRANCH  13  20
ENDBRANCH   1  16
TORSDOF 2
ENDMDL
MODEL 7
REMARK VINA RESULT:      -5.8      2.964      3.498
REMARK  Name = ZINC000583127796
REMARK  2 active torsions:
REMARK  status: ('A' for Active; 'I' for Inactive)
REMARK    1  A    between atoms: C_2  and  C_4
REMARK    2  A    between atoms: C_7  and  C_8
REMARK                            x       y       z     vdW  Elec       q    Type
REMARK                         _______ _______ _______ _____ _____    ______ ____
ROOT
ATOM      1  C   UNL     1      33.371  24.120  15.122  0.00  0.00    +0.247 C 
ATOM      2  O   UNL     1      34.526  24.414  15.426  0.00  0.00    -0.270 OA
ATOM      3  N   UNL     1      32.502  25.022  14.486  0.00  0.00    -0.297 N 
ATOM      4  C   UNL     1      31.118  24.759  14.081  0.00  0.00    +0.108 C 
ATOM      5  C   UNL     1      30.881  25.049  12.610  0.00  0.00    +0.020 C 
ATOM      6  C   UNL     1      31.379  26.430  12.227  0.00  0.00    +0.011 C 
ATOM      7  C   UNL     1      32.848  26.680  12.648  0.00  0.00    -0.004 C 
ATOM      8  C   UNL     1      33.168  28.154  12.316  0.00  0.00    +0.020 C 
ATOM      9  C   UNL     1      34.660  28.327  12.136  0.00  0.00    +0.070 C 
ATOM     10  S   UNL     1      35.165  26.861  11.222  0.00  0.00    -0.160 S 
ATOM     11  C   UNL     1      33.823  25.801  11.831  0.00  0.00    +0.077 C 
ATOM     12  C   UNL     1      32.991  26.372  14.164  0.00  0.00    +0.115 C 
ENDROOT
BRANCH   1  16
ATOM     13  C   UNL     1      32.471  20.035  16.015  0.00  0.00    +0.037 A 
ATOM     14  C   UNL     1      32.911  20.371  14.730  0.00  0.00    +0.014 A 
ATOM     15  C   UNL     1      33.098  21.713  14.388  0.00  0.00    +0.014 A 
ATOM     16  C   UNL     1      32.947  22.711  15.355  0.00  0.00    +0.037 A 
ATOM     17  C   UNL     1      32.407  22.382  16.607  0.00  0.00    +0.014 A 
ATOM     18  C   UNL     1      32.158  21.045  16.931  0.00  0.00    +0.014 A 
BRANCH  13  20
ATOM     19  N   UNL     1      33.378  18.065  17.116  0.00  0.00    -0.325 N 
ATOM     20  C   UNL     1      32.330  18.616  16.434  0.00  0.00    +0.242 C 
ATOM     21  O   UNL     1      31.303  17.989  16.224  0.00  0.00    -0.270 OA
ATOM     22  H   UNL     1      33.216  17.144  17.505  0.00  0.00    +0.145 HD
ATOM     23  H   UNL     1      34.101  18.629  17.540  0.00  0.00    +0.145 HD
ENDBRANCH  13  20
ENDBRANCH   1  16
TORSDOF 2
ENDMDL
MODEL 8
REMARK VINA RESULT:      -5.8      1.605      1.951
REMARK  Name = ZINC000583127796
REMARK  2 active torsions:
REMARK  status: ('A' for Active; 'I' for Inactive)
REMARK    1  A    between atoms: C_2  and  C_4
REMARK    2  A    between atoms: C_7  and  C_8
REMARK                            x       y       z     vdW  Elec       q    Type
REMARK                         _______ _______ _______ _____ _____    ______ ____
ROOT
ATOM      1  C   UNL     1      33.109  23.996  14.616  0.00  0.00    +0.247 C 
ATOM      2  O   UNL     1      33.594  22.877  14.457  0.00  0.00    -0.270 OA
ATOM      3  N   UNL     1      33.390  25.074  13.761  0.00  0.00    -0.297 N 
ATOM      4  C   UNL     1      32.855  26.434  13.869  0.00  0.00    +0.108 C 
ATOM      5  C   UNL     1      32.182  26.894  12.588  0.00  0.00    +0.020 C 
ATOM      6  C   UNL     1      33.076  26.682  11.381  0.00  0.00    +0.011 C 
ATOM      7  C   UNL     1      33.616  25.234  11.276  0.00  0.00    -0.004 C 
ATOM      8  C   UNL     1      34.605  25.206  10.091  0.00  0.00    +0.020 C 
ATOM      9  C   UNL     1      34.722  23.796   9.553  0.00  0.00    +0.070 C 
ATOM     10  S   UNL     1      33.034  23.171   9.592  0.00  0.00    -0.160 S 
ATOM     11  C   UNL     1      32.482  24.234  10.955  0.00  0.00    +0.077 C 
ATOM     12  C   UNL     1      34.297  24.858  12.622  0.00  0.00    +0.115 C 
ENDROOT
BRANCH   1  16
ATOM     13  C   UNL     1      30.373  24.107  17.903  0.00  0.00    +0.037 A 
ATOM     14  C   UNL     1      29.895  23.787  16.628  0.00  0.00    +0.014 A 
ATOM     15  C   UNL     1      30.751  23.859  15.526  0.00  0.00    +0.014 A 
ATOM     16  C   UNL     1      32.106  24.150  15.708  0.00  0.00    +0.037 A 
ATOM     17  C   UNL     1      32.558  24.571  16.966  0.00  0.00    +0.014 A 
ATOM     18  C   UNL     1      31.688  24.561  18.060  0.00  0.00    +0.014 A 
BRANCH  13  20
ATOM     19  N   UNL     1      28.276  23.417  18.921  0.00  0.00    -0.325 N 
ATOM     20  C   UNL     1      29.510  23.973  19.105  0.00  0.00    +0.242 C 
ATOM     21  O   UNL     1      29.907  24.296  20.214  0.00  0.00    -0.270 OA
ATOM     22  H   UNL     1      27.753  23.214  19.765  0.00  0.00    +0.145 HD
ATOM     23  H   UNL     1      28.039  22.894  18.090  0.00  0.00    +0.145 HD
ENDBRANCH  13  20
ENDBRANCH   1  16
TORSDOF 2
ENDMDL
MODEL 9
REMARK VINA RESULT:      -5.7      4.112      7.320
REMARK  Name = ZINC000583127796
REMARK  2 active torsions:
REMARK  status: ('A' for Active; 'I' for Inactive)
REMARK    1  A    between atoms: C_2  and  C_4
REMARK    2  A    between atoms: C_7  and  C_8
REMARK                            x       y       z     vdW  Elec       q    Type
REMARK                         _______ _______ _______ _____ _____    ______ ____
ROOT
ATOM      1  C   UNL     1      33.312  23.652  17.042  0.00  0.00    +0.247 C 
ATOM      2  O   UNL     1      34.531  23.498  17.107  0.00  0.00    -0.270 OA
ATOM      3  N   UNL     1      32.466  23.482  18.150  0.00  0.00    -0.297 N 
ATOM      4  C   UNL     1      31.011  23.650  18.169  0.00  0.00    +0.108 C 
ATOM      5  C   UNL     1      30.555  24.629  19.236  0.00  0.00    +0.020 C 
ATOM      6  C   UNL     1      31.149  24.292  20.591  0.00  0.00    +0.011 C 
ATOM      7  C   UNL     1      32.690  24.137  20.553  0.00  0.00    -0.004 C 
ATOM      8  C   UNL     1      33.131  23.669  21.957  0.00  0.00    +0.020 C 
ATOM      9  C   UNL     1      34.578  24.046  22.192  0.00  0.00    +0.070 C 
ATOM     10  S   UNL     1      34.720  25.696  21.488  0.00  0.00    -0.160 S 
ATOM     11  C   UNL     1      33.384  25.491  20.278  0.00  0.00    +0.077 C 
ATOM     12  C   UNL     1      33.059  23.111  19.446  0.00  0.00    +0.115 C 
ENDROOT
BRANCH   1  16
ATOM     13  C   UNL     1      31.508  25.305  13.534  0.00  0.00    +0.037 A 
ATOM     14  C   UNL     1      31.145  24.018  13.946  0.00  0.00    +0.014 A 
ATOM     15  C   UNL     1      31.808  23.419  15.020  0.00  0.00    +0.014 A 
ATOM     16  C   UNL     1      32.760  24.140  15.748  0.00  0.00    +0.037 A 
ATOM     17  C   UNL     1      33.194  25.385  15.270  0.00  0.00    +0.014 A 
ATOM     18  C   UNL     1      32.576  25.961  14.157  0.00  0.00    +0.014 A 
BRANCH  13  20
ATOM     19  N   UNL     1      29.575  26.564  12.764  0.00  0.00    -0.325 N 
ATOM     20  C   UNL     1      30.777  25.998  12.442  0.00  0.00    +0.242 C 
ATOM     21  O   UNL     1      31.254  26.104  11.322  0.00  0.00    -0.270 OA
ATOM     22  H   UNL     1      29.153  27.141  12.046  0.00  0.00    +0.145 HD
ATOM     23  H   UNL     1      29.299  26.734  13.721  0.00  0.00    +0.145 HD
ENDBRANCH  13  20
ENDBRANCH   1  16
TORSDOF 2
ENDMDL
