MODEL 1
REMARK VINA RESULT:      -6.4      0.000      0.000
REMARK  Name = ZINC000583127796
REMARK  2 active torsions:
REMARK  status: ('A' for Active; 'I' for Inactive)
REMARK    1  A    between atoms: C_2  and  C_4
REMARK    2  A    between atoms: C_7  and  C_8
REMARK                            x       y       z     vdW  Elec       q    Type
REMARK                         _______ _______ _______ _____ _____    ______ ____
ROOT
ATOM      1  C   UNL     1      32.225  22.871  14.238  0.00  0.00    +0.247 C 
ATOM      2  O   UNL     1      33.142  22.123  14.573  0.00  0.00    -0.270 OA
ATOM      3  N   UNL     1      32.391  23.898  13.294  0.00  0.00    -0.297 N 
ATOM      4  C   UNL     1      31.359  24.829  12.830  0.00  0.00    +0.108 C 
ATOM      5  C   UNL     1      31.218  24.829  11.318  0.00  0.00    +0.020 C 
ATOM      6  C   UNL     1      32.559  25.010  10.633  0.00  0.00    +0.011 C 
ATOM      7  C   UNL     1      33.630  24.005  11.125  0.00  0.00    -0.004 C 
ATOM      8  C   UNL     1      34.960  24.394  10.445  0.00  0.00    +0.020 C 
ATOM      9  C   UNL     1      35.876  23.191  10.385  0.00  0.00    +0.070 C 
ATOM     10  S   UNL     1      34.782  21.827   9.959  0.00  0.00    -0.160 S 
ATOM     11  C   UNL     1      33.290  22.563  10.684  0.00  0.00    +0.077 C 
ATOM     12  C   UNL     1      33.713  24.085  12.675  0.00  0.00    +0.115 C 
ENDROOT
BRANCH   1  16
ATOM     13  C   UNL     1      28.529  21.875  16.147  0.00  0.00    +0.037 A 
ATOM     14  C   UNL     1      28.932  21.150  15.021  0.00  0.00    +0.014 A 
ATOM     15  C   UNL     1      30.076  21.535  14.317  0.00  0.00    +0.014 A 
ATOM     16  C   UNL     1      30.875  22.579  14.795  0.00  0.00    +0.037 A 
ATOM     17  C   UNL     1      30.414  23.368  15.859  0.00  0.00    +0.014 A 
ATOM     18  C   UNL     1      29.235  23.022  16.526  0.00  0.00    +0.014 A 
BRANCH  13  20
ATOM     19  N   UNL     1      26.464  22.421  17.308  0.00  0.00    -0.325 N 
ATOM     20  C   UNL     1      27.359  21.450  16.958  0.00  0.00    +0.242 C 
ATOM     21  O   UNL     1      27.179  20.278  17.252  0.00  0.00    -0.270 OA
ATOM     22  H   UNL     1      25.610  22.097  17.747  0.00  0.00    +0.145 HD
ATOM     23  H   UNL     1      26.439  23.322  16.851  0.00  0.00    +0.145 HD
ENDBRANCH  13  20
ENDBRANCH   1  16
TORSDOF 2
ENDMDL
MODEL 2
REMARK VINA RESULT:      -6.3      4.658      5.586
REMARK  Name = ZINC000583127796
REMARK  2 active torsions:
REMARK  status: ('A' for Active; 'I' for Inactive)
REMARK    1  A    between atoms: C_2  and  C_4
REMARK    2  A    between atoms: C_7  and  C_8
REMARK                            x       y       z     vdW  Elec       q    Type
REMARK                         _______ _______ _______ _____ _____    ______ ____
ROOT
ATOM      1  C   UNL     1      31.236  16.945  13.855  0.00  0.00    +0.247 C 
ATOM      2  O   UNL     1      30.914  16.300  12.858  0.00  0.00    -0.270 OA
ATOM      3  N   UNL     1      32.575  17.128  14.240  0.00  0.00    -0.297 N 
ATOM      4  C   UNL     1      33.051  17.883  15.402  0.00  0.00    +0.108 C 
ATOM      5  C   UNL     1      34.062  18.951  15.024  0.00  0.00    +0.020 C 
ATOM      6  C   UNL     1      35.176  18.385  14.163  0.00  0.00    +0.011 C 
ATOM      7  C   UNL     1      34.651  17.607  12.931  0.00  0.00    -0.004 C 
ATOM      8  C   UNL     1      35.879  16.984  12.234  0.00  0.00    +0.020 C 
ATOM      9  C   UNL     1      35.566  16.727  10.775  0.00  0.00    +0.070 C 
ATOM     10  S   UNL     1      34.631  18.179  10.266  0.00  0.00    -0.160 S 
ATOM     11  C   UNL     1      33.974  18.556  11.915  0.00  0.00    +0.077 C 
ATOM     12  C   UNL     1      33.638  16.532  13.415  0.00  0.00    +0.115 C 
ENDROOT
BRANCH   1  16
ATOM     13  C   UNL     1      28.378  19.081  16.215  0.00  0.00    +0.037 A 
ATOM     14  C   UNL     1      28.497  17.696  16.375  0.00  0.00    +0.014 A 
ATOM     15  C   UNL     1      29.341  16.968  15.533  0.00  0.00    +0.014 A 
ATOM     16  C   UNL     1      30.144  17.631  14.600  0.00  0.00    +0.037 A 
ATOM     17  C   UNL     1      29.946  19.000  14.371  0.00  0.00    +0.014 A 
ATOM     18  C   UNL     1      29.055  19.721  15.171  0.00  0.00    +0.014 A 
BRANCH  13  20
ATOM     19  N   UNL     1      26.595  19.229  17.861  0.00  0.00    -0.325 N 
ATOM     20  C   UNL     1      27.545  19.894  17.138  0.00  0.00    +0.242 C 
ATOM     21  O   UNL     1      27.737  21.092  17.282  0.00  0.00    -0.270 OA
ATOM     22  H   UNL     1      26.126  19.772  18.577  0.00  0.00    +0.145 HD
ATOM     23  H   UNL     1      26.606  18.225  17.971  0.00  0.00    +0.145 HD
ENDBRANCH  13  20
ENDBRANCH   1  16
TORSDOF 2
ENDMDL
MODEL 3
REMARK VINA RESULT:      -6.2      3.546      5.379
REMARK  Name = ZINC000583127796
REMARK  2 active torsions:
REMARK  status: ('A' for Active; 'I' for Inactive)
REMARK    1  A    between atoms: C_2  and  C_4
REMARK    2  A    between atoms: C_7  and  C_8
REMARK                            x       y       z     vdW  Elec       q    Type
REMARK                         _______ _______ _______ _____ _____    ______ ____
ROOT
ATOM      1  C   UNL     1      33.156  25.328   9.072  0.00  0.00    +0.247 C 
ATOM      2  O   UNL     1      33.591  26.473   8.967  0.00  0.00    -0.270 OA
ATOM      3  N   UNL     1      33.291  24.369   8.054  0.00  0.00    -0.297 N 
ATOM      4  C   UNL     1      32.812  22.985   8.093  0.00  0.00    +0.108 C 
ATOM      5  C   UNL     1      33.916  21.983   7.805  0.00  0.00    +0.020 C 
ATOM      6  C   UNL     1      34.671  22.334   6.536  0.00  0.00    +0.011 C 
ATOM      7  C   UNL     1      35.183  23.796   6.524  0.00  0.00    -0.004 C 
ATOM      8  C   UNL     1      35.806  24.044   5.133  0.00  0.00    +0.020 C 
ATOM      9  C   UNL     1      36.813  25.170   5.215  0.00  0.00    +0.070 C 
ATOM     10  S   UNL     1      37.675  24.874   6.768  0.00  0.00    -0.160 S 
ATOM     11  C   UNL     1      36.298  24.009   7.573  0.00  0.00    +0.077 C 
ATOM     12  C   UNL     1      33.987  24.745   6.813  0.00  0.00    +0.115 C 
ENDROOT
BRANCH   1  16
ATOM     13  C   UNL     1      31.339  23.897  12.670  0.00  0.00    +0.037 A 
ATOM     14  C   UNL     1      30.722  24.931  11.959  0.00  0.00    +0.014 A 
ATOM     15  C   UNL     1      31.359  25.488  10.847  0.00  0.00    +0.014 A 
ATOM     16  C   UNL     1      32.562  24.947  10.384  0.00  0.00    +0.037 A 
ATOM     17  C   UNL     1      33.227  23.984  11.156  0.00  0.00    +0.014 A 
ATOM     18  C   UNL     1      32.620  23.469  12.305  0.00  0.00    +0.014 A 
BRANCH  13  20
ATOM     19  N   UNL     1      30.915  23.734  15.059  0.00  0.00    -0.325 N 
ATOM     20  C   UNL     1      30.658  23.235  13.813  0.00  0.00    +0.242 C 
ATOM     21  O   UNL     1      29.864  22.323  13.640  0.00  0.00    -0.270 OA
ATOM     22  H   UNL     1      30.347  23.359  15.810  0.00  0.00    +0.145 HD
ATOM     23  H   UNL     1      31.332  24.643  15.200  0.00  0.00    +0.145 HD
ENDBRANCH  13  20
ENDBRANCH   1  16
TORSDOF 2
ENDMDL
MODEL 4
REMARK VINA RESULT:      -6.0      5.565      6.548
REMARK  Name = ZINC000583127796
REMARK  2 active torsions:
REMARK  status: ('A' for Active; 'I' for Inactive)
REMARK    1  A    between atoms: C_2  and  C_4
REMARK    2  A    between atoms: C_7  and  C_8
REMARK                            x       y       z     vdW  Elec       q    Type
REMARK                         _______ _______ _______ _____ _____    ______ ____
ROOT
ATOM      1  C   UNL     1      32.100  16.599  13.292  0.00  0.00    +0.247 C 
ATOM      2  O   UNL     1      31.736  15.862  12.378  0.00  0.00    -0.270 OA
ATOM      3  N   UNL     1      33.359  16.482  13.905  0.00  0.00    -0.297 N 
ATOM      4  C   UNL     1      33.879  17.316  14.991  0.00  0.00    +0.108 C 
ATOM      5  C   UNL     1      35.219  17.943  14.648  0.00  0.00    +0.020 C 
ATOM      6  C   UNL     1      36.207  16.907  14.145  0.00  0.00    +0.011 C 
ATOM      7  C   UNL     1      35.643  16.049  12.986  0.00  0.00    -0.004 C 
ATOM      8  C   UNL     1      36.698  14.965  12.673  0.00  0.00    +0.020 C 
ATOM      9  C   UNL     1      36.530  14.482  11.249  0.00  0.00    +0.070 C 
ATOM     10  S   UNL     1      36.185  15.981  10.315  0.00  0.00    -0.160 S 
ATOM     11  C   UNL     1      35.454  16.892  11.704  0.00  0.00    +0.077 C 
ATOM     12  C   UNL     1      34.285  15.440  13.431  0.00  0.00    +0.115 C 
ENDROOT
BRANCH   1  16
ATOM     13  C   UNL     1      29.777  19.955  14.572  0.00  0.00    +0.037 A 
ATOM     14  C   UNL     1      29.513  18.694  15.118  0.00  0.00    +0.014 A 
ATOM     15  C   UNL     1      30.182  17.569  14.628  0.00  0.00    +0.014 A 
ATOM     16  C   UNL     1      31.188  17.715  13.667  0.00  0.00    +0.037 A 
ATOM     17  C   UNL     1      31.376  18.959  13.050  0.00  0.00    +0.014 A 
ATOM     18  C   UNL     1      30.662  20.076  13.495  0.00  0.00    +0.014 A 
BRANCH  13  20
ATOM     19  N   UNL     1      29.486  22.369  14.543  0.00  0.00    -0.325 N 
ATOM     20  C   UNL     1      29.136  21.179  15.117  0.00  0.00    +0.242 C 
ATOM     21  O   UNL     1      28.296  21.119  16.002  0.00  0.00    -0.270 OA
ATOM     22  H   UNL     1      28.948  23.175  14.836  0.00  0.00    +0.145 HD
ATOM     23  H   UNL     1      29.950  22.418  13.646  0.00  0.00    +0.145 HD
ENDBRANCH  13  20
ENDBRANCH   1  16
TORSDOF 2
ENDMDL
MODEL 5
REMARK VINA RESULT:      -6.0      4.624      5.759
REMARK  Name = ZINC000583127796
REMARK  2 active torsions:
REMARK  status: ('A' for Active; 'I' for Inactive)
REMARK    1  A    between atoms: C_2  and  C_4
REMARK    2  A    between atoms: C_7  and  C_8
REMARK                            x       y       z     vdW  Elec       q    Type
REMARK                         _______ _______ _______ _____ _____    ______ ____
ROOT
ATOM      1  C   UNL     1      31.707  18.881  12.883  0.00  0.00    +0.247 C 
ATOM      2  O   UNL     1      31.804  18.995  11.662  0.00  0.00    -0.270 OA
ATOM      3  N   UNL     1      32.240  17.788  13.586  0.00  0.00    -0.297 N 
ATOM      4  C   UNL     1      32.180  17.571  15.034  0.00  0.00    +0.108 C 
ATOM      5  C   UNL     1      33.553  17.349  15.643  0.00  0.00    +0.020 C 
ATOM      6  C   UNL     1      34.327  16.279  14.896  0.00  0.00    +0.011 C 
ATOM      7  C   UNL     1      34.394  16.537  13.370  0.00  0.00    -0.004 C 
ATOM      8  C   UNL     1      35.089  15.313  12.736  0.00  0.00    +0.020 C 
ATOM      9  C   UNL     1      35.710  15.704  11.413  0.00  0.00    +0.070 C 
ATOM     10  S   UNL     1      36.417  17.330  11.724  0.00  0.00    -0.160 S 
ATOM     11  C   UNL     1      35.259  17.777  13.047  0.00  0.00    +0.077 C 
ATOM     12  C   UNL     1      32.949  16.738  12.836  0.00  0.00    +0.115 C 
ENDROOT
BRANCH   1  16
ATOM     13  C   UNL     1      30.075  21.982  15.336  0.00  0.00    +0.037 A 
ATOM     14  C   UNL     1      29.216  21.030  14.778  0.00  0.00    +0.014 A 
ATOM     15  C   UNL     1      29.715  20.081  13.882  0.00  0.00    +0.014 A 
ATOM     16  C   UNL     1      31.088  20.015  13.623  0.00  0.00    +0.037 A 
ATOM     17  C   UNL     1      31.928  21.032  14.100  0.00  0.00    +0.014 A 
ATOM     18  C   UNL     1      31.419  22.021  14.946  0.00  0.00    +0.014 A 
BRANCH  13  20
ATOM     19  N   UNL     1      28.241  23.022  16.546  0.00  0.00    -0.325 N 
ATOM     20  C   UNL     1      29.591  22.959  16.344  0.00  0.00    +0.242 C 
ATOM     21  O   UNL     1      30.368  23.637  17.000  0.00  0.00    -0.270 OA
ATOM     22  H   UNL     1      27.937  23.597  17.324  0.00  0.00    +0.145 HD
ATOM     23  H   UNL     1      27.614  22.294  16.232  0.00  0.00    +0.145 HD
ENDBRANCH  13  20
ENDBRANCH   1  16
TORSDOF 2
ENDMDL
MODEL 6
REMARK VINA RESULT:      -6.0      2.919      3.636
REMARK  Name = ZINC000583127796
REMARK  2 active torsions:
REMARK  status: ('A' for Active; 'I' for Inactive)
REMARK    1  A    between atoms: C_2  and  C_4
REMARK    2  A    between atoms: C_7  and  C_8
REMARK                            x       y       z     vdW  Elec       q    Type
REMARK                         _______ _______ _______ _____ _____    ______ ____
ROOT
ATOM      1  C   UNL     1      32.595  20.220  12.698  0.00  0.00    +0.247 C 
ATOM      2  O   UNL     1      32.572  19.848  11.527  0.00  0.00    -0.270 OA
ATOM      3  N   UNL     1      33.368  21.309  13.133  0.00  0.00    -0.297 N 
ATOM      4  C   UNL     1      33.452  21.827  14.502  0.00  0.00    +0.108 C 
ATOM      5  C   UNL     1      33.134  23.309  14.581  0.00  0.00    +0.020 C 
ATOM      6  C   UNL     1      33.942  24.107  13.574  0.00  0.00    +0.011 C 
ATOM      7  C   UNL     1      33.824  23.555  12.132  0.00  0.00    -0.004 C 
ATOM      8  C   UNL     1      34.793  24.376  11.254  0.00  0.00    +0.020 C 
ATOM      9  C   UNL     1      34.342  24.329   9.810  0.00  0.00    +0.070 C 
ATOM     10  S   UNL     1      32.551  24.478   9.906  0.00  0.00    -0.160 S 
ATOM     11  C   UNL     1      32.400  23.761  11.566  0.00  0.00    +0.077 C 
ATOM     12  C   UNL     1      34.180  22.042  12.147  0.00  0.00    +0.115 C 
ENDROOT
BRANCH   1  16
ATOM     13  C   UNL     1      29.864  17.999  15.128  0.00  0.00    +0.037 A 
ATOM     14  C   UNL     1      29.505  19.280  14.695  0.00  0.00    +0.014 A 
ATOM     15  C   UNL     1      30.430  20.063  13.999  0.00  0.00    +0.014 A 
ATOM     16  C   UNL     1      31.674  19.533  13.646  0.00  0.00    +0.037 A 
ATOM     17  C   UNL     1      32.068  18.293  14.169  0.00  0.00    +0.014 A 
ATOM     18  C   UNL     1      31.167  17.533  14.920  0.00  0.00    +0.014 A 
BRANCH  13  20
ATOM     19  N   UNL     1      28.203  17.641  16.868  0.00  0.00    -0.325 N 
ATOM     20  C   UNL     1      28.883  17.113  15.807  0.00  0.00    +0.242 C 
ATOM     21  O   UNL     1      28.657  15.983  15.402  0.00  0.00    -0.270 OA
ATOM     22  H   UNL     1      27.450  17.073  17.237  0.00  0.00    +0.145 HD
ATOM     23  H   UNL     1      28.164  18.636  17.042  0.00  0.00    +0.145 HD
ENDBRANCH  13  20
ENDBRANCH   1  16
TORSDOF 2
ENDMDL
MODEL 7
REMARK VINA RESULT:      -5.9      3.445      4.454
REMARK  Name = ZINC000583127796
REMARK  2 active torsions:
REMARK  status: ('A' for Active; 'I' for Inactive)
REMARK    1  A    between atoms: C_2  and  C_4
REMARK    2  A    between atoms: C_7  and  C_8
REMARK                            x       y       z     vdW  Elec       q    Type
REMARK                         _______ _______ _______ _____ _____    ______ ____
ROOT
ATOM      1  C   UNL     1      30.764  21.288  13.922  0.00  0.00    +0.247 C 
ATOM      2  O   UNL     1      31.402  22.109  13.266  0.00  0.00    -0.270 OA
ATOM      3  N   UNL     1      30.751  19.918  13.616  0.00  0.00    -0.297 N 
ATOM      4  C   UNL     1      30.029  18.869  14.342  0.00  0.00    +0.108 C 
ATOM      5  C   UNL     1      30.941  17.739  14.784  0.00  0.00    +0.020 C 
ATOM      6  C   UNL     1      31.780  17.218  13.632  0.00  0.00    +0.011 C 
ATOM      7  C   UNL     1      32.548  18.339  12.889  0.00  0.00    -0.004 C 
ATOM      8  C   UNL     1      33.243  17.683  11.677  0.00  0.00    +0.020 C 
ATOM      9  C   UNL     1      34.435  18.515  11.256  0.00  0.00    +0.070 C 
ATOM     10  S   UNL     1      35.187  19.022  12.811  0.00  0.00    -0.160 S 
ATOM     11  C   UNL     1      33.655  18.947  13.782  0.00  0.00    +0.077 C 
ATOM     12  C   UNL     1      31.536  19.440  12.466  0.00  0.00    +0.115 C 
ENDROOT
BRANCH   1  16
ATOM     13  C   UNL     1      29.003  22.465  17.639  0.00  0.00    +0.037 A 
ATOM     14  C   UNL     1      28.246  21.717  16.732  0.00  0.00    +0.014 A 
ATOM     15  C   UNL     1      28.764  21.424  15.468  0.00  0.00    +0.014 A 
ATOM     16  C   UNL     1      30.075  21.787  15.146  0.00  0.00    +0.037 A 
ATOM     17  C   UNL     1      30.791  22.624  16.013  0.00  0.00    +0.014 A 
ATOM     18  C   UNL     1      30.250  22.972  17.254  0.00  0.00    +0.014 A 
BRANCH  13  20
ATOM     19  N   UNL     1      28.032  23.989  19.266  0.00  0.00    -0.325 N 
ATOM     20  C   UNL     1      28.512  22.734  19.015  0.00  0.00    +0.242 C 
ATOM     21  O   UNL     1      28.489  21.858  19.866  0.00  0.00    -0.270 OA
ATOM     22  H   UNL     1      27.584  24.118  20.166  0.00  0.00    +0.145 HD
ATOM     23  H   UNL     1      27.783  24.629  18.525  0.00  0.00    +0.145 HD
ENDBRANCH  13  20
ENDBRANCH   1  16
TORSDOF 2
ENDMDL
MODEL 8
REMARK VINA RESULT:      -5.9      3.396      4.010
REMARK  Name = ZINC000583127796
REMARK  2 active torsions:
REMARK  status: ('A' for Active; 'I' for Inactive)
REMARK    1  A    between atoms: C_2  and  C_4
REMARK    2  A    between atoms: C_7  and  C_8
REMARK                            x       y       z     vdW  Elec       q    Type
REMARK                         _______ _______ _______ _____ _____    ______ ____
ROOT
ATOM      1  C   UNL     1      33.751  21.799  12.043  0.00  0.00    +0.247 C 
ATOM      2  O   UNL     1      34.773  21.635  11.380  0.00  0.00    -0.270 OA
ATOM      3  N   UNL     1      33.141  23.055  12.199  0.00  0.00    -0.297 N 
ATOM      4  C   UNL     1      31.924  23.343  12.961  0.00  0.00    +0.108 C 
ATOM      5  C   UNL     1      30.874  24.055  12.127  0.00  0.00    +0.020 C 
ATOM      6  C   UNL     1      31.452  25.265  11.417  0.00  0.00    +0.011 C 
ATOM      7  C   UNL     1      32.728  24.934  10.603  0.00  0.00    -0.004 C 
ATOM      8  C   UNL     1      33.271  26.271  10.053  0.00  0.00    +0.020 C 
ATOM      9  C   UNL     1      34.114  26.015   8.823  0.00  0.00    +0.070 C 
ATOM     10  S   UNL     1      33.206  24.746   7.926  0.00  0.00    -0.160 S 
ATOM     11  C   UNL     1      32.402  24.034   9.389  0.00  0.00    +0.077 C 
ATOM     12  C   UNL     1      33.745  24.224  11.538  0.00  0.00    +0.115 C 
ENDROOT
BRANCH   1  16
ATOM     13  C   UNL     1      31.546  18.443  13.518  0.00  0.00    +0.037 A 
ATOM     14  C   UNL     1      32.075  19.365  14.427  0.00  0.00    +0.014 A 
ATOM     15  C   UNL     1      32.894  20.401  13.971  0.00  0.00    +0.014 A 
ATOM     16  C   UNL     1      33.102  20.579  12.600  0.00  0.00    +0.037 A 
ATOM     17  C   UNL     1      32.658  19.597  11.703  0.00  0.00    +0.014 A 
ATOM     18  C   UNL     1      31.891  18.524  12.164  0.00  0.00    +0.014 A 
BRANCH  13  20
ATOM     19  N   UNL     1      29.888  17.614  15.092  0.00  0.00    -0.325 N 
ATOM     20  C   UNL     1      30.615  17.373  13.960  0.00  0.00    +0.242 C 
ATOM     21  O   UNL     1      30.468  16.348  13.312  0.00  0.00    -0.270 OA
ATOM     22  H   UNL     1      29.168  16.934  15.307  0.00  0.00    +0.145 HD
ATOM     23  H   UNL     1      29.783  18.542  15.477  0.00  0.00    +0.145 HD
ENDBRANCH  13  20
ENDBRANCH   1  16
TORSDOF 2
ENDMDL
MODEL 9
REMARK VINA RESULT:      -5.8      3.730      7.846
REMARK  Name = ZINC000583127796
REMARK  2 active torsions:
REMARK  status: ('A' for Active; 'I' for Inactive)
REMARK    1  A    between atoms: C_2  and  C_4
REMARK    2  A    between atoms: C_7  and  C_8
REMARK                            x       y       z     vdW  Elec       q    Type
REMARK                         _______ _______ _______ _____ _____    ______ ____
ROOT
ATOM      1  C   UNL     1      32.175  24.574  11.154  0.00  0.00    +0.247 C 
ATOM      2  O   UNL     1      31.032  25.008  11.283  0.00  0.00    -0.270 OA
ATOM      3  N   UNL     1      32.940  24.119  12.241  0.00  0.00    -0.297 N 
ATOM      4  C   UNL     1      34.302  23.581  12.182  0.00  0.00    +0.108 C 
ATOM      5  C   UNL     1      34.409  22.209  12.823  0.00  0.00    +0.020 C 
ATOM      6  C   UNL     1      33.805  22.195  14.215  0.00  0.00    +0.011 C 
ATOM      7  C   UNL     1      32.360  22.751  14.251  0.00  0.00    -0.004 C 
ATOM      8  C   UNL     1      31.933  22.798  15.734  0.00  0.00    +0.020 C 
ATOM      9  C   UNL     1      30.423  22.756  15.834  0.00  0.00    +0.070 C 
ATOM     10  S   UNL     1      29.935  21.552  14.587  0.00  0.00    -0.160 S 
ATOM     11  C   UNL     1      31.378  21.810  13.517  0.00  0.00    +0.077 C 
ATOM     12  C   UNL     1      32.351  24.157  13.589  0.00  0.00    +0.115 C 
ENDROOT
BRANCH   1  16
ATOM     13  C   UNL     1      33.966  23.980   7.315  0.00  0.00    +0.037 A 
ATOM     14  C   UNL     1      34.031  25.245   7.910  0.00  0.00    +0.014 A 
ATOM     15  C   UNL     1      33.353  25.486   9.108  0.00  0.00    +0.014 A 
ATOM     16  C   UNL     1      32.696  24.441   9.765  0.00  0.00    +0.037 A 
ATOM     17  C   UNL     1      32.545  23.206   9.117  0.00  0.00    +0.014 A 
ATOM     18  C   UNL     1      33.170  22.981   7.887  0.00  0.00    +0.014 A 
BRANCH  13  20
ATOM     19  N   UNL     1      34.990  24.712   5.235  0.00  0.00    -0.325 N 
ATOM     20  C   UNL     1      34.732  23.670   6.080  0.00  0.00    +0.242 C 
ATOM     21  O   UNL     1      35.156  22.546   5.859  0.00  0.00    -0.270 OA
ATOM     22  H   UNL     1      35.620  24.511   4.467  0.00  0.00    +0.145 HD
ATOM     23  H   UNL     1      34.900  25.676   5.524  0.00  0.00    +0.145 HD
ENDBRANCH  13  20
ENDBRANCH   1  16
TORSDOF 2
ENDMDL
