MODEL 1
REMARK VINA RESULT:      -6.8      0.000      0.000
REMARK  Name = ZINC001228612316
REMARK  5 active torsions:
REMARK  status: ('A' for Active; 'I' for Inactive)
REMARK    1  A    between atoms: C_2  and  C_4
REMARK    2  A    between atoms: C_8  and  O_9
REMARK    3  A    between atoms: O_9  and  C_10
REMARK    4  A    between atoms: C_10  and  C_11
REMARK    5  A    between atoms: C_10  and  C_17
REMARK                            x       y       z     vdW  Elec       q    Type
REMARK                         _______ _______ _______ _____ _____    ______ ____
ROOT
ATOM      1  C   UNL     1      31.940  24.275  10.927  0.00  0.00    +0.040 A 
ATOM      2  C   UNL     1      31.739  25.574  11.409  0.00  0.00    +0.013 A 
ATOM      3  C   UNL     1      30.900  25.793  12.501  0.00  0.00    +0.004 A 
ATOM      4  C   UNL     1      30.256  24.718  13.121  0.00  0.00    +0.046 A 
ATOM      5  C   UNL     1      30.445  23.420  12.647  0.00  0.00    +0.122 A 
ATOM      6  C   UNL     1      31.290  23.203  11.551  0.00  0.00    +0.058 A 
ENDROOT
BRANCH   1   8
ATOM      7  N   UNL     1      33.717  25.117   9.478  0.00  0.00    -0.325 N 
ATOM      8  C   UNL     1      32.858  24.092   9.771  0.00  0.00    +0.242 C 
ATOM      9  O   UNL     1      32.879  23.052   9.124  0.00  0.00    -0.270 OA
ATOM     10  H   UNL     1      34.403  24.929   8.757  0.00  0.00    +0.145 HD
ATOM     11  H   UNL     1      33.901  25.875  10.115  0.00  0.00    +0.145 HD
ENDBRANCH   1   8
BRANCH   5  12
ATOM     12  O   UNL     1      29.817  22.300  13.121  0.00  0.00    -0.484 OA
BRANCH  12  13
ATOM     13  C   UNL     1      30.323  21.672  14.310  0.00  0.00    +0.208 C 
BRANCH  13  14
ATOM     14  C   UNL     1      29.738  22.244  15.586  0.00  0.00    +0.011 A 
ATOM     15  C   UNL     1      28.408  22.056  15.972  0.00  0.00    +0.010 A 
ATOM     16  C   UNL     1      27.972  22.540  17.204  0.00  0.00    +0.020 A 
ATOM     17  C   UNL     1      28.884  23.197  18.015  0.00  0.00    +0.111 A 
ATOM     18  N   UNL     1      30.172  23.408  17.675  0.00  0.00    -0.263 NA
ATOM     19  C   UNL     1      30.567  22.927  16.477  0.00  0.00    +0.118 A 
ENDBRANCH  13  14
BRANCH  13  20
ATOM     20  C   UNL     1      29.981  20.186  14.281  0.00  0.00    +0.034 C 
ATOM     21  C   UNL     1      30.941  19.166  14.844  0.00  0.00    +0.008 C 
ATOM     22  C   UNL     1      30.668  19.197  13.365  0.00  0.00    +0.008 C 
ENDBRANCH  13  20
ENDBRANCH  12  13
ENDBRANCH   5  12
TORSDOF 5
ENDMDL
MODEL 2
REMARK VINA RESULT:      -6.8      0.605      1.087
REMARK  Name = ZINC001228612316
REMARK  5 active torsions:
REMARK  status: ('A' for Active; 'I' for Inactive)
REMARK    1  A    between atoms: C_2  and  C_4
REMARK    2  A    between atoms: C_8  and  O_9
REMARK    3  A    between atoms: O_9  and  C_10
REMARK    4  A    between atoms: C_10  and  C_11
REMARK    5  A    between atoms: C_10  and  C_17
REMARK                            x       y       z     vdW  Elec       q    Type
REMARK                         _______ _______ _______ _____ _____    ______ ____
ROOT
ATOM      1  C   UNL     1      31.946  24.190  10.986  0.00  0.00    +0.040 A 
ATOM      2  C   UNL     1      31.747  25.503  11.428  0.00  0.00    +0.013 A 
ATOM      3  C   UNL     1      30.891  25.757  12.500  0.00  0.00    +0.004 A 
ATOM      4  C   UNL     1      30.230  24.704  13.138  0.00  0.00    +0.046 A 
ATOM      5  C   UNL     1      30.417  23.392  12.703  0.00  0.00    +0.122 A 
ATOM      6  C   UNL     1      31.279  23.140  11.628  0.00  0.00    +0.058 A 
ENDROOT
BRANCH   1   8
ATOM      7  N   UNL     1      33.665  25.023   9.463  0.00  0.00    -0.325 N 
ATOM      8  C   UNL     1      32.882  23.970   9.850  0.00  0.00    +0.242 C 
ATOM      9  O   UNL     1      32.983  22.879   9.301  0.00  0.00    -0.270 OA
ATOM     10  H   UNL     1      34.367  24.822   8.762  0.00  0.00    +0.145 HD
ATOM     11  H   UNL     1      33.789  25.849  10.028  0.00  0.00    +0.145 HD
ENDBRANCH   1   8
BRANCH   5  12
ATOM     12  O   UNL     1      29.774  22.289  13.197  0.00  0.00    -0.484 OA
BRANCH  12  13
ATOM     13  C   UNL     1      30.371  21.570  14.288  0.00  0.00    +0.208 C 
BRANCH  13  14
ATOM     14  C   UNL     1      29.993  22.124  15.649  0.00  0.00    +0.011 A 
ATOM     15  C   UNL     1      30.909  22.732  16.511  0.00  0.00    +0.010 A 
ATOM     16  C   UNL     1      30.464  23.294  17.705  0.00  0.00    +0.020 A 
ATOM     17  C   UNL     1      29.111  23.232  18.000  0.00  0.00    +0.111 A 
ATOM     18  N   UNL     1      28.197  22.646  17.200  0.00  0.00    -0.263 NA
ATOM     19  C   UNL     1      28.657  22.111  16.048  0.00  0.00    +0.118 A 
ENDBRANCH  13  14
BRANCH  13  20
ATOM     20  C   UNL     1      29.909  20.117  14.247  0.00  0.00    +0.034 C 
ATOM     21  C   UNL     1      30.777  19.020  14.816  0.00  0.00    +0.008 C 
ATOM     22  C   UNL     1      30.526  19.080  13.334  0.00  0.00    +0.008 C 
ENDBRANCH  13  20
ENDBRANCH  12  13
ENDBRANCH   5  12
TORSDOF 5
ENDMDL
MODEL 3
REMARK VINA RESULT:      -6.5      4.563      7.199
REMARK  Name = ZINC001228612316
REMARK  5 active torsions:
REMARK  status: ('A' for Active; 'I' for Inactive)
REMARK    1  A    between atoms: C_2  and  C_4
REMARK    2  A    between atoms: C_8  and  O_9
REMARK    3  A    between atoms: O_9  and  C_10
REMARK    4  A    between atoms: C_10  and  C_11
REMARK    5  A    between atoms: C_10  and  C_17
REMARK                            x       y       z     vdW  Elec       q    Type
REMARK                         _______ _______ _______ _____ _____    ______ ____
ROOT
ATOM      1  C   UNL     1      27.948  22.253  16.894  0.00  0.00    +0.040 A 
ATOM      2  C   UNL     1      28.212  21.728  15.624  0.00  0.00    +0.013 A 
ATOM      3  C   UNL     1      29.504  21.783  15.101  0.00  0.00    +0.004 A 
ATOM      4  C   UNL     1      30.540  22.359  15.840  0.00  0.00    +0.046 A 
ATOM      5  C   UNL     1      30.288  22.890  17.106  0.00  0.00    +0.122 A 
ATOM      6  C   UNL     1      28.989  22.832  17.630  0.00  0.00    +0.058 A 
ENDROOT
BRANCH   1   8
ATOM      7  N   UNL     1      26.341  22.538  18.712  0.00  0.00    -0.325 N 
ATOM      8  C   UNL     1      26.558  22.155  17.416  0.00  0.00    +0.242 C 
ATOM      9  O   UNL     1      25.629  21.784  16.709  0.00  0.00    -0.270 OA
ATOM     10  H   UNL     1      25.374  22.565  19.012  0.00  0.00    +0.145 HD
ATOM     11  H   UNL     1      27.013  23.068  19.245  0.00  0.00    +0.145 HD
ENDBRANCH   1   8
BRANCH   5  12
ATOM     12  O   UNL     1      31.198  23.542  17.892  0.00  0.00    -0.484 OA
BRANCH  12  13
ATOM     13  C   UNL     1      31.692  22.885  19.071  0.00  0.00    +0.208 C 
BRANCH  13  14
ATOM     14  C   UNL     1      33.185  22.622  19.030  0.00  0.00    +0.011 A 
ATOM     15  C   UNL     1      34.128  23.461  19.629  0.00  0.00    +0.010 A 
ATOM     16  C   UNL     1      35.474  23.101  19.622  0.00  0.00    +0.020 A 
ATOM     17  C   UNL     1      35.835  21.908  19.016  0.00  0.00    +0.111 A 
ATOM     18  N   UNL     1      34.958  21.076  18.419  0.00  0.00    -0.263 NA
ATOM     19  C   UNL     1      33.660  21.449  18.442  0.00  0.00    +0.118 A 
ENDBRANCH  13  14
BRANCH  13  20
ATOM     20  C   UNL     1      31.419  23.761  20.289  0.00  0.00    +0.034 C 
ATOM     21  C   UNL     1      31.336  23.153  21.668  0.00  0.00    +0.008 C 
ATOM     22  C   UNL     1      30.106  23.748  21.039  0.00  0.00    +0.008 C 
ENDBRANCH  13  20
ENDBRANCH  12  13
ENDBRANCH   5  12
TORSDOF 5
ENDMDL
MODEL 4
REMARK VINA RESULT:      -6.5      2.884      6.825
REMARK  Name = ZINC001228612316
REMARK  5 active torsions:
REMARK  status: ('A' for Active; 'I' for Inactive)
REMARK    1  A    between atoms: C_2  and  C_4
REMARK    2  A    between atoms: C_8  and  O_9
REMARK    3  A    between atoms: O_9  and  C_10
REMARK    4  A    between atoms: C_10  and  C_11
REMARK    5  A    between atoms: C_10  and  C_17
REMARK                            x       y       z     vdW  Elec       q    Type
REMARK                         _______ _______ _______ _____ _____    ______ ____
ROOT
ATOM      1  C   UNL     1      30.184  23.352  19.131  0.00  0.00    +0.040 A 
ATOM      2  C   UNL     1      31.499  22.973  19.422  0.00  0.00    +0.013 A 
ATOM      3  C   UNL     1      32.353  22.567  18.397  0.00  0.00    +0.004 A 
ATOM      4  C   UNL     1      31.901  22.536  17.075  0.00  0.00    +0.046 A 
ATOM      5  C   UNL     1      30.591  22.906  16.773  0.00  0.00    +0.122 A 
ATOM      6  C   UNL     1      29.736  23.317  17.805  0.00  0.00    +0.058 A 
ENDROOT
BRANCH   1   8
ATOM      7  N   UNL     1      28.005  24.064  19.976  0.00  0.00    -0.325 N 
ATOM      8  C   UNL     1      29.318  23.794  20.257  0.00  0.00    +0.242 C 
ATOM      9  O   UNL     1      29.743  23.881  21.402  0.00  0.00    -0.270 OA
ATOM     10  H   UNL     1      27.411  24.260  20.772  0.00  0.00    +0.145 HD
ATOM     11  H   UNL     1      27.560  23.781  19.117  0.00  0.00    +0.145 HD
ENDBRANCH   1   8
BRANCH   5  12
ATOM     12  O   UNL     1      30.012  22.849  15.534  0.00  0.00    -0.484 OA
BRANCH  12  13
ATOM     13  C   UNL     1      30.847  22.612  14.389  0.00  0.00    +0.208 C 
BRANCH  13  14
ATOM     14  C   UNL     1      30.977  21.144  14.035  0.00  0.00    +0.011 A 
ATOM     15  C   UNL     1      29.939  20.221  14.194  0.00  0.00    +0.010 A 
ATOM     16  C   UNL     1      30.112  18.908  13.761  0.00  0.00    +0.020 A 
ATOM     17  C   UNL     1      31.319  18.558  13.179  0.00  0.00    +0.111 A 
ATOM     18  N   UNL     1      32.348  19.415  13.016  0.00  0.00    -0.263 NA
ATOM     19  C   UNL     1      32.153  20.681  13.443  0.00  0.00    +0.118 A 
ENDBRANCH  13  14
BRANCH  13  20
ATOM     20  C   UNL     1      30.252  23.320  13.176  0.00  0.00    +0.034 C 
ATOM     21  C   UNL     1      31.131  23.721  12.015  0.00  0.00    +0.008 C 
ATOM     22  C   UNL     1      30.495  24.782  12.871  0.00  0.00    +0.008 C 
ENDBRANCH  13  20
ENDBRANCH  12  13
ENDBRANCH   5  12
TORSDOF 5
ENDMDL
MODEL 5
REMARK VINA RESULT:      -6.5      3.922      6.214
REMARK  Name = ZINC001228612316
REMARK  5 active torsions:
REMARK  status: ('A' for Active; 'I' for Inactive)
REMARK    1  A    between atoms: C_2  and  C_4
REMARK    2  A    between atoms: C_8  and  O_9
REMARK    3  A    between atoms: O_9  and  C_10
REMARK    4  A    between atoms: C_10  and  C_11
REMARK    5  A    between atoms: C_10  and  C_17
REMARK                            x       y       z     vdW  Elec       q    Type
REMARK                         _______ _______ _______ _____ _____    ______ ____
ROOT
ATOM      1  C   UNL     1      29.923  21.285  15.242  0.00  0.00    +0.040 A 
ATOM      2  C   UNL     1      28.550  21.467  15.441  0.00  0.00    +0.013 A 
ATOM      3  C   UNL     1      28.097  22.336  16.435  0.00  0.00    +0.004 A 
ATOM      4  C   UNL     1      29.010  23.028  17.234  0.00  0.00    +0.046 A 
ATOM      5  C   UNL     1      30.381  22.852  17.048  0.00  0.00    +0.122 A 
ATOM      6  C   UNL     1      30.833  21.981  16.048  0.00  0.00    +0.058 A 
ENDROOT
BRANCH   1   8
ATOM      7  N   UNL     1      31.164  20.872  13.178  0.00  0.00    -0.325 N 
ATOM      8  C   UNL     1      30.355  20.362  14.158  0.00  0.00    +0.242 C 
ATOM      9  O   UNL     1      30.037  19.179  14.154  0.00  0.00    -0.270 OA
ATOM     10  H   UNL     1      31.531  20.204  12.513  0.00  0.00    +0.145 HD
ATOM     11  H   UNL     1      31.639  21.757  13.268  0.00  0.00    +0.145 HD
ENDBRANCH   1   8
BRANCH   5  12
ATOM     12  O   UNL     1      31.368  23.414  17.810  0.00  0.00    -0.484 OA
BRANCH  12  13
ATOM     13  C   UNL     1      31.801  22.731  18.998  0.00  0.00    +0.208 C 
BRANCH  13  14
ATOM     14  C   UNL     1      33.297  22.488  19.038  0.00  0.00    +0.011 A 
ATOM     15  C   UNL     1      34.189  23.306  19.737  0.00  0.00    +0.010 A 
ATOM     16  C   UNL     1      35.538  22.962  19.796  0.00  0.00    +0.020 A 
ATOM     17  C   UNL     1      35.953  21.806  19.156  0.00  0.00    +0.111 A 
ATOM     18  N   UNL     1      35.127  20.995  18.464  0.00  0.00    -0.263 NA
ATOM     19  C   UNL     1      33.825  21.352  18.424  0.00  0.00    +0.118 A 
ENDBRANCH  13  14
BRANCH  13  20
ATOM     20  C   UNL     1      31.445  23.570  20.221  0.00  0.00    +0.034 C 
ATOM     21  C   UNL     1      31.150  22.909  21.545  0.00  0.00    +0.008 C 
ATOM     22  C   UNL     1      30.052  23.626  20.808  0.00  0.00    +0.008 C 
ENDBRANCH  13  20
ENDBRANCH  12  13
ENDBRANCH   5  12
TORSDOF 5
ENDMDL
MODEL 6
REMARK VINA RESULT:      -6.3      3.095      6.354
REMARK  Name = ZINC001228612316
REMARK  5 active torsions:
REMARK  status: ('A' for Active; 'I' for Inactive)
REMARK    1  A    between atoms: C_2  and  C_4
REMARK    2  A    between atoms: C_8  and  O_9
REMARK    3  A    between atoms: O_9  and  C_10
REMARK    4  A    between atoms: C_10  and  C_11
REMARK    5  A    between atoms: C_10  and  C_17
REMARK                            x       y       z     vdW  Elec       q    Type
REMARK                         _______ _______ _______ _____ _____    ______ ____
ROOT
ATOM      1  C   UNL     1      29.607  23.675  18.549  0.00  0.00    +0.040 A 
ATOM      2  C   UNL     1      28.446  23.539  19.319  0.00  0.00    +0.013 A 
ATOM      3  C   UNL     1      27.348  22.845  18.811  0.00  0.00    +0.004 A 
ATOM      4  C   UNL     1      27.399  22.283  17.533  0.00  0.00    +0.046 A 
ATOM      5  C   UNL     1      28.549  22.416  16.754  0.00  0.00    +0.122 A 
ATOM      6  C   UNL     1      29.652  23.111  17.268  0.00  0.00    +0.058 A 
ENDROOT
BRANCH   1   8
ATOM      7  N   UNL     1      31.427  25.290  18.338  0.00  0.00    -0.325 N 
ATOM      8  C   UNL     1      30.757  24.408  19.142  0.00  0.00    +0.242 C 
ATOM      9  O   UNL     1      31.078  24.264  20.316  0.00  0.00    -0.270 OA
ATOM     10  H   UNL     1      32.136  25.854  18.789  0.00  0.00    +0.145 HD
ATOM     11  H   UNL     1      31.059  25.616  17.457  0.00  0.00    +0.145 HD
ENDBRANCH   1   8
BRANCH   5  12
ATOM     12  O   UNL     1      28.695  21.976  15.467  0.00  0.00    -0.484 OA
BRANCH  12  13
ATOM     13  C   UNL     1      30.008  21.960  14.885  0.00  0.00    +0.208 C 
BRANCH  13  14
ATOM     14  C   UNL     1      30.621  20.574  14.825  0.00  0.00    +0.011 A 
ATOM     15  C   UNL     1      31.776  20.215  15.525  0.00  0.00    +0.010 A 
ATOM     16  C   UNL     1      32.224  18.896  15.486  0.00  0.00    +0.020 A 
ATOM     17  C   UNL     1      31.499  17.975  14.747  0.00  0.00    +0.111 A 
ATOM     18  N   UNL     1      30.387  18.283  14.050  0.00  0.00    -0.263 NA
ATOM     19  C   UNL     1      29.975  19.568  14.107  0.00  0.00    +0.118 A 
ENDBRANCH  13  14
BRANCH  13  20
ATOM     20  C   UNL     1      29.932  22.484  13.454  0.00  0.00    +0.034 C 
ATOM     21  C   UNL     1      31.193  22.770  12.674  0.00  0.00    +0.008 C 
ATOM     22  C   UNL     1      30.289  23.904  13.074  0.00  0.00    +0.008 C 
ENDBRANCH  13  20
ENDBRANCH  12  13
ENDBRANCH   5  12
TORSDOF 5
ENDMDL
MODEL 7
REMARK VINA RESULT:      -6.3      2.193      6.141
REMARK  Name = ZINC001228612316
REMARK  5 active torsions:
REMARK  status: ('A' for Active; 'I' for Inactive)
REMARK    1  A    between atoms: C_2  and  C_4
REMARK    2  A    between atoms: C_8  and  O_9
REMARK    3  A    between atoms: O_9  and  C_10
REMARK    4  A    between atoms: C_10  and  C_11
REMARK    5  A    between atoms: C_10  and  C_17
REMARK                            x       y       z     vdW  Elec       q    Type
REMARK                         _______ _______ _______ _____ _____    ______ ____
ROOT
ATOM      1  C   UNL     1      29.386  23.119  17.386  0.00  0.00    +0.040 A 
ATOM      2  C   UNL     1      28.152  22.582  17.001  0.00  0.00    +0.013 A 
ATOM      3  C   UNL     1      28.076  21.716  15.910  0.00  0.00    +0.004 A 
ATOM      4  C   UNL     1      29.229  21.380  15.196  0.00  0.00    +0.046 A 
ATOM      5  C   UNL     1      30.464  21.912  15.567  0.00  0.00    +0.122 A 
ATOM      6  C   UNL     1      30.538  22.780  16.665  0.00  0.00    +0.058 A 
ENDROOT
BRANCH   1   8
ATOM      7  N   UNL     1      28.315  24.045  19.376  0.00  0.00    -0.325 N 
ATOM      8  C   UNL     1      29.418  24.023  18.566  0.00  0.00    +0.242 C 
ATOM      9  O   UNL     1      30.404  24.698  18.834  0.00  0.00    -0.270 OA
ATOM     10  H   UNL     1      28.399  24.584  20.228  0.00  0.00    +0.145 HD
ATOM     11  H   UNL     1      27.592  23.343  19.334  0.00  0.00    +0.145 HD
ENDBRANCH   1   8
BRANCH   5  12
ATOM     12  O   UNL     1      31.646  21.717  14.906  0.00  0.00    -0.484 OA
BRANCH  12  13
ATOM     13  C   UNL     1      31.630  21.609  13.473  0.00  0.00    +0.208 C 
BRANCH  13  14
ATOM     14  C   UNL     1      31.894  22.925  12.769  0.00  0.00    +0.011 A 
ATOM     15  C   UNL     1      30.948  23.573  11.971  0.00  0.00    +0.010 A 
ATOM     16  C   UNL     1      31.240  24.824  11.431  0.00  0.00    +0.020 A 
ATOM     17  C   UNL     1      32.473  25.391  11.710  0.00  0.00    +0.111 A 
ATOM     18  N   UNL     1      33.417  24.795  12.467  0.00  0.00    -0.263 NA
ATOM     19  C   UNL     1      33.106  23.584  12.978  0.00  0.00    +0.118 A 
ENDBRANCH  13  14
BRANCH  13  20
ATOM     20  C   UNL     1      32.713  20.631  13.029  0.00  0.00    +0.034 C 
ATOM     21  C   UNL     1      32.824  20.215  11.582  0.00  0.00    +0.008 C 
ATOM     22  C   UNL     1      32.422  19.205  12.621  0.00  0.00    +0.008 C 
ENDBRANCH  13  20
ENDBRANCH  12  13
ENDBRANCH   5  12
TORSDOF 5
ENDMDL
MODEL 8
REMARK VINA RESULT:      -6.2      1.721      3.329
REMARK  Name = ZINC001228612316
REMARK  5 active torsions:
REMARK  status: ('A' for Active; 'I' for Inactive)
REMARK    1  A    between atoms: C_2  and  C_4
REMARK    2  A    between atoms: C_8  and  O_9
REMARK    3  A    between atoms: O_9  and  C_10
REMARK    4  A    between atoms: C_10  and  C_11
REMARK    5  A    between atoms: C_10  and  C_17
REMARK                            x       y       z     vdW  Elec       q    Type
REMARK                         _______ _______ _______ _____ _____    ______ ____
ROOT
ATOM      1  C   UNL     1      32.060  23.402  11.090  0.00  0.00    +0.040 A 
ATOM      2  C   UNL     1      31.492  24.669  10.917  0.00  0.00    +0.013 A 
ATOM      3  C   UNL     1      30.897  25.322  11.997  0.00  0.00    +0.004 A 
ATOM      4  C   UNL     1      30.866  24.716  13.256  0.00  0.00    +0.046 A 
ATOM      5  C   UNL     1      31.425  23.451  13.440  0.00  0.00    +0.122 A 
ATOM      6  C   UNL     1      32.024  22.799  12.354  0.00  0.00    +0.058 A 
ENDROOT
BRANCH   1   8
ATOM      7  N   UNL     1      33.850  23.315   9.430  0.00  0.00    -0.325 N 
ATOM      8  C   UNL     1      32.698  22.754   9.913  0.00  0.00    +0.242 C 
ATOM      9  O   UNL     1      32.239  21.735   9.410  0.00  0.00    -0.270 OA
ATOM     10  H   UNL     1      34.323  22.799   8.698  0.00  0.00    +0.145 HD
ATOM     11  H   UNL     1      34.385  23.995   9.947  0.00  0.00    +0.145 HD
ENDBRANCH   1   8
BRANCH   5  12
ATOM     12  O   UNL     1      31.393  22.727  14.600  0.00  0.00    -0.484 OA
BRANCH  12  13
ATOM     13  C   UNL     1      30.285  21.844  14.836  0.00  0.00    +0.208 C 
BRANCH  13  14
ATOM     14  C   UNL     1      30.661  20.377  14.765  0.00  0.00    +0.011 A 
ATOM     15  C   UNL     1      29.971  19.444  13.987  0.00  0.00    +0.010 A 
ATOM     16  C   UNL     1      30.435  18.133  13.908  0.00  0.00    +0.020 A 
ATOM     17  C   UNL     1      31.581  17.795  14.610  0.00  0.00    +0.111 A 
ATOM     18  N   UNL     1      32.270  18.662  15.379  0.00  0.00    -0.263 NA
ATOM     19  C   UNL     1      31.798  19.926  15.436  0.00  0.00    +0.118 A 
ENDBRANCH  13  14
BRANCH  13  20
ATOM     20  C   UNL     1      29.722  22.100  16.230  0.00  0.00    +0.034 C 
ATOM     21  C   UNL     1      28.231  22.118  16.464  0.00  0.00    +0.008 C 
ATOM     22  C   UNL     1      29.026  23.386  16.616  0.00  0.00    +0.008 C 
ENDBRANCH  13  20
ENDBRANCH  12  13
ENDBRANCH   5  12
TORSDOF 5
ENDMDL
MODEL 9
REMARK VINA RESULT:      -6.2      2.674      6.614
REMARK  Name = ZINC001228612316
REMARK  5 active torsions:
REMARK  status: ('A' for Active; 'I' for Inactive)
REMARK    1  A    between atoms: C_2  and  C_4
REMARK    2  A    between atoms: C_8  and  O_9
REMARK    3  A    between atoms: O_9  and  C_10
REMARK    4  A    between atoms: C_10  and  C_11
REMARK    5  A    between atoms: C_10  and  C_17
REMARK                            x       y       z     vdW  Elec       q    Type
REMARK                         _______ _______ _______ _____ _____    ______ ____
ROOT
ATOM      1  C   UNL     1      30.950  23.122  18.873  0.00  0.00    +0.040 A 
ATOM      2  C   UNL     1      32.057  22.658  19.592  0.00  0.00    +0.013 A 
ATOM      3  C   UNL     1      33.135  22.081  18.919  0.00  0.00    +0.004 A 
ATOM      4  C   UNL     1      33.116  21.965  17.527  0.00  0.00    +0.046 A 
ATOM      5  C   UNL     1      32.016  22.420  16.800  0.00  0.00    +0.122 A 
ATOM      6  C   UNL     1      30.936  23.001  17.478  0.00  0.00    +0.058 A 
ENDROOT
BRANCH   1   8
ATOM      7  N   UNL     1      28.764  24.212  18.919  0.00  0.00    -0.325 N 
ATOM      8  C   UNL     1      29.834  23.746  19.634  0.00  0.00    +0.242 C 
ATOM      9  O   UNL     1      29.845  23.810  20.857  0.00  0.00    -0.270 OA
ATOM     10  H   UNL     1      27.973  24.534  19.461  0.00  0.00    +0.145 HD
ATOM     11  H   UNL     1      28.604  23.968  17.953  0.00  0.00    +0.145 HD
ENDBRANCH   1   8
BRANCH   5  12
ATOM     12  O   UNL     1      31.848  22.298  15.448  0.00  0.00    -0.484 OA
BRANCH  12  13
ATOM     13  C   UNL     1      30.785  23.026  14.812  0.00  0.00    +0.208 C 
BRANCH  13  14
ATOM     14  C   UNL     1      31.262  23.929  13.691  0.00  0.00    +0.011 A 
ATOM     15  C   UNL     1      30.453  24.892  13.084  0.00  0.00    +0.010 A 
ATOM     16  C   UNL     1      30.995  25.741  12.121  0.00  0.00    +0.020 A 
ATOM     17  C   UNL     1      32.335  25.601  11.797  0.00  0.00    +0.111 A 
ATOM     18  N   UNL     1      33.147  24.679  12.352  0.00  0.00    -0.263 NA
ATOM     19  C   UNL     1      32.595  23.871  13.283  0.00  0.00    +0.118 A 
ENDBRANCH  13  14
BRANCH  13  20
ATOM     20  C   UNL     1      29.789  22.041  14.208  0.00  0.00    +0.034 C 
ATOM     21  C   UNL     1      28.703  21.429  15.060  0.00  0.00    +0.008 C 
ATOM     22  C   UNL     1      29.803  20.560  14.514  0.00  0.00    +0.008 C 
ENDBRANCH  13  20
ENDBRANCH  12  13
ENDBRANCH   5  12
TORSDOF 5
ENDMDL
