MODEL 1
REMARK VINA RESULT:      -7.6      0.000      0.000
REMARK  Name = ZINC000583127796
REMARK  2 active torsions:
REMARK  status: ('A' for Active; 'I' for Inactive)
REMARK    1  A    between atoms: C_2  and  C_4
REMARK    2  A    between atoms: C_7  and  C_8
REMARK                            x       y       z     vdW  Elec       q    Type
REMARK                         _______ _______ _______ _____ _____    ______ ____
ROOT
ATOM      1  C   UNL     1      30.979  19.341  16.480  0.00  0.00    +0.247 C 
ATOM      2  O   UNL     1      32.132  19.695  16.723  0.00  0.00    -0.270 OA
ATOM      3  N   UNL     1      29.856  20.034  16.961  0.00  0.00    -0.297 N 
ATOM      4  C   UNL     1      28.452  19.692  16.718  0.00  0.00    +0.108 C 
ATOM      5  C   UNL     1      27.667  20.852  16.132  0.00  0.00    +0.020 C 
ATOM      6  C   UNL     1      27.857  22.120  16.943  0.00  0.00    +0.011 C 
ATOM      7  C   UNL     1      29.347  22.473  17.173  0.00  0.00    -0.004 C 
ATOM      8  C   UNL     1      29.382  23.696  18.114  0.00  0.00    +0.020 C 
ATOM      9  C   UNL     1      30.682  24.448  17.930  0.00  0.00    +0.070 C 
ATOM     10  S   UNL     1      30.955  24.423  16.152  0.00  0.00    -0.160 S 
ATOM     11  C   UNL     1      30.036  22.887  15.852  0.00  0.00    +0.077 C 
ATOM     12  C   UNL     1      30.063  21.236  17.785  0.00  0.00    +0.115 C 
ENDROOT
BRANCH   1  16
ATOM     13  C   UNL     1      30.512  16.295  13.513  0.00  0.00    +0.037 A 
ATOM     14  C   UNL     1      29.403  16.685  14.272  0.00  0.00    +0.014 A 
ATOM     15  C   UNL     1      29.562  17.593  15.322  0.00  0.00    +0.014 A 
ATOM     16  C   UNL     1      30.805  18.191  15.549  0.00  0.00    +0.037 A 
ATOM     17  C   UNL     1      31.932  17.722  14.859  0.00  0.00    +0.014 A 
ATOM     18  C   UNL     1      31.786  16.766  13.850  0.00  0.00    +0.014 A 
BRANCH  13  20
ATOM     19  N   UNL     1      29.096  15.012  12.009  0.00  0.00    -0.325 N 
ATOM     20  C   UNL     1      30.366  15.387  12.347  0.00  0.00    +0.242 C 
ATOM     21  O   UNL     1      31.333  15.035  11.688  0.00  0.00    -0.270 OA
ATOM     22  H   UNL     1      29.004  14.501  11.139  0.00  0.00    +0.145 HD
ATOM     23  H   UNL     1      28.281  15.501  12.351  0.00  0.00    +0.145 HD
ENDBRANCH  13  20
ENDBRANCH   1  16
TORSDOF 2
ENDMDL
MODEL 2
REMARK VINA RESULT:      -7.2      2.978      6.970
REMARK  Name = ZINC000583127796
REMARK  2 active torsions:
REMARK  status: ('A' for Active; 'I' for Inactive)
REMARK    1  A    between atoms: C_2  and  C_4
REMARK    2  A    between atoms: C_7  and  C_8
REMARK                            x       y       z     vdW  Elec       q    Type
REMARK                         _______ _______ _______ _____ _____    ______ ____
ROOT
ATOM      1  C   UNL     1      30.097  19.286  15.409  0.00  0.00    +0.247 C 
ATOM      2  O   UNL     1      29.775  19.730  14.309  0.00  0.00    -0.270 OA
ATOM      3  N   UNL     1      31.054  18.269  15.567  0.00  0.00    -0.297 N 
ATOM      4  C   UNL     1      31.504  17.685  16.833  0.00  0.00    +0.108 C 
ATOM      5  C   UNL     1      33.012  17.750  16.996  0.00  0.00    +0.020 C 
ATOM      6  C   UNL     1      33.728  17.196  15.778  0.00  0.00    +0.011 C 
ATOM      7  C   UNL     1      33.250  17.840  14.453  0.00  0.00    -0.004 C 
ATOM      8  C   UNL     1      33.963  17.092  13.306  0.00  0.00    +0.020 C 
ATOM      9  C   UNL     1      34.032  17.978  12.080  0.00  0.00    +0.070 C 
ATOM     10  S   UNL     1      34.421  19.607  12.738  0.00  0.00    -0.160 S 
ATOM     11  C   UNL     1      33.671  19.325  14.366  0.00  0.00    +0.077 C 
ATOM     12  C   UNL     1      31.704  17.715  14.368  0.00  0.00    +0.115 C 
ENDROOT
BRANCH   1  16
ATOM     13  C   UNL     1      28.190  21.404  18.599  0.00  0.00    +0.037 A 
ATOM     14  C   UNL     1      29.533  21.669  18.311  0.00  0.00    +0.014 A 
ATOM     15  C   UNL     1      30.203  20.906  17.351  0.00  0.00    +0.014 A 
ATOM     16  C   UNL     1      29.507  19.948  16.606  0.00  0.00    +0.037 A 
ATOM     17  C   UNL     1      28.195  19.614  16.968  0.00  0.00    +0.014 A 
ATOM     18  C   UNL     1      27.541  20.334  17.972  0.00  0.00    +0.014 A 
BRANCH  13  20
ATOM     19  N   UNL     1      26.777  23.330  19.054  0.00  0.00    -0.325 N 
ATOM     20  C   UNL     1      27.429  22.241  19.562  0.00  0.00    +0.242 C 
ATOM     21  O   UNL     1      27.348  21.940  20.743  0.00  0.00    -0.270 OA
ATOM     22  H   UNL     1      26.160  23.814  19.696  0.00  0.00    +0.145 HD
ATOM     23  H   UNL     1      26.598  23.438  18.066  0.00  0.00    +0.145 HD
ENDBRANCH  13  20
ENDBRANCH   1  16
TORSDOF 2
ENDMDL
MODEL 3
REMARK VINA RESULT:      -7.2      2.967      7.017
REMARK  Name = ZINC000583127796
REMARK  2 active torsions:
REMARK  status: ('A' for Active; 'I' for Inactive)
REMARK    1  A    between atoms: C_2  and  C_4
REMARK    2  A    between atoms: C_7  and  C_8
REMARK                            x       y       z     vdW  Elec       q    Type
REMARK                         _______ _______ _______ _____ _____    ______ ____
ROOT
ATOM      1  C   UNL     1      29.987  19.102  15.357  0.00  0.00    +0.247 C 
ATOM      2  O   UNL     1      29.593  19.328  14.215  0.00  0.00    -0.270 OA
ATOM      3  N   UNL     1      30.955  18.126  15.646  0.00  0.00    -0.297 N 
ATOM      4  C   UNL     1      31.489  17.793  16.970  0.00  0.00    +0.108 C 
ATOM      5  C   UNL     1      33.004  17.874  17.020  0.00  0.00    +0.020 C 
ATOM      6  C   UNL     1      33.642  17.089  15.888  0.00  0.00    +0.011 C 
ATOM      7  C   UNL     1      33.076  17.469  14.497  0.00  0.00    -0.004 C 
ATOM      8  C   UNL     1      33.715  16.506  13.473  0.00  0.00    +0.020 C 
ATOM      9  C   UNL     1      33.701  17.138  12.097  0.00  0.00    +0.070 C 
ATOM     10  S   UNL     1      34.127  18.860  12.401  0.00  0.00    -0.160 S 
ATOM     11  C   UNL     1      33.485  18.905  14.098  0.00  0.00    +0.077 C 
ATOM     12  C   UNL     1      31.528  17.344  14.538  0.00  0.00    +0.115 C 
ENDROOT
BRANCH   1  16
ATOM     13  C   UNL     1      28.737  21.442  18.712  0.00  0.00    +0.037 A 
ATOM     14  C   UNL     1      27.836  20.541  18.135  0.00  0.00    +0.014 A 
ATOM     15  C   UNL     1      28.188  19.855  16.970  0.00  0.00    +0.014 A 
ATOM     16  C   UNL     1      29.475  19.988  16.439  0.00  0.00    +0.037 A 
ATOM     17  C   UNL     1      30.335  20.967  16.957  0.00  0.00    +0.014 A 
ATOM     18  C   UNL     1      29.961  21.701  18.085  0.00  0.00    +0.014 A 
BRANCH  13  20
ATOM     19  N   UNL     1      29.240  23.169  20.349  0.00  0.00    -0.325 N 
ATOM     20  C   UNL     1      28.422  22.135  19.989  0.00  0.00    +0.242 C 
ATOM     21  O   UNL     1      27.447  21.829  20.657  0.00  0.00    -0.270 OA
ATOM     22  H   UNL     1      28.938  23.711  21.150  0.00  0.00    +0.145 HD
ATOM     23  H   UNL     1      29.866  23.615  19.693  0.00  0.00    +0.145 HD
ENDBRANCH  13  20
ENDBRANCH   1  16
TORSDOF 2
ENDMDL
MODEL 4
REMARK VINA RESULT:      -7.1      4.942      7.201
REMARK  Name = ZINC000583127796
REMARK  2 active torsions:
REMARK  status: ('A' for Active; 'I' for Inactive)
REMARK    1  A    between atoms: C_2  and  C_4
REMARK    2  A    between atoms: C_7  and  C_8
REMARK                            x       y       z     vdW  Elec       q    Type
REMARK                         _______ _______ _______ _____ _____    ______ ____
ROOT
ATOM      1  C   UNL     1      32.656  23.799  14.137  0.00  0.00    +0.247 C 
ATOM      2  O   UNL     1      33.721  23.185  14.140  0.00  0.00    -0.270 OA
ATOM      3  N   UNL     1      32.481  25.010  13.449  0.00  0.00    -0.297 N 
ATOM      4  C   UNL     1      31.252  25.805  13.384  0.00  0.00    +0.108 C 
ATOM      5  C   UNL     1      30.822  26.089  11.955  0.00  0.00    +0.020 C 
ATOM      6  C   UNL     1      31.963  26.658  11.133  0.00  0.00    +0.011 C 
ATOM      7  C   UNL     1      33.246  25.794  11.201  0.00  0.00    -0.004 C 
ATOM      8  C   UNL     1      34.346  26.558  10.434  0.00  0.00    +0.020 C 
ATOM      9  C   UNL     1      35.403  25.588   9.951  0.00  0.00    +0.070 C 
ATOM     10  S   UNL     1      34.463  24.159   9.390  0.00  0.00    -0.160 S 
ATOM     11  C   UNL     1      33.046  24.435  10.490  0.00  0.00    +0.077 C 
ATOM     12  C   UNL     1      33.615  25.568  12.694  0.00  0.00    +0.115 C 
ENDROOT
BRANCH   1  16
ATOM     13  C   UNL     1      29.099  22.146  15.844  0.00  0.00    +0.037 A 
ATOM     14  C   UNL     1      29.858  23.052  16.593  0.00  0.00    +0.014 A 
ATOM     15  C   UNL     1      31.081  23.511  16.098  0.00  0.00    +0.014 A 
ATOM     16  C   UNL     1      31.498  23.149  14.813  0.00  0.00    +0.037 A 
ATOM     17  C   UNL     1      30.790  22.164  14.111  0.00  0.00    +0.014 A 
ATOM     18  C   UNL     1      29.597  21.654  14.633  0.00  0.00    +0.014 A 
BRANCH  13  20
ATOM     19  N   UNL     1      26.939  22.643  16.846  0.00  0.00    -0.325 N 
ATOM     20  C   UNL     1      27.762  21.693  16.309  0.00  0.00    +0.242 C 
ATOM     21  O   UNL     1      27.397  20.536  16.168  0.00  0.00    -0.270 OA
ATOM     22  H   UNL     1      25.989  22.346  17.038  0.00  0.00    +0.145 HD
ATOM     23  H   UNL     1      27.101  23.631  16.717  0.00  0.00    +0.145 HD
ENDBRANCH  13  20
ENDBRANCH   1  16
TORSDOF 2
ENDMDL
MODEL 5
REMARK VINA RESULT:      -6.9      3.158      6.934
REMARK  Name = ZINC000583127796
REMARK  2 active torsions:
REMARK  status: ('A' for Active; 'I' for Inactive)
REMARK    1  A    between atoms: C_2  and  C_4
REMARK    2  A    between atoms: C_7  and  C_8
REMARK                            x       y       z     vdW  Elec       q    Type
REMARK                         _______ _______ _______ _____ _____    ______ ____
ROOT
ATOM      1  C   UNL     1      31.092  21.072  15.801  0.00  0.00    +0.247 C 
ATOM      2  O   UNL     1      32.199  21.606  15.826  0.00  0.00    -0.270 OA
ATOM      3  N   UNL     1      30.829  19.907  15.061  0.00  0.00    -0.297 N 
ATOM      4  C   UNL     1      29.549  19.199  14.977  0.00  0.00    +0.108 C 
ATOM      5  C   UNL     1      29.674  17.732  15.347  0.00  0.00    +0.020 C 
ATOM      6  C   UNL     1      30.798  17.058  14.582  0.00  0.00    +0.011 C 
ATOM      7  C   UNL     1      32.145  17.812  14.699  0.00  0.00    -0.004 C 
ATOM      8  C   UNL     1      33.148  17.091  13.772  0.00  0.00    +0.020 C 
ATOM      9  C   UNL     1      34.562  17.357  14.241  0.00  0.00    +0.070 C 
ATOM     10  S   UNL     1      34.456  17.256  16.035  0.00  0.00    -0.160 S 
ATOM     11  C   UNL     1      32.709  17.735  16.137  0.00  0.00    +0.077 C 
ATOM     12  C   UNL     1      31.923  19.295  14.290  0.00  0.00    +0.115 C 
ENDROOT
BRANCH   1  16
ATOM     13  C   UNL     1      28.029  22.372  18.490  0.00  0.00    +0.037 A 
ATOM     14  C   UNL     1      27.739  22.265  17.125  0.00  0.00    +0.014 A 
ATOM     15  C   UNL     1      28.757  21.954  16.219  0.00  0.00    +0.014 A 
ATOM     16  C   UNL     1      30.040  21.649  16.684  0.00  0.00    +0.037 A 
ATOM     17  C   UNL     1      30.352  21.858  18.035  0.00  0.00    +0.014 A 
ATOM     18  C   UNL     1      29.349  22.231  18.934  0.00  0.00    +0.014 A 
BRANCH  13  20
ATOM     19  N   UNL     1      25.992  23.531  19.137  0.00  0.00    -0.325 N 
ATOM     20  C   UNL     1      26.958  22.630  19.487  0.00  0.00    +0.242 C 
ATOM     21  O   UNL     1      26.916  22.026  20.547  0.00  0.00    -0.270 OA
ATOM     22  H   UNL     1      25.203  23.599  19.769  0.00  0.00    +0.145 HD
ATOM     23  H   UNL     1      25.849  23.824  18.180  0.00  0.00    +0.145 HD
ENDBRANCH  13  20
ENDBRANCH   1  16
TORSDOF 2
ENDMDL
MODEL 6
REMARK VINA RESULT:      -6.8      1.385      1.497
REMARK  Name = ZINC000583127796
REMARK  2 active torsions:
REMARK  status: ('A' for Active; 'I' for Inactive)
REMARK    1  A    between atoms: C_2  and  C_4
REMARK    2  A    between atoms: C_7  and  C_8
REMARK                            x       y       z     vdW  Elec       q    Type
REMARK                         _______ _______ _______ _____ _____    ______ ____
ROOT
ATOM      1  C   UNL     1      31.481  19.428  16.652  0.00  0.00    +0.247 C 
ATOM      2  O   UNL     1      32.460  19.997  17.132  0.00  0.00    -0.270 OA
ATOM      3  N   UNL     1      30.163  19.821  16.932  0.00  0.00    -0.297 N 
ATOM      4  C   UNL     1      28.940  19.209  16.404  0.00  0.00    +0.108 C 
ATOM      5  C   UNL     1      28.034  20.221  15.725  0.00  0.00    +0.020 C 
ATOM      6  C   UNL     1      27.781  21.426  16.612  0.00  0.00    +0.011 C 
ATOM      7  C   UNL     1      29.086  22.067  17.145  0.00  0.00    -0.004 C 
ATOM      8  C   UNL     1      28.671  23.184  18.127  0.00  0.00    +0.020 C 
ATOM      9  C   UNL     1      29.779  24.210  18.235  0.00  0.00    +0.070 C 
ATOM     10  S   UNL     1      30.371  24.396  16.545  0.00  0.00    -0.160 S 
ATOM     11  C   UNL     1      29.892  22.731  16.005  0.00  0.00    +0.077 C 
ATOM     12  C   UNL     1      29.939  20.965  17.832  0.00  0.00    +0.115 C 
ENDROOT
BRANCH   1  16
ATOM     13  C   UNL     1      32.311  16.620  13.533  0.00  0.00    +0.037 A 
ATOM     14  C   UNL     1      30.990  16.797  13.958  0.00  0.00    +0.014 A 
ATOM     15  C   UNL     1      30.715  17.622  15.052  0.00  0.00    +0.014 A 
ATOM     16  C   UNL     1      31.744  18.351  15.656  0.00  0.00    +0.037 A 
ATOM     17  C   UNL     1      33.075  18.092  15.298  0.00  0.00    +0.014 A 
ATOM     18  C   UNL     1      33.357  17.218  14.245  0.00  0.00    +0.014 A 
BRANCH  13  20
ATOM     19  N   UNL     1      33.779  16.119  11.660  0.00  0.00    -0.325 N 
ATOM     20  C   UNL     1      32.630  15.806  12.332  0.00  0.00    +0.242 C 
ATOM     21  O   UNL     1      31.927  14.867  11.992  0.00  0.00    -0.270 OA
ATOM     22  H   UNL     1      34.049  15.477  10.925  0.00  0.00    +0.145 HD
ATOM     23  H   UNL     1      34.505  16.689  12.071  0.00  0.00    +0.145 HD
ENDBRANCH  13  20
ENDBRANCH   1  16
TORSDOF 2
ENDMDL
MODEL 7
REMARK VINA RESULT:      -6.8      3.348      6.837
REMARK  Name = ZINC000583127796
REMARK  2 active torsions:
REMARK  status: ('A' for Active; 'I' for Inactive)
REMARK    1  A    between atoms: C_2  and  C_4
REMARK    2  A    between atoms: C_7  and  C_8
REMARK                            x       y       z     vdW  Elec       q    Type
REMARK                         _______ _______ _______ _____ _____    ______ ____
ROOT
ATOM      1  C   UNL     1      30.728  17.771  14.896  0.00  0.00    +0.247 C 
ATOM      2  O   UNL     1      30.319  16.907  14.123  0.00  0.00    -0.270 OA
ATOM      3  N   UNL     1      32.065  17.838  15.321  0.00  0.00    -0.297 N 
ATOM      4  C   UNL     1      32.642  18.831  16.230  0.00  0.00    +0.108 C 
ATOM      5  C   UNL     1      33.847  19.534  15.631  0.00  0.00    +0.020 C 
ATOM      6  C   UNL     1      34.858  18.541  15.088  0.00  0.00    +0.011 C 
ATOM      7  C   UNL     1      34.231  17.512  14.115  0.00  0.00    -0.004 C 
ATOM      8  C   UNL     1      35.339  16.499  13.755  0.00  0.00    +0.020 C 
ATOM      9  C   UNL     1      35.025  15.847  12.426  0.00  0.00    +0.070 C 
ATOM     10  S   UNL     1      34.398  17.195  11.413  0.00  0.00    -0.160 S 
ATOM     11  C   UNL     1      33.777  18.186  12.800  0.00  0.00    +0.077 C 
ATOM     12  C   UNL     1      33.020  16.837  14.817  0.00  0.00    +0.115 C 
ENDROOT
BRANCH   1  16
ATOM     13  C   UNL     1      28.265  21.022  16.188  0.00  0.00    +0.037 A 
ATOM     14  C   UNL     1      28.191  19.799  16.864  0.00  0.00    +0.014 A 
ATOM     15  C   UNL     1      28.901  18.695  16.384  0.00  0.00    +0.014 A 
ATOM     16  C   UNL     1      29.764  18.836  15.294  0.00  0.00    +0.037 A 
ATOM     17  C   UNL     1      29.756  20.029  14.558  0.00  0.00    +0.014 A 
ATOM     18  C   UNL     1      28.998  21.117  14.999  0.00  0.00    +0.014 A 
BRANCH  13  20
ATOM     19  N   UNL     1      28.322  23.074  17.492  0.00  0.00    -0.325 N 
ATOM     20  C   UNL     1      27.581  22.233  16.710  0.00  0.00    +0.242 C 
ATOM     21  O   UNL     1      26.425  22.490  16.410  0.00  0.00    -0.270 OA
ATOM     22  H   UNL     1      27.882  23.955  17.732  0.00  0.00    +0.145 HD
ATOM     23  H   UNL     1      29.331  23.033  17.521  0.00  0.00    +0.145 HD
ENDBRANCH  13  20
ENDBRANCH   1  16
TORSDOF 2
ENDMDL
MODEL 8
REMARK VINA RESULT:      -6.8      4.856      6.967
REMARK  Name = ZINC000583127796
REMARK  2 active torsions:
REMARK  status: ('A' for Active; 'I' for Inactive)
REMARK    1  A    between atoms: C_2  and  C_4
REMARK    2  A    between atoms: C_7  and  C_8
REMARK                            x       y       z     vdW  Elec       q    Type
REMARK                         _______ _______ _______ _____ _____    ______ ____
ROOT
ATOM      1  C   UNL     1      31.758  23.849  15.027  0.00  0.00    +0.247 C 
ATOM      2  O   UNL     1      31.928  24.570  16.008  0.00  0.00    -0.270 OA
ATOM      3  N   UNL     1      31.301  22.525  15.130  0.00  0.00    -0.297 N 
ATOM      4  C   UNL     1      31.063  21.597  14.021  0.00  0.00    +0.108 C 
ATOM      5  C   UNL     1      29.657  21.024  14.038  0.00  0.00    +0.020 C 
ATOM      6  C   UNL     1      29.304  20.454  15.399  0.00  0.00    +0.011 C 
ATOM      7  C   UNL     1      29.545  21.457  16.554  0.00  0.00    -0.004 C 
ATOM      8  C   UNL     1      29.272  20.700  17.872  0.00  0.00    +0.020 C 
ATOM      9  C   UNL     1      28.911  21.686  18.963  0.00  0.00    +0.070 C 
ATOM     10  S   UNL     1      27.846  22.880  18.141  0.00  0.00    -0.160 S 
ATOM     11  C   UNL     1      28.553  22.641  16.487  0.00  0.00    +0.077 C 
ATOM     12  C   UNL     1      31.007  21.977  16.465  0.00  0.00    +0.115 C 
ENDROOT
BRANCH   1  16
ATOM     13  C   UNL     1      32.599  25.850  11.341  0.00  0.00    +0.037 A 
ATOM     14  C   UNL     1      31.416  26.150  12.026  0.00  0.00    +0.014 A 
ATOM     15  C   UNL     1      31.070  25.423  13.169  0.00  0.00    +0.014 A 
ATOM     16  C   UNL     1      31.952  24.470  13.687  0.00  0.00    +0.037 A 
ATOM     17  C   UNL     1      33.082  24.100  12.944  0.00  0.00    +0.014 A 
ATOM     18  C   UNL     1      33.398  24.782  11.766  0.00  0.00    +0.014 A 
BRANCH  13  20
ATOM     19  N   UNL     1      33.094  25.997   8.965  0.00  0.00    -0.325 N 
ATOM     20  C   UNL     1      33.031  26.648  10.165  0.00  0.00    +0.242 C 
ATOM     21  O   UNL     1      33.267  27.843  10.258  0.00  0.00    -0.270 OA
ATOM     22  H   UNL     1      33.264  26.582   8.155  0.00  0.00    +0.145 HD
ATOM     23  H   UNL     1      32.644  25.106   8.811  0.00  0.00    +0.145 HD
ENDBRANCH  13  20
ENDBRANCH   1  16
TORSDOF 2
ENDMDL
MODEL 9
REMARK VINA RESULT:      -6.8      3.149      6.816
REMARK  Name = ZINC000583127796
REMARK  2 active torsions:
REMARK  status: ('A' for Active; 'I' for Inactive)
REMARK    1  A    between atoms: C_2  and  C_4
REMARK    2  A    between atoms: C_7  and  C_8
REMARK                            x       y       z     vdW  Elec       q    Type
REMARK                         _______ _______ _______ _____ _____    ______ ____
ROOT
ATOM      1  C   UNL     1      30.944  19.901  15.172  0.00  0.00    +0.247 C 
ATOM      2  O   UNL     1      31.078  20.532  14.125  0.00  0.00    -0.270 OA
ATOM      3  N   UNL     1      31.660  18.723  15.443  0.00  0.00    -0.297 N 
ATOM      4  C   UNL     1      31.572  17.911  16.660  0.00  0.00    +0.108 C 
ATOM      5  C   UNL     1      32.927  17.693  17.309  0.00  0.00    +0.020 C 
ATOM      6  C   UNL     1      33.950  17.187  16.308  0.00  0.00    +0.011 C 
ATOM      7  C   UNL     1      34.039  18.070  15.038  0.00  0.00    -0.004 C 
ATOM      8  C   UNL     1      35.011  17.365  14.067  0.00  0.00    +0.020 C 
ATOM      9  C   UNL     1      35.603  18.377  13.110  0.00  0.00    +0.070 C 
ATOM     10  S   UNL     1      35.931  19.816  14.141  0.00  0.00    -0.160 S 
ATOM     11  C   UNL     1      34.636  19.459  15.361  0.00  0.00    +0.077 C 
ATOM     12  C   UNL     1      32.614  18.225  14.439  0.00  0.00    +0.115 C 
ENDROOT
BRANCH   1  16
ATOM     13  C   UNL     1      28.597  21.386  18.425  0.00  0.00    +0.037 A 
ATOM     14  C   UNL     1      28.014  20.502  17.510  0.00  0.00    +0.014 A 
ATOM     15  C   UNL     1      28.729  20.098  16.380  0.00  0.00    +0.014 A 
ATOM     16  C   UNL     1      30.060  20.494  16.213  0.00  0.00    +0.037 A 
ATOM     17  C   UNL     1      30.604  21.459  17.072  0.00  0.00    +0.014 A 
ATOM     18  C   UNL     1      29.868  21.913  18.170  0.00  0.00    +0.014 A 
BRANCH  13  20
ATOM     19  N   UNL     1      26.706  22.442  19.529  0.00  0.00    -0.325 N 
ATOM     20  C   UNL     1      27.892  21.779  19.672  0.00  0.00    +0.242 C 
ATOM     21  O   UNL     1      28.327  21.476  20.772  0.00  0.00    -0.270 OA
ATOM     22  H   UNL     1      26.177  22.588  20.381  0.00  0.00    +0.145 HD
ATOM     23  H   UNL     1      26.196  22.454  18.657  0.00  0.00    +0.145 HD
ENDBRANCH  13  20
ENDBRANCH   1  16
TORSDOF 2
ENDMDL
