MODEL 1
REMARK VINA RESULT:      -7.1      0.000      0.000
REMARK  Name = ZINC000826139982
REMARK  4 active torsions:
REMARK  status: ('A' for Active; 'I' for Inactive)
REMARK    1  A    between atoms: C_2  and  C_4
REMARK    2  A    between atoms: C_8  and  C_10
REMARK    3  A    between atoms: C_14  and  S_15
REMARK    4  A    between atoms: S_15  and  C_16
REMARK                            x       y       z     vdW  Elec       q    Type
REMARK                         _______ _______ _______ _____ _____    ______ ____
ROOT
ATOM      1  C   UNL     1      27.831  21.621  16.261  0.00  0.00    +0.093 C 
ATOM      2  C   UNL     1      28.833  20.716  16.988  0.00  0.00    +0.033 C 
ATOM      3  C   UNL     1      30.166  21.450  16.914  0.00  0.00    +0.109 C 
ATOM      4  N   UNL     1      30.064  22.253  15.714  0.00  0.00    -0.297 N 
ATOM      5  C   UNL     1      31.192  22.649  15.006  0.00  0.00    +0.247 C 
ATOM      6  O   UNL     1      32.317  22.264  15.324  0.00  0.00    -0.270 OA
ATOM      7  C   UNL     1      28.677  22.643  15.514  0.00  0.00    +0.120 C 
ENDROOT
BRANCH   5   8
ATOM      8  C   UNL     1      31.071  23.504  13.780  0.00  0.00    +0.038 A 
ATOM      9  C   UNL     1      29.968  24.322  13.515  0.00  0.00    +0.013 A 
ATOM     10  C   UNL     1      29.851  25.000  12.303  0.00  0.00    +0.002 A 
ATOM     11  C   UNL     1      30.890  24.954  11.379  0.00  0.00    +0.015 A 
ATOM     12  C   UNL     1      32.063  24.256  11.679  0.00  0.00    +0.017 A 
ATOM     13  C   UNL     1      32.135  23.504  12.861  0.00  0.00    +0.028 A 
BRANCH  12  14
ATOM     14  S   UNL     1      33.447  24.279  10.558  0.00  0.00    -0.016 S 
BRANCH  14  15
ATOM     15  C   UNL     1      32.997  22.954   9.418  0.00  0.00    +0.448 C 
ATOM     16  F   UNL     1      31.819  23.152   8.780  0.00  0.00    -0.160 F 
ATOM     17  F   UNL     1      33.944  22.796   8.463  0.00  0.00    -0.160 F 
ATOM     18  F   UNL     1      32.895  21.773  10.076  0.00  0.00    -0.160 F 
ENDBRANCH  14  15
ENDBRANCH  12  14
ENDBRANCH   5   8
BRANCH   1  20
ATOM     19  N   UNL     1      26.895  23.639  17.238  0.00  0.00    -0.329 N 
ATOM     20  C   UNL     1      26.809  22.280  17.169  0.00  0.00    +0.215 C 
ATOM     21  O   UNL     1      25.994  21.680  17.854  0.00  0.00    -0.276 OA
ATOM     22  H   UNL     1      26.278  24.113  17.885  0.00  0.00    +0.145 HD
ATOM     23  H   UNL     1      27.595  24.178  16.750  0.00  0.00    +0.145 HD
ENDBRANCH   1  20
TORSDOF 4
ENDMDL
MODEL 2
REMARK VINA RESULT:      -6.8      0.946      1.274
REMARK  Name = ZINC000826139982
REMARK  4 active torsions:
REMARK  status: ('A' for Active; 'I' for Inactive)
REMARK    1  A    between atoms: C_2  and  C_4
REMARK    2  A    between atoms: C_8  and  C_10
REMARK    3  A    between atoms: C_14  and  S_15
REMARK    4  A    between atoms: S_15  and  C_16
REMARK                            x       y       z     vdW  Elec       q    Type
REMARK                         _______ _______ _______ _____ _____    ______ ____
ROOT
ATOM      1  C   UNL     1      28.925  21.657  16.299  0.00  0.00    +0.093 C 
ATOM      2  C   UNL     1      30.078  21.329  17.254  0.00  0.00    +0.033 C 
ATOM      3  C   UNL     1      31.124  22.409  17.010  0.00  0.00    +0.109 C 
ATOM      4  N   UNL     1      30.901  22.817  15.638  0.00  0.00    -0.297 N 
ATOM      5  C   UNL     1      31.919  23.367  14.869  0.00  0.00    +0.247 C 
ATOM      6  O   UNL     1      33.071  23.453  15.295  0.00  0.00    -0.270 OA
ATOM      7  C   UNL     1      29.489  22.681  15.321  0.00  0.00    +0.120 C 
ENDROOT
BRANCH   5   8
ATOM      8  C   UNL     1      31.665  23.809  13.459  0.00  0.00    +0.038 A 
ATOM      9  C   UNL     1      30.531  24.527  13.068  0.00  0.00    +0.013 A 
ATOM     10  C   UNL     1      30.284  24.805  11.724  0.00  0.00    +0.002 A 
ATOM     11  C   UNL     1      31.226  24.460  10.761  0.00  0.00    +0.015 A 
ATOM     12  C   UNL     1      32.433  23.866  11.141  0.00  0.00    +0.017 A 
ATOM     13  C   UNL     1      32.632  23.510  12.483  0.00  0.00    +0.028 A 
BRANCH  12  14
ATOM     14  S   UNL     1      33.697  23.522   9.936  0.00  0.00    -0.016 S 
BRANCH  14  15
ATOM     15  C   UNL     1      33.097  21.972   9.231  0.00  0.00    +0.448 C 
ATOM     16  F   UNL     1      32.923  20.984  10.140  0.00  0.00    -0.160 F 
ATOM     17  F   UNL     1      31.907  22.153   8.610  0.00  0.00    -0.160 F 
ATOM     18  F   UNL     1      33.965  21.504   8.301  0.00  0.00    -0.160 F 
ENDBRANCH  14  15
ENDBRANCH  12  14
ENDBRANCH   5   8
BRANCH   1  20
ATOM     19  N   UNL     1      27.475  23.504  16.921  0.00  0.00    -0.329 N 
ATOM     20  C   UNL     1      27.666  22.156  16.984  0.00  0.00    +0.215 C 
ATOM     21  O   UNL     1      26.887  21.453  17.610  0.00  0.00    -0.276 OA
ATOM     22  H   UNL     1      26.684  23.887  17.424  0.00  0.00    +0.145 HD
ATOM     23  H   UNL     1      28.124  24.140  16.479  0.00  0.00    +0.145 HD
ENDBRANCH   1  20
TORSDOF 4
ENDMDL
MODEL 3
REMARK VINA RESULT:      -6.7      2.562      3.422
REMARK  Name = ZINC000826139982
REMARK  4 active torsions:
REMARK  status: ('A' for Active; 'I' for Inactive)
REMARK    1  A    between atoms: C_2  and  C_4
REMARK    2  A    between atoms: C_8  and  C_10
REMARK    3  A    between atoms: C_14  and  S_15
REMARK    4  A    between atoms: S_15  and  C_16
REMARK                            x       y       z     vdW  Elec       q    Type
REMARK                         _______ _______ _______ _____ _____    ______ ____
ROOT
ATOM      1  C   UNL     1      31.490  25.050  18.288  0.00  0.00    +0.093 C 
ATOM      2  C   UNL     1      30.954  23.718  18.825  0.00  0.00    +0.033 C 
ATOM      3  C   UNL     1      31.160  22.715  17.697  0.00  0.00    +0.109 C 
ATOM      4  N   UNL     1      31.125  23.521  16.494  0.00  0.00    -0.297 N 
ATOM      5  C   UNL     1      30.754  22.982  15.269  0.00  0.00    +0.247 C 
ATOM      6  O   UNL     1      30.359  21.820  15.171  0.00  0.00    -0.270 OA
ATOM      7  C   UNL     1      31.655  24.843  16.787  0.00  0.00    +0.120 C 
ENDROOT
BRANCH   5   8
ATOM      8  C   UNL     1      30.750  23.824  14.027  0.00  0.00    +0.038 A 
ATOM      9  C   UNL     1      29.686  24.655  13.661  0.00  0.00    +0.013 A 
ATOM     10  C   UNL     1      29.682  25.319  12.436  0.00  0.00    +0.002 A 
ATOM     11  C   UNL     1      30.793  25.244  11.603  0.00  0.00    +0.015 A 
ATOM     12  C   UNL     1      31.926  24.533  12.008  0.00  0.00    +0.017 A 
ATOM     13  C   UNL     1      31.886  23.796  13.201  0.00  0.00    +0.028 A 
BRANCH  12  14
ATOM     14  S   UNL     1      33.399  24.521  11.007  0.00  0.00    -0.016 S 
BRANCH  14  15
ATOM     15  C   UNL     1      33.015  23.202   9.835  0.00  0.00    +0.448 C 
ATOM     16  F   UNL     1      31.846  23.374   9.175  0.00  0.00    -0.160 F 
ATOM     17  F   UNL     1      33.988  23.091   8.899  0.00  0.00    -0.160 F 
ATOM     18  F   UNL     1      32.936  22.007  10.471  0.00  0.00    -0.160 F 
ENDBRANCH  14  15
ENDBRANCH  12  14
ENDBRANCH   5   8
BRANCH   1  20
ATOM     19  N   UNL     1      32.696  26.733  19.558  0.00  0.00    -0.329 N 
ATOM     20  C   UNL     1      32.776  25.518  18.944  0.00  0.00    +0.215 C 
ATOM     21  O   UNL     1      33.840  24.921  18.899  0.00  0.00    -0.276 OA
ATOM     22  H   UNL     1      33.549  27.115  19.949  0.00  0.00    +0.145 HD
ATOM     23  H   UNL     1      31.862  27.302  19.563  0.00  0.00    +0.145 HD
ENDBRANCH   1  20
TORSDOF 4
ENDMDL
MODEL 4
REMARK VINA RESULT:      -6.6      4.645      7.495
REMARK  Name = ZINC000826139982
REMARK  4 active torsions:
REMARK  status: ('A' for Active; 'I' for Inactive)
REMARK    1  A    between atoms: C_2  and  C_4
REMARK    2  A    between atoms: C_8  and  C_10
REMARK    3  A    between atoms: C_14  and  S_15
REMARK    4  A    between atoms: S_15  and  C_16
REMARK                            x       y       z     vdW  Elec       q    Type
REMARK                         _______ _______ _______ _____ _____    ______ ____
ROOT
ATOM      1  C   UNL     1      32.731  23.066  10.777  0.00  0.00    +0.093 C 
ATOM      2  C   UNL     1      31.801  24.080  10.102  0.00  0.00    +0.033 C 
ATOM      3  C   UNL     1      31.274  24.958  11.228  0.00  0.00    +0.109 C 
ATOM      4  N   UNL     1      31.323  24.104  12.397  0.00  0.00    -0.297 N 
ATOM      5  C   UNL     1      30.479  24.308  13.482  0.00  0.00    +0.247 C 
ATOM      6  O   UNL     1      29.600  25.169  13.459  0.00  0.00    -0.270 OA
ATOM      7  C   UNL     1      32.436  23.177  12.268  0.00  0.00    +0.120 C 
ENDROOT
BRANCH   5   8
ATOM      8  C   UNL     1      30.561  23.432  14.697  0.00  0.00    +0.038 A 
ATOM      9  C   UNL     1      31.767  22.980  15.242  0.00  0.00    +0.013 A 
ATOM     10  C   UNL     1      31.781  22.068  16.296  0.00  0.00    +0.002 A 
ATOM     11  C   UNL     1      30.587  21.676  16.890  0.00  0.00    +0.015 A 
ATOM     12  C   UNL     1      29.375  22.221  16.454  0.00  0.00    +0.017 A 
ATOM     13  C   UNL     1      29.364  23.067  15.336  0.00  0.00    +0.028 A 
BRANCH  12  14
ATOM     14  S   UNL     1      27.848  21.818  17.277  0.00  0.00    -0.016 S 
BRANCH  14  15
ATOM     15  C   UNL     1      27.564  20.137  16.684  0.00  0.00    +0.448 C 
ATOM     16  F   UNL     1      28.111  19.176  17.465  0.00  0.00    -0.160 F 
ATOM     17  F   UNL     1      26.238  19.873  16.600  0.00  0.00    -0.160 F 
ATOM     18  F   UNL     1      28.081  19.976  15.441  0.00  0.00    -0.160 F 
ENDBRANCH  14  15
ENDBRANCH  12  14
ENDBRANCH   5   8
BRANCH   1  20
ATOM     19  N   UNL     1      34.463  23.937   9.312  0.00  0.00    -0.329 N 
ATOM     20  C   UNL     1      34.204  23.267  10.471  0.00  0.00    +0.215 C 
ATOM     21  O   UNL     1      35.123  22.827  11.145  0.00  0.00    -0.276 OA
ATOM     22  H   UNL     1      35.432  24.031   9.035  0.00  0.00    +0.145 HD
ATOM     23  H   UNL     1      33.743  24.259   8.682  0.00  0.00    +0.145 HD
ENDBRANCH   1  20
TORSDOF 4
ENDMDL
MODEL 5
REMARK VINA RESULT:      -6.5      4.887      7.664
REMARK  Name = ZINC000826139982
REMARK  4 active torsions:
REMARK  status: ('A' for Active; 'I' for Inactive)
REMARK    1  A    between atoms: C_2  and  C_4
REMARK    2  A    between atoms: C_8  and  C_10
REMARK    3  A    between atoms: C_14  and  S_15
REMARK    4  A    between atoms: S_15  and  C_16
REMARK                            x       y       z     vdW  Elec       q    Type
REMARK                         _______ _______ _______ _____ _____    ______ ____
ROOT
ATOM      1  C   UNL     1      34.232  22.822   8.380  0.00  0.00    +0.093 C 
ATOM      2  C   UNL     1      35.545  23.507   8.778  0.00  0.00    +0.033 C 
ATOM      3  C   UNL     1      35.500  23.615  10.297  0.00  0.00    +0.109 C 
ATOM      4  N   UNL     1      34.086  23.659  10.608  0.00  0.00    -0.297 N 
ATOM      5  C   UNL     1      33.616  24.265  11.767  0.00  0.00    +0.247 C 
ATOM      6  O   UNL     1      34.374  24.860  12.533  0.00  0.00    -0.270 OA
ATOM      7  C   UNL     1      33.353  22.880   9.623  0.00  0.00    +0.120 C 
ENDROOT
BRANCH   5   8
ATOM      8  C   UNL     1      32.151  24.278  12.089  0.00  0.00    +0.038 A 
ATOM      9  C   UNL     1      31.258  25.225  11.578  0.00  0.00    +0.013 A 
ATOM     10  C   UNL     1      29.932  25.266  12.007  0.00  0.00    +0.002 A 
ATOM     11  C   UNL     1      29.454  24.291  12.876  0.00  0.00    +0.015 A 
ATOM     12  C   UNL     1      30.291  23.252  13.292  0.00  0.00    +0.017 A 
ATOM     13  C   UNL     1      31.645  23.270  12.927  0.00  0.00    +0.028 A 
BRANCH  12  14
ATOM     14  S   UNL     1      29.666  21.932  14.312  0.00  0.00    -0.016 S 
BRANCH  14  15
ATOM     15  C   UNL     1      29.712  22.701  15.945  0.00  0.00    +0.448 C 
ATOM     16  F   UNL     1      30.434  23.845  15.997  0.00  0.00    -0.160 F 
ATOM     17  F   UNL     1      28.462  23.001  16.372  0.00  0.00    -0.160 F 
ATOM     18  F   UNL     1      30.251  21.853  16.856  0.00  0.00    -0.160 F 
ENDBRANCH  14  15
ENDBRANCH  12  14
ENDBRANCH   5   8
BRANCH   1  20
ATOM     19  N   UNL     1      35.123  21.294   6.714  0.00  0.00    -0.329 N 
ATOM     20  C   UNL     1      34.397  21.405   7.863  0.00  0.00    +0.215 C 
ATOM     21  O   UNL     1      33.885  20.415   8.365  0.00  0.00    -0.276 OA
ATOM     22  H   UNL     1      35.199  20.375   6.297  0.00  0.00    +0.145 HD
ATOM     23  H   UNL     1      35.507  22.086   6.219  0.00  0.00    +0.145 HD
ENDBRANCH   1  20
TORSDOF 4
ENDMDL
MODEL 6
REMARK VINA RESULT:      -6.5      4.706      7.221
REMARK  Name = ZINC000826139982
REMARK  4 active torsions:
REMARK  status: ('A' for Active; 'I' for Inactive)
REMARK    1  A    between atoms: C_2  and  C_4
REMARK    2  A    between atoms: C_8  and  C_10
REMARK    3  A    between atoms: C_14  and  S_15
REMARK    4  A    between atoms: S_15  and  C_16
REMARK                            x       y       z     vdW  Elec       q    Type
REMARK                         _______ _______ _______ _____ _____    ______ ____
ROOT
ATOM      1  C   UNL     1      33.978  24.666  11.963  0.00  0.00    +0.093 C 
ATOM      2  C   UNL     1      34.308  23.549  10.967  0.00  0.00    +0.033 C 
ATOM      3  C   UNL     1      33.271  22.462  11.221  0.00  0.00    +0.109 C 
ATOM      4  N   UNL     1      32.906  22.637  12.611  0.00  0.00    -0.297 N 
ATOM      5  C   UNL     1      32.417  21.583  13.372  0.00  0.00    +0.247 C 
ATOM      6  O   UNL     1      32.352  20.440  12.920  0.00  0.00    -0.270 OA
ATOM      7  C   UNL     1      33.009  24.045  12.961  0.00  0.00    +0.120 C 
ENDROOT
BRANCH   5   8
ATOM      8  C   UNL     1      32.017  21.787  14.804  0.00  0.00    +0.038 A 
ATOM      9  C   UNL     1      32.925  21.778  15.867  0.00  0.00    +0.013 A 
ATOM     10  C   UNL     1      32.485  21.849  17.188  0.00  0.00    +0.002 A 
ATOM     11  C   UNL     1      31.134  22.037  17.459  0.00  0.00    +0.015 A 
ATOM     12  C   UNL     1      30.223  22.189  16.410  0.00  0.00    +0.017 A 
ATOM     13  C   UNL     1      30.662  22.026  15.088  0.00  0.00    +0.028 A 
BRANCH  12  14
ATOM     14  S   UNL     1      28.509  22.543  16.738  0.00  0.00    -0.016 S 
BRANCH  14  15
ATOM     15  C   UNL     1      27.746  20.945  16.385  0.00  0.00    +0.448 C 
ATOM     16  F   UNL     1      26.444  20.864  16.745  0.00  0.00    -0.160 F 
ATOM     17  F   UNL     1      27.811  20.662  15.062  0.00  0.00    -0.160 F 
ATOM     18  F   UNL     1      28.398  19.952  17.038  0.00  0.00    -0.160 F 
ENDBRANCH  14  15
ENDBRANCH  12  14
ENDBRANCH   5   8
BRANCH   1  20
ATOM     19  N   UNL     1      32.064  25.920  11.146  0.00  0.00    -0.329 N 
ATOM     20  C   UNL     1      33.416  25.925  11.328  0.00  0.00    +0.215 C 
ATOM     21  O   UNL     1      34.086  26.868  10.937  0.00  0.00    -0.276 OA
ATOM     22  H   UNL     1      31.656  26.711  10.663  0.00  0.00    +0.145 HD
ATOM     23  H   UNL     1      31.472  25.138  11.385  0.00  0.00    +0.145 HD
ENDBRANCH   1  20
TORSDOF 4
ENDMDL
MODEL 7
REMARK VINA RESULT:      -6.4      4.828      7.657
REMARK  Name = ZINC000826139982
REMARK  4 active torsions:
REMARK  status: ('A' for Active; 'I' for Inactive)
REMARK    1  A    between atoms: C_2  and  C_4
REMARK    2  A    between atoms: C_8  and  C_10
REMARK    3  A    between atoms: C_14  and  S_15
REMARK    4  A    between atoms: S_15  and  C_16
REMARK                            x       y       z     vdW  Elec       q    Type
REMARK                         _______ _______ _______ _____ _____    ______ ____
ROOT
ATOM      1  C   UNL     1      35.588  26.140  11.634  0.00  0.00    +0.093 C 
ATOM      2  C   UNL     1      36.058  25.157  10.555  0.00  0.00    +0.033 C 
ATOM      3  C   UNL     1      34.789  24.682   9.860  0.00  0.00    +0.109 C 
ATOM      4  N   UNL     1      33.760  24.811  10.872  0.00  0.00    -0.297 N 
ATOM      5  C   UNL     1      32.613  24.028  10.846  0.00  0.00    +0.247 C 
ATOM      6  O   UNL     1      32.463  23.136  10.011  0.00  0.00    -0.270 OA
ATOM      7  C   UNL     1      34.083  25.928  11.745  0.00  0.00    +0.120 C 
ENDROOT
BRANCH   5   8
ATOM      8  C   UNL     1      31.544  24.193  11.886  0.00  0.00    +0.038 A 
ATOM      9  C   UNL     1      30.438  25.033  11.728  0.00  0.00    +0.013 A 
ATOM     10  C   UNL     1      29.541  25.243  12.774  0.00  0.00    +0.002 A 
ATOM     11  C   UNL     1      29.680  24.532  13.961  0.00  0.00    +0.015 A 
ATOM     12  C   UNL     1      30.698  23.582  14.093  0.00  0.00    +0.017 A 
ATOM     13  C   UNL     1      31.647  23.443  13.070  0.00  0.00    +0.028 A 
BRANCH  12  14
ATOM     14  S   UNL     1      30.822  22.581  15.561  0.00  0.00    -0.016 S 
BRANCH  14  15
ATOM     15  C   UNL     1      29.149  21.911  15.671  0.00  0.00    +0.448 C 
ATOM     16  F   UNL     1      28.615  21.562  14.477  0.00  0.00    -0.160 F 
ATOM     17  F   UNL     1      29.122  20.808  16.456  0.00  0.00    -0.160 F 
ATOM     18  F   UNL     1      28.309  22.818  16.229  0.00  0.00    -0.160 F 
ENDBRANCH  14  15
ENDBRANCH  12  14
ENDBRANCH   5   8
BRANCH   1  20
ATOM     19  N   UNL     1      34.894  28.458  11.426  0.00  0.00    -0.329 N 
ATOM     20  C   UNL     1      35.942  27.589  11.357  0.00  0.00    +0.215 C 
ATOM     21  O   UNL     1      37.051  27.987  11.033  0.00  0.00    -0.276 OA
ATOM     22  H   UNL     1      35.072  29.424  11.181  0.00  0.00    +0.145 HD
ATOM     23  H   UNL     1      33.944  28.173  11.619  0.00  0.00    +0.145 HD
ENDBRANCH   1  20
TORSDOF 4
ENDMDL
MODEL 8
REMARK VINA RESULT:      -6.3      5.314      7.531
REMARK  Name = ZINC000826139982
REMARK  4 active torsions:
REMARK  status: ('A' for Active; 'I' for Inactive)
REMARK    1  A    between atoms: C_2  and  C_4
REMARK    2  A    between atoms: C_8  and  C_10
REMARK    3  A    between atoms: C_14  and  S_15
REMARK    4  A    between atoms: S_15  and  C_16
REMARK                            x       y       z     vdW  Elec       q    Type
REMARK                         _______ _______ _______ _____ _____    ______ ____
ROOT
ATOM      1  C   UNL     1      33.632  21.634   8.761  0.00  0.00    +0.093 C 
ATOM      2  C   UNL     1      34.378  22.737   8.002  0.00  0.00    +0.033 C 
ATOM      3  C   UNL     1      34.619  23.840   9.024  0.00  0.00    +0.109 C 
ATOM      4  N   UNL     1      33.538  23.684   9.976  0.00  0.00    -0.297 N 
ATOM      5  C   UNL     1      33.080  24.752  10.736  0.00  0.00    +0.247 C 
ATOM      6  O   UNL     1      33.517  25.891  10.573  0.00  0.00    -0.270 OA
ATOM      7  C   UNL     1      33.176  22.278  10.064  0.00  0.00    +0.120 C 
ENDROOT
BRANCH   5   8
ATOM      8  C   UNL     1      31.979  24.568  11.738  0.00  0.00    +0.038 A 
ATOM      9  C   UNL     1      30.660  24.976  11.518  0.00  0.00    +0.013 A 
ATOM     10  C   UNL     1      29.704  24.894  12.530  0.00  0.00    +0.002 A 
ATOM     11  C   UNL     1      30.030  24.301  13.745  0.00  0.00    +0.015 A 
ATOM     12  C   UNL     1      31.304  23.759  13.941  0.00  0.00    +0.017 A 
ATOM     13  C   UNL     1      32.283  23.927  12.951  0.00  0.00    +0.028 A 
BRANCH  12  14
ATOM     14  S   UNL     1      31.703  22.896  15.446  0.00  0.00    -0.016 S 
BRANCH  14  15
ATOM     15  C   UNL     1      32.321  24.248  16.471  0.00  0.00    +0.448 C 
ATOM     16  F   UNL     1      33.392  24.891  15.949  0.00  0.00    -0.160 F 
ATOM     17  F   UNL     1      31.358  25.180  16.673  0.00  0.00    -0.160 F 
ATOM     18  F   UNL     1      32.693  23.789  17.692  0.00  0.00    -0.160 F 
ENDBRANCH  14  15
ENDBRANCH  12  14
ENDBRANCH   5   8
BRANCH   1  20
ATOM     19  N   UNL     1      35.203  19.972   7.940  0.00  0.00    -0.329 N 
ATOM     20  C   UNL     1      34.448  20.377   9.001  0.00  0.00    +0.215 C 
ATOM     21  O   UNL     1      34.415  19.709  10.023  0.00  0.00    -0.276 OA
ATOM     22  H   UNL     1      35.708  19.100   8.033  0.00  0.00    +0.145 HD
ATOM     23  H   UNL     1      35.211  20.446   7.048  0.00  0.00    +0.145 HD
ENDBRANCH   1  20
TORSDOF 4
ENDMDL
MODEL 9
REMARK VINA RESULT:      -6.3      5.500      7.075
REMARK  Name = ZINC000826139982
REMARK  4 active torsions:
REMARK  status: ('A' for Active; 'I' for Inactive)
REMARK    1  A    between atoms: C_2  and  C_4
REMARK    2  A    between atoms: C_8  and  C_10
REMARK    3  A    between atoms: C_14  and  S_15
REMARK    4  A    between atoms: S_15  and  C_16
REMARK                            x       y       z     vdW  Elec       q    Type
REMARK                         _______ _______ _______ _____ _____    ______ ____
ROOT
ATOM      1  C   UNL     1      34.409  22.225  20.181  0.00  0.00    +0.093 C 
ATOM      2  C   UNL     1      34.638  23.558  20.902  0.00  0.00    +0.033 C 
ATOM      3  C   UNL     1      33.304  24.289  20.832  0.00  0.00    +0.109 C 
ATOM      4  N   UNL     1      32.675  23.768  19.636  0.00  0.00    -0.297 N 
ATOM      5  C   UNL     1      31.732  24.505  18.930  0.00  0.00    +0.247 C 
ATOM      6  O   UNL     1      31.454  25.662  19.245  0.00  0.00    -0.270 OA
ATOM      7  C   UNL     1      33.088  22.388  19.440  0.00  0.00    +0.120 C 
ENDROOT
BRANCH   5   8
ATOM      8  C   UNL     1      31.069  23.939  17.709  0.00  0.00    +0.038 A 
ATOM      9  C   UNL     1      31.674  23.905  16.449  0.00  0.00    +0.013 A 
ATOM     10  C   UNL     1      30.967  23.482  15.324  0.00  0.00    +0.002 A 
ATOM     11  C   UNL     1      29.675  22.986  15.463  0.00  0.00    +0.015 A 
ATOM     12  C   UNL     1      29.098  22.880  16.732  0.00  0.00    +0.017 A 
ATOM     13  C   UNL     1      29.782  23.391  17.845  0.00  0.00    +0.028 A 
BRANCH  12  14
ATOM     14  S   UNL     1      27.490  22.143  16.941  0.00  0.00    -0.016 S 
BRANCH  14  15
ATOM     15  C   UNL     1      27.832  20.426  16.501  0.00  0.00    +0.448 C 
ATOM     16  F   UNL     1      26.800  19.581  16.734  0.00  0.00    -0.160 F 
ATOM     17  F   UNL     1      28.144  20.318  15.187  0.00  0.00    -0.160 F 
ATOM     18  F   UNL     1      28.893  19.956  17.202  0.00  0.00    -0.160 F 
ENDBRANCH  14  15
ENDBRANCH  12  14
ENDBRANCH   5   8
BRANCH   1  20
ATOM     19  N   UNL     1      34.777  19.844  20.496  0.00  0.00    -0.329 N 
ATOM     20  C   UNL     1      34.406  21.012  21.093  0.00  0.00    +0.215 C 
ATOM     21  O   UNL     1      34.046  21.019  22.261  0.00  0.00    -0.276 OA
ATOM     22  H   UNL     1      34.723  18.999  21.050  0.00  0.00    +0.145 HD
ATOM     23  H   UNL     1      35.015  19.769  19.517  0.00  0.00    +0.145 HD
ENDBRANCH   1  20
TORSDOF 4
ENDMDL
