MODEL 1
REMARK VINA RESULT:      -7.1      0.000      0.000
REMARK  Name = ZINC000329563636
REMARK  3 active torsions:
REMARK  status: ('A' for Active; 'I' for Inactive)
REMARK    1  A    between atoms: C_1  and  C_2
REMARK    2  A    between atoms: C_2  and  N_3
REMARK    3  A    between atoms: N_9  and  C_10
REMARK                            x       y       z     vdW  Elec       q    Type
REMARK                         _______ _______ _______ _____ _____    ______ ____
ROOT
ATOM      1  C   UNL     1      32.712  21.368  15.545  0.00  0.00    +0.112 C 
ATOM      2  C   UNL     1      32.347  19.884  15.441  0.00  0.00    +0.075 C 
ATOM      3  C   UNL     1      31.317  19.543  14.353  0.00  0.00    +0.113 C 
ATOM      4  C   UNL     1      31.910  19.343  12.935  0.00  0.00    +0.048 C 
ATOM      5  C   UNL     1      31.746  17.863  12.607  0.00  0.00    +0.004 C 
ATOM      6  C   UNL     1      30.509  17.450  13.379  0.00  0.00    +0.004 C 
ATOM      7  C   UNL     1      30.674  18.177  14.702  0.00  0.00    +0.048 C 
ATOM      8  O   UNL     1      30.252  20.512  14.303  0.00  0.00    -0.485 OA
ATOM      9  C   UNL     1      30.699  21.791  14.099  0.00  0.00    +0.126 A 
ATOM     10  C   UNL     1      29.909  22.632  13.317  0.00  0.00    +0.046 A 
ATOM     11  C   UNL     1      30.335  23.933  13.043  0.00  0.00    +0.004 A 
ATOM     12  C   UNL     1      31.539  24.398  13.566  0.00  0.00    +0.001 A 
ATOM     13  C   UNL     1      32.311  23.563  14.374  0.00  0.00    +0.009 A 
ATOM     14  C   UNL     1      31.895  22.249  14.646  0.00  0.00    +0.015 A 
ENDROOT
BRANCH   1  21
ATOM     15  N   UNL     1      32.817  24.554  20.971  0.00  0.00    -0.299 N 
ATOM     16  C   UNL     1      34.108  24.473  20.288  0.00  0.00    +0.127 C 
ATOM     17  C   UNL     1      34.428  23.055  19.825  0.00  0.00    +0.129 C 
ATOM     18  N   UNL     1      33.345  22.580  18.976  0.00  0.00    -0.275 N 
ATOM     19  C   UNL     1      33.620  22.219  17.677  0.00  0.00    +0.303 C 
ATOM     20  O   UNL     1      34.753  22.276  17.201  0.00  0.00    -0.253 OA
ATOM     21  N   UNL     1      32.552  21.822  16.926  0.00  0.00    -0.292 N 
ATOM     22  C   UNL     1      32.026  22.590  19.616  0.00  0.00    +0.205 C 
ATOM     23  C   UNL     1      31.796  23.646  20.717  0.00  0.00    +0.233 C 
ATOM     24  O   UNL     1      30.726  23.673  21.329  0.00  0.00    -0.274 OA
ATOM     25  H   UNL     1      31.750  21.448  17.405  0.00  0.00    +0.151 HD
BRANCH  15  27
ATOM     26  C   UNL     1      33.322  25.577  23.161  0.00  0.00    +0.024 C 
ATOM     27  C   UNL     1      32.570  25.694  21.847  0.00  0.00    +0.104 C 
ENDBRANCH  15  27
ENDBRANCH   1  21
TORSDOF 2
ENDMDL
MODEL 2
REMARK VINA RESULT:      -6.9      3.426      7.634
REMARK  Name = ZINC000329563636
REMARK  3 active torsions:
REMARK  status: ('A' for Active; 'I' for Inactive)
REMARK    1  A    between atoms: C_1  and  C_2
REMARK    2  A    between atoms: C_2  and  N_3
REMARK    3  A    between atoms: N_9  and  C_10
REMARK                            x       y       z     vdW  Elec       q    Type
REMARK                         _______ _______ _______ _____ _____    ______ ____
ROOT
ATOM      1  C   UNL     1      32.273  22.515  16.404  0.00  0.00    +0.112 C 
ATOM      2  C   UNL     1      32.859  23.331  17.560  0.00  0.00    +0.075 C 
ATOM      3  C   UNL     1      31.841  23.776  18.621  0.00  0.00    +0.113 C 
ATOM      4  C   UNL     1      31.539  22.720  19.716  0.00  0.00    +0.048 C 
ATOM      5  C   UNL     1      32.121  23.270  21.014  0.00  0.00    +0.004 C 
ATOM      6  C   UNL     1      32.039  24.774  20.846  0.00  0.00    +0.004 C 
ATOM      7  C   UNL     1      32.440  24.978  19.396  0.00  0.00    +0.048 C 
ATOM      8  O   UNL     1      30.610  24.225  18.026  0.00  0.00    -0.485 OA
ATOM      9  C   UNL     1      30.023  23.280  17.226  0.00  0.00    +0.126 A 
ATOM     10  C   UNL     1      28.631  23.219  17.213  0.00  0.00    +0.046 A 
ATOM     11  C   UNL     1      27.982  22.250  16.448  0.00  0.00    +0.004 A 
ATOM     12  C   UNL     1      28.723  21.355  15.680  0.00  0.00    +0.001 A 
ATOM     13  C   UNL     1      30.115  21.440  15.670  0.00  0.00    +0.009 A 
ATOM     14  C   UNL     1      30.777  22.406  16.447  0.00  0.00    +0.015 A 
ENDROOT
BRANCH   1  21
ATOM     15  N   UNL     1      33.195  23.864  10.327  0.00  0.00    -0.299 N 
ATOM     16  C   UNL     1      33.452  22.470  10.685  0.00  0.00    +0.127 C 
ATOM     17  C   UNL     1      34.311  22.345  11.940  0.00  0.00    +0.129 C 
ATOM     18  N   UNL     1      33.667  23.067  13.028  0.00  0.00    -0.275 N 
ATOM     19  C   UNL     1      33.306  22.381  14.165  0.00  0.00    +0.303 C 
ATOM     20  O   UNL     1      33.512  21.176  14.304  0.00  0.00    -0.253 OA
ATOM     21  N   UNL     1      32.669  23.110  15.128  0.00  0.00    -0.292 N 
ATOM     22  C   UNL     1      33.422  24.485  12.752  0.00  0.00    +0.205 C 
ATOM     23  C   UNL     1      33.212  24.880  11.275  0.00  0.00    +0.233 C 
ATOM     24  O   UNL     1      33.053  26.065  10.972  0.00  0.00    -0.274 OA
ATOM     25  H   UNL     1      32.832  24.102  15.155  0.00  0.00    +0.151 HD
BRANCH  15  27
ATOM     26  C   UNL     1      32.795  22.921   8.079  0.00  0.00    +0.024 C 
ATOM     27  C   UNL     1      32.793  24.161   8.956  0.00  0.00    +0.104 C 
ENDBRANCH  15  27
ENDBRANCH   1  21
TORSDOF 2
ENDMDL
MODEL 3
REMARK VINA RESULT:      -6.5      4.237      8.364
REMARK  Name = ZINC000329563636
REMARK  3 active torsions:
REMARK  status: ('A' for Active; 'I' for Inactive)
REMARK    1  A    between atoms: C_1  and  C_2
REMARK    2  A    between atoms: C_2  and  N_3
REMARK    3  A    between atoms: N_9  and  C_10
REMARK                            x       y       z     vdW  Elec       q    Type
REMARK                         _______ _______ _______ _____ _____    ______ ____
ROOT
ATOM      1  C   UNL     1      32.643  22.980  14.444  0.00  0.00    +0.112 C 
ATOM      2  C   UNL     1      31.306  23.501  14.981  0.00  0.00    +0.075 C 
ATOM      3  C   UNL     1      30.682  22.653  16.100  0.00  0.00    +0.113 C 
ATOM      4  C   UNL     1      31.205  22.969  17.524  0.00  0.00    +0.048 C 
ATOM      5  C   UNL     1      30.043  23.605  18.277  0.00  0.00    +0.004 C 
ATOM      6  C   UNL     1      28.812  22.992  17.641  0.00  0.00    +0.004 C 
ATOM      7  C   UNL     1      29.166  22.972  16.164  0.00  0.00    +0.048 C 
ATOM      8  O   UNL     1      30.808  21.243  15.836  0.00  0.00    -0.485 OA
ATOM      9  C   UNL     1      32.106  20.844  15.656  0.00  0.00    +0.126 A 
ATOM     10  C   UNL     1      32.465  19.585  16.134  0.00  0.00    +0.046 A 
ATOM     11  C   UNL     1      33.784  19.143  16.014  0.00  0.00    +0.004 A 
ATOM     12  C   UNL     1      34.737  19.952  15.400  0.00  0.00    +0.001 A 
ATOM     13  C   UNL     1      34.366  21.198  14.895  0.00  0.00    +0.009 A 
ATOM     14  C   UNL     1      33.043  21.654  15.021  0.00  0.00    +0.015 A 
ENDROOT
BRANCH   1  21
ATOM     15  N   UNL     1      33.924  22.460   8.305  0.00  0.00    -0.299 N 
ATOM     16  C   UNL     1      34.703  23.481   9.004  0.00  0.00    +0.127 C 
ATOM     17  C   UNL     1      33.831  24.368   9.887  0.00  0.00    +0.129 C 
ATOM     18  N   UNL     1      33.093  23.528  10.819  0.00  0.00    -0.275 N 
ATOM     19  C   UNL     1      33.271  23.712  12.171  0.00  0.00    +0.303 C 
ATOM     20  O   UNL     1      34.029  24.567  12.628  0.00  0.00    -0.253 OA
ATOM     21  N   UNL     1      32.580  22.864  12.987  0.00  0.00    -0.292 N 
ATOM     22  C   UNL     1      32.252  22.511  10.182  0.00  0.00    +0.205 C 
ATOM     23  C   UNL     1      32.715  21.989   8.806  0.00  0.00    +0.233 C 
ATOM     24  O   UNL     1      32.025  21.170   8.195  0.00  0.00    -0.274 OA
ATOM     25  H   UNL     1      31.737  22.447  12.631  0.00  0.00    +0.151 HD
BRANCH  15  27
ATOM     26  C   UNL     1      35.382  22.810   6.343  0.00  0.00    +0.024 C 
ATOM     27  C   UNL     1      34.503  21.843   7.116  0.00  0.00    +0.104 C 
ENDBRANCH  15  27
ENDBRANCH   1  21
TORSDOF 2
ENDMDL
MODEL 4
REMARK VINA RESULT:      -6.5     13.668     15.692
REMARK  Name = ZINC000329563636
REMARK  3 active torsions:
REMARK  status: ('A' for Active; 'I' for Inactive)
REMARK    1  A    between atoms: C_1  and  C_2
REMARK    2  A    between atoms: C_2  and  N_3
REMARK    3  A    between atoms: N_9  and  C_10
REMARK                            x       y       z     vdW  Elec       q    Type
REMARK                         _______ _______ _______ _____ _____    ______ ____
ROOT
ATOM      1  C   UNL     1      19.779  27.150  18.817  0.00  0.00    +0.112 C 
ATOM      2  C   UNL     1      20.612  27.279  20.096  0.00  0.00    +0.075 C 
ATOM      3  C   UNL     1      21.884  26.418  20.131  0.00  0.00    +0.113 C 
ATOM      4  C   UNL     1      23.119  27.054  19.441  0.00  0.00    +0.048 C 
ATOM      5  C   UNL     1      24.113  27.373  20.552  0.00  0.00    +0.004 C 
ATOM      6  C   UNL     1      23.830  26.328  21.612  0.00  0.00    +0.004 C 
ATOM      7  C   UNL     1      22.313  26.244  21.610  0.00  0.00    +0.048 C 
ATOM      8  O   UNL     1      21.653  25.101  19.597  0.00  0.00    -0.485 OA
ATOM      9  C   UNL     1      21.171  25.117  18.315  0.00  0.00    +0.126 A 
ATOM     10  C   UNL     1      21.592  24.105  17.455  0.00  0.00    +0.046 A 
ATOM     11  C   UNL     1      21.164  24.095  16.127  0.00  0.00    +0.004 A 
ATOM     12  C   UNL     1      20.299  25.085  15.665  0.00  0.00    +0.001 A 
ATOM     13  C   UNL     1      19.855  26.077  16.538  0.00  0.00    +0.009 A 
ATOM     14  C   UNL     1      20.290  26.100  17.874  0.00  0.00    +0.015 A 
ENDROOT
BRANCH   1  21
ATOM     15  N   UNL     1      13.537  26.350  18.846  0.00  0.00    -0.299 N 
ATOM     16  C   UNL     1      13.981  27.648  18.340  0.00  0.00    +0.127 C 
ATOM     17  C   UNL     1      15.024  28.295  19.247  0.00  0.00    +0.129 C 
ATOM     18  N   UNL     1      16.141  27.376  19.413  0.00  0.00    -0.275 N 
ATOM     19  C   UNL     1      17.397  27.770  19.013  0.00  0.00    +0.303 C 
ATOM     20  O   UNL     1      17.618  28.877  18.523  0.00  0.00    -0.253 OA
ATOM     21  N   UNL     1      18.390  26.845  19.159  0.00  0.00    -0.292 N 
ATOM     22  C   UNL     1      15.772  26.068  19.962  0.00  0.00    +0.205 C 
ATOM     23  C   UNL     1      14.343  25.568  19.666  0.00  0.00    +0.233 C 
ATOM     24  O   UNL     1      13.954  24.499  20.142  0.00  0.00    -0.274 OA
ATOM     25  H   UNL     1      18.273  26.132  19.859  0.00  0.00    +0.151 HD
BRANCH  15  27
ATOM     26  C   UNL     1      12.344  25.354  16.926  0.00  0.00    +0.024 C 
ATOM     27  C   UNL     1      12.263  25.822  18.369  0.00  0.00    +0.104 C 
ENDBRANCH  15  27
ENDBRANCH   1  21
TORSDOF 2
ENDMDL
MODEL 5
REMARK VINA RESULT:      -6.4     22.597     25.093
REMARK  Name = ZINC000329563636
REMARK  3 active torsions:
REMARK  status: ('A' for Active; 'I' for Inactive)
REMARK    1  A    between atoms: C_1  and  C_2
REMARK    2  A    between atoms: C_2  and  N_3
REMARK    3  A    between atoms: N_9  and  C_10
REMARK                            x       y       z     vdW  Elec       q    Type
REMARK                         _______ _______ _______ _____ _____    ______ ____
ROOT
ATOM      1  C   UNL     1      20.309  10.388   0.128  0.00  0.00    +0.112 C 
ATOM      2  C   UNL     1      19.947  10.938  -1.255  0.00  0.00    +0.075 C 
ATOM      3  C   UNL     1      18.761  11.914  -1.275  0.00  0.00    +0.113 C 
ATOM      4  C   UNL     1      19.123  13.386  -0.950  0.00  0.00    +0.048 C 
ATOM      5  C   UNL     1      18.924  14.172  -2.241  0.00  0.00    +0.004 C 
ATOM      6  C   UNL     1      17.829  13.416  -2.967  0.00  0.00    +0.004 C 
ATOM      7  C   UNL     1      18.196  11.963  -2.718  0.00  0.00    +0.048 C 
ATOM      8  O   UNL     1      17.692  11.474  -0.416  0.00  0.00    -0.485 OA
ATOM      9  C   UNL     1      18.088  11.292   0.883  0.00  0.00    +0.126 A 
ATOM     10  C   UNL     1      17.175  11.614   1.886  0.00  0.00    +0.046 A 
ATOM     11  C   UNL     1      17.539  11.487   3.227  0.00  0.00    +0.004 A 
ATOM     12  C   UNL     1      18.807  11.018   3.565  0.00  0.00    +0.001 A 
ATOM     13  C   UNL     1      19.705  10.667   2.558  0.00  0.00    +0.009 A 
ATOM     14  C   UNL     1      19.351  10.802   1.206  0.00  0.00    +0.015 A 
ENDROOT
BRANCH   1  21
ATOM     15  N   UNL     1      20.880   4.259   1.437  0.00  0.00    -0.299 N 
ATOM     16  C   UNL     1      21.958   5.096   1.963  0.00  0.00    +0.127 C 
ATOM     17  C   UNL     1      22.500   6.065   0.917  0.00  0.00    +0.129 C 
ATOM     18  N   UNL     1      21.401   6.870   0.404  0.00  0.00    -0.275 N 
ATOM     19  C   UNL     1      21.448   8.238   0.547  0.00  0.00    +0.303 C 
ATOM     20  O   UNL     1      22.391   8.813   1.089  0.00  0.00    -0.253 OA
ATOM     21  N   UNL     1      20.367   8.927   0.080  0.00  0.00    -0.292 N 
ATOM     22  C   UNL     1      20.305   6.094  -0.183  0.00  0.00    +0.205 C 
ATOM     23  C   UNL     1      20.083   4.672   0.375  0.00  0.00    +0.233 C 
ATOM     24  O   UNL     1      19.210   3.950  -0.111  0.00  0.00    -0.274 OA
ATOM     25  H   UNL     1      19.814   8.504  -0.646  0.00  0.00    +0.151 HD
BRANCH  15  27
ATOM     26  C   UNL     1      21.486   1.880   1.707  0.00  0.00    +0.024 C 
ATOM     27  C   UNL     1      20.570   3.014   2.132  0.00  0.00    +0.104 C 
ENDBRANCH  15  27
ENDBRANCH   1  21
TORSDOF 2
ENDMDL
MODEL 6
REMARK VINA RESULT:      -6.3      2.306      4.234
REMARK  Name = ZINC000329563636
REMARK  3 active torsions:
REMARK  status: ('A' for Active; 'I' for Inactive)
REMARK    1  A    between atoms: C_1  and  C_2
REMARK    2  A    between atoms: C_2  and  N_3
REMARK    3  A    between atoms: N_9  and  C_10
REMARK                            x       y       z     vdW  Elec       q    Type
REMARK                         _______ _______ _______ _____ _____    ______ ____
ROOT
ATOM      1  C   UNL     1      31.554  21.348  13.551  0.00  0.00    +0.112 C 
ATOM      2  C   UNL     1      32.611  21.863  12.569  0.00  0.00    +0.075 C 
ATOM      3  C   UNL     1      33.307  20.775  11.737  0.00  0.00    +0.113 C 
ATOM      4  C   UNL     1      32.543  20.345  10.458  0.00  0.00    +0.048 C 
ATOM      5  C   UNL     1      33.374  20.834   9.277  0.00  0.00    +0.004 C 
ATOM      6  C   UNL     1      34.798  20.819   9.797  0.00  0.00    +0.004 C 
ATOM      7  C   UNL     1      34.649  21.348  11.213  0.00  0.00    +0.048 C 
ATOM      8  O   UNL     1      33.622  19.615  12.530  0.00  0.00    -0.485 OA
ATOM      9  C   UNL     1      32.524  19.065  13.137  0.00  0.00    +0.126 A 
ATOM     10  C   UNL     1      32.482  17.678  13.261  0.00  0.00    +0.046 A 
ATOM     11  C   UNL     1      31.369  17.062  13.835  0.00  0.00    +0.004 A 
ATOM     12  C   UNL     1      30.309  17.833  14.304  0.00  0.00    +0.001 A 
ATOM     13  C   UNL     1      30.369  19.223  14.207  0.00  0.00    +0.009 A 
ATOM     14  C   UNL     1      31.480  19.851  13.620  0.00  0.00    +0.015 A 
ENDROOT
BRANCH   1  21
ATOM     15  N   UNL     1      31.347  22.957  19.632  0.00  0.00    -0.299 N 
ATOM     16  C   UNL     1      30.120  23.235  18.888  0.00  0.00    +0.127 C 
ATOM     17  C   UNL     1      30.395  23.935  17.561  0.00  0.00    +0.129 C 
ATOM     18  N   UNL     1      31.320  23.125  16.782  0.00  0.00    -0.275 N 
ATOM     19  C   UNL     1      30.927  22.659  15.548  0.00  0.00    +0.303 C 
ATOM     20  O   UNL     1      29.820  22.905  15.070  0.00  0.00    -0.253 OA
ATOM     21  N   UNL     1      31.827  21.871  14.890  0.00  0.00    -0.292 N 
ATOM     22  C   UNL     1      32.594  22.847  17.451  0.00  0.00    +0.205 C 
ATOM     23  C   UNL     1      32.573  22.805  18.994  0.00  0.00    +0.233 C 
ATOM     24  O   UNL     1      33.622  22.627  19.618  0.00  0.00    -0.274 OA
ATOM     25  H   UNL     1      32.803  21.980  15.112  0.00  0.00    +0.151 HD
BRANCH  15  27
ATOM     26  C   UNL     1      31.522  23.970  21.878  0.00  0.00    +0.024 C 
ATOM     27  C   UNL     1      31.245  22.715  21.067  0.00  0.00    +0.104 C 
ENDBRANCH  15  27
ENDBRANCH   1  21
TORSDOF 2
ENDMDL
MODEL 7
REMARK VINA RESULT:      -6.2      1.719      3.698
REMARK  Name = ZINC000329563636
REMARK  3 active torsions:
REMARK  status: ('A' for Active; 'I' for Inactive)
REMARK    1  A    between atoms: C_1  and  C_2
REMARK    2  A    between atoms: C_2  and  N_3
REMARK    3  A    between atoms: N_9  and  C_10
REMARK                            x       y       z     vdW  Elec       q    Type
REMARK                         _______ _______ _______ _____ _____    ______ ____
ROOT
ATOM      1  C   UNL     1      30.453  23.127  14.736  0.00  0.00    +0.112 C 
ATOM      2  C   UNL     1      31.326  24.155  14.009  0.00  0.00    +0.075 C 
ATOM      3  C   UNL     1      32.163  23.591  12.850  0.00  0.00    +0.113 C 
ATOM      4  C   UNL     1      31.415  23.490  11.496  0.00  0.00    +0.048 C 
ATOM      5  C   UNL     1      32.059  24.518  10.573  0.00  0.00    +0.004 C 
ATOM      6  C   UNL     1      33.490  24.610  11.065  0.00  0.00    +0.004 C 
ATOM      7  C   UNL     1      33.334  24.569  12.575  0.00  0.00    +0.048 C 
ATOM      8  O   UNL     1      32.745  22.316  13.182  0.00  0.00    -0.485 OA
ATOM      9  C   UNL     1      31.814  21.379  13.546  0.00  0.00    +0.126 A 
ATOM     10  C   UNL     1      32.047  20.058  13.168  0.00  0.00    +0.046 A 
ATOM     11  C   UNL     1      31.113  19.069  13.477  0.00  0.00    +0.004 A 
ATOM     12  C   UNL     1      29.956  19.397  14.180  0.00  0.00    +0.001 A 
ATOM     13  C   UNL     1      29.742  20.714  14.584  0.00  0.00    +0.009 A 
ATOM     14  C   UNL     1      30.673  21.718  14.267  0.00  0.00    +0.015 A 
ENDROOT
BRANCH   1  21
ATOM     15  N   UNL     1      32.357  24.673  20.531  0.00  0.00    -0.299 N 
ATOM     16  C   UNL     1      33.415  24.683  19.522  0.00  0.00    +0.127 C 
ATOM     17  C   UNL     1      33.397  23.427  18.655  0.00  0.00    +0.129 C 
ATOM     18  N   UNL     1      32.080  23.291  18.048  0.00  0.00    -0.275 N 
ATOM     19  C   UNL     1      31.973  23.282  16.676  0.00  0.00    +0.303 C 
ATOM     20  O   UNL     1      32.950  23.380  15.936  0.00  0.00    -0.253 OA
ATOM     21  N   UNL     1      30.706  23.193  16.175  0.00  0.00    -0.292 N 
ATOM     22  C   UNL     1      30.975  23.227  19.008  0.00  0.00    +0.205 C 
ATOM     23  C   UNL     1      31.181  23.953  20.354  0.00  0.00    +0.233 C 
ATOM     24  O   UNL     1      30.309  23.894  21.225  0.00  0.00    -0.274 OA
ATOM     25  H   UNL     1      29.999  22.766  16.750  0.00  0.00    +0.151 HD
BRANCH  15  27
ATOM     26  C   UNL     1      33.328  24.892  22.792  0.00  0.00    +0.024 C 
ATOM     27  C   UNL     1      32.504  25.542  21.694  0.00  0.00    +0.104 C 
ENDBRANCH  15  27
ENDBRANCH   1  21
TORSDOF 2
ENDMDL
MODEL 8
REMARK VINA RESULT:      -6.2      6.391      8.464
REMARK  Name = ZINC000329563636
REMARK  3 active torsions:
REMARK  status: ('A' for Active; 'I' for Inactive)
REMARK    1  A    between atoms: C_1  and  C_2
REMARK    2  A    between atoms: C_2  and  N_3
REMARK    3  A    between atoms: N_9  and  C_10
REMARK                            x       y       z     vdW  Elec       q    Type
REMARK                         _______ _______ _______ _____ _____    ______ ____
ROOT
ATOM      1  C   UNL     1      34.354  24.435  11.900  0.00  0.00    +0.112 C 
ATOM      2  C   UNL     1      33.167  24.351  12.864  0.00  0.00    +0.075 C 
ATOM      3  C   UNL     1      31.968  23.542  12.347  0.00  0.00    +0.113 C 
ATOM      4  C   UNL     1      32.069  22.011  12.575  0.00  0.00    +0.048 C 
ATOM      5  C   UNL     1      31.003  21.660  13.607  0.00  0.00    +0.004 C 
ATOM      6  C   UNL     1      29.919  22.696  13.384  0.00  0.00    +0.004 C 
ATOM      7  C   UNL     1      30.710  23.970  13.145  0.00  0.00    +0.048 C 
ATOM      8  O   UNL     1      31.700  23.810  10.957  0.00  0.00    -0.485 OA
ATOM      9  C   UNL     1      32.776  23.565  10.146  0.00  0.00    +0.126 A 
ATOM     10  C   UNL     1      32.522  23.052   8.876  0.00  0.00    +0.046 A 
ATOM     11  C   UNL     1      33.583  22.746   8.022  0.00  0.00    +0.004 A 
ATOM     12  C   UNL     1      34.895  22.972   8.430  0.00  0.00    +0.001 A 
ATOM     13  C   UNL     1      35.144  23.516   9.690  0.00  0.00    +0.009 A 
ATOM     14  C   UNL     1      34.082  23.817  10.560  0.00  0.00    +0.015 A 
ENDROOT
BRANCH   1  21
ATOM     15  N   UNL     1      37.274  29.815  10.438  0.00  0.00    -0.299 N 
ATOM     16  C   UNL     1      38.119  28.828  11.108  0.00  0.00    +0.127 C 
ATOM     17  C   UNL     1      37.442  28.228  12.337  0.00  0.00    +0.129 C 
ATOM     18  N   UNL     1      36.164  27.656  11.940  0.00  0.00    -0.275 N 
ATOM     19  C   UNL     1      35.941  26.312  12.140  0.00  0.00    +0.303 C 
ATOM     20  O   UNL     1      36.781  25.571  12.648  0.00  0.00    -0.253 OA
ATOM     21  N   UNL     1      34.738  25.834  11.707  0.00  0.00    -0.292 N 
ATOM     22  C   UNL     1      35.247  28.605  11.303  0.00  0.00    +0.205 C 
ATOM     23  C   UNL     1      35.887  29.780  10.535  0.00  0.00    +0.233 C 
ATOM     24  O   UNL     1      35.170  30.641  10.020  0.00  0.00    -0.274 OA
ATOM     25  H   UNL     1      33.968  26.479  11.640  0.00  0.00    +0.151 HD
BRANCH  15  27
ATOM     26  C   UNL     1      38.599  31.896  10.321  0.00  0.00    +0.024 C 
ATOM     27  C   UNL     1      37.912  30.782   9.551  0.00  0.00    +0.104 C 
ENDBRANCH  15  27
ENDBRANCH   1  21
TORSDOF 2
ENDMDL
MODEL 9
REMARK VINA RESULT:      -6.2      3.733      6.593
REMARK  Name = ZINC000329563636
REMARK  3 active torsions:
REMARK  status: ('A' for Active; 'I' for Inactive)
REMARK    1  A    between atoms: C_1  and  C_2
REMARK    2  A    between atoms: C_2  and  N_3
REMARK    3  A    between atoms: N_9  and  C_10
REMARK                            x       y       z     vdW  Elec       q    Type
REMARK                         _______ _______ _______ _____ _____    ______ ____
ROOT
ATOM      1  C   UNL     1      31.868  22.184  13.714  0.00  0.00    +0.112 C 
ATOM      2  C   UNL     1      31.954  20.839  12.985  0.00  0.00    +0.075 C 
ATOM      3  C   UNL     1      32.075  19.612  13.901  0.00  0.00    +0.113 C 
ATOM      4  C   UNL     1      30.728  19.065  14.438  0.00  0.00    +0.048 C 
ATOM      5  C   UNL     1      30.520  17.709  13.772  0.00  0.00    +0.004 C 
ATOM      6  C   UNL     1      31.926  17.198  13.530  0.00  0.00    +0.004 C 
ATOM      7  C   UNL     1      32.666  18.443  13.072  0.00  0.00    +0.048 C 
ATOM      8  O   UNL     1      32.976  19.851  14.999  0.00  0.00    -0.485 OA
ATOM      9  C   UNL     1      32.620  20.933  15.761  0.00  0.00    +0.126 A 
ATOM     10  C   UNL     1      32.848  20.857  17.133  0.00  0.00    +0.046 A 
ATOM     11  C   UNL     1      32.467  21.913  17.963  0.00  0.00    +0.004 A 
ATOM     12  C   UNL     1      31.878  23.051  17.418  0.00  0.00    +0.001 A 
ATOM     13  C   UNL     1      31.680  23.135  16.039  0.00  0.00    +0.009 A 
ATOM     14  C   UNL     1      32.050  22.072  15.199  0.00  0.00    +0.015 A 
ENDROOT
BRANCH   1  21
ATOM     15  N   UNL     1      35.128  27.204  11.772  0.00  0.00    -0.299 N 
ATOM     16  C   UNL     1      33.742  27.165  11.309  0.00  0.00    +0.127 C 
ATOM     17  C   UNL     1      33.361  25.799  10.745  0.00  0.00    +0.129 C 
ATOM     18  N   UNL     1      33.616  24.782  11.754  0.00  0.00    -0.275 N 
ATOM     19  C   UNL     1      32.572  24.007  12.204  0.00  0.00    +0.303 C 
ATOM     20  O   UNL     1      31.424  24.135  11.782  0.00  0.00    -0.253 OA
ATOM     21  N   UNL     1      32.874  23.102  13.180  0.00  0.00    -0.292 N 
ATOM     22  C   UNL     1      35.002  24.735  12.229  0.00  0.00    +0.205 C 
ATOM     23  C   UNL     1      35.797  26.057  12.184  0.00  0.00    +0.233 C 
ATOM     24  O   UNL     1      36.983  26.073  12.521  0.00  0.00    -0.274 OA
ATOM     25  H   UNL     1      33.823  22.773  13.243  0.00  0.00    +0.151 HD
BRANCH  15  27
ATOM     26  C   UNL     1      35.840  29.254  10.593  0.00  0.00    +0.024 C 
ATOM     27  C   UNL     1      35.772  28.506  11.913  0.00  0.00    +0.104 C 
ENDBRANCH  15  27
ENDBRANCH   1  21
TORSDOF 2
ENDMDL
