MODEL 1
REMARK VINA RESULT:      -6.5      0.000      0.000
REMARK  Name = ZINC000543478179
REMARK  8 active torsions:
REMARK  status: ('A' for Active; 'I' for Inactive)
REMARK    1  A    between atoms: C_1  and  C_2
REMARK    2  A    between atoms: C_2  and  N_3
REMARK    3  A    between atoms: N_9  and  C_10
REMARK    4  A    between atoms: C_10  and  C_11
REMARK    5  A    between atoms: C_10  and  C_12
REMARK    6  A    between atoms: C_15  and  O_16
REMARK    7  A    between atoms: O_16  and  C_17
REMARK    8  A    between atoms: C_17  and  C_18
REMARK                            x       y       z     vdW  Elec       q    Type
REMARK                         _______ _______ _______ _____ _____    ______ ____
ROOT
ATOM      1  C   UNL     1      30.478  22.699  15.094  0.00  0.00    +0.102 C 
ATOM      2  C   UNL     1      30.667  21.176  15.070  0.00  0.00    +0.033 C 
ENDROOT
BRANCH   1   9
ATOM      3  N   UNL     1      31.765  24.799  20.993  0.00  0.00    -0.299 N 
ATOM      4  C   UNL     1      30.519  24.037  20.892  0.00  0.00    +0.127 C 
ATOM      5  C   UNL     1      29.691  24.455  19.672  0.00  0.00    +0.129 C 
ATOM      6  N   UNL     1      30.486  24.263  18.463  0.00  0.00    -0.275 N 
ATOM      7  C   UNL     1      29.973  23.528  17.404  0.00  0.00    +0.303 C 
ATOM      8  O   UNL     1      28.845  23.051  17.405  0.00  0.00    -0.253 OA
ATOM      9  N   UNL     1      30.845  23.343  16.359  0.00  0.00    -0.293 N 
ATOM     10  C   UNL     1      31.815  24.876  18.497  0.00  0.00    +0.205 C 
ATOM     11  C   UNL     1      32.362  25.343  19.859  0.00  0.00    +0.233 C 
ATOM     12  O   UNL     1      33.368  26.052  19.916  0.00  0.00    -0.274 OA
ATOM     13  H   UNL     1      31.520  24.079  16.248  0.00  0.00    +0.151 HD
BRANCH   3  15
ATOM     14  C   UNL     1      31.895  23.786  23.243  0.00  0.00    +0.024 C 
ATOM     15  C   UNL     1      32.563  24.688  22.213  0.00  0.00    +0.104 C 
ENDBRANCH   3  15
ENDBRANCH   1   9
BRANCH   1  16
ATOM     16  C   UNL     1      31.315  23.338  13.992  0.00  0.00    -0.024 A 
ATOM     17  C   UNL     1      32.642  22.915  13.792  0.00  0.00    +0.009 A 
ATOM     18  C   UNL     1      33.462  23.534  12.852  0.00  0.00    +0.049 A 
ATOM     19  C   UNL     1      32.990  24.624  12.121  0.00  0.00    +0.156 A 
ATOM     20  C   UNL     1      31.655  25.009  12.266  0.00  0.00    +0.165 A 
ATOM     21  F   UNL     1      31.159  26.023  11.542  0.00  0.00    -0.202 F 
ATOM     22  C   UNL     1      30.819  24.378  13.195  0.00  0.00    +0.047 A 
BRANCH  19  23
ATOM     23  O   UNL     1      33.774  25.363  11.275  0.00  0.00    -0.489 OA
BRANCH  23  24
ATOM     24  C   UNL     1      34.568  26.362  11.923  0.00  0.00    +0.232 C 
BRANCH  24  25
ATOM     25  C   UNL     1      34.079  27.712  11.513  0.00  0.00    +0.027 C 
ATOM     26  C   UNL     1      34.646  28.952  12.155  0.00  0.00    +0.007 C 
ATOM     27  C   UNL     1      33.227  28.541  12.443  0.00  0.00    +0.007 C 
ENDBRANCH  24  25
ENDBRANCH  23  24
ENDBRANCH  19  23
ENDBRANCH   1  16
TORSDOF 6
ENDMDL
MODEL 2
REMARK VINA RESULT:      -6.4      4.009      9.333
REMARK  Name = ZINC000543478179
REMARK  8 active torsions:
REMARK  status: ('A' for Active; 'I' for Inactive)
REMARK    1  A    between atoms: C_1  and  C_2
REMARK    2  A    between atoms: C_2  and  N_3
REMARK    3  A    between atoms: N_9  and  C_10
REMARK    4  A    between atoms: C_10  and  C_11
REMARK    5  A    between atoms: C_10  and  C_12
REMARK    6  A    between atoms: C_15  and  O_16
REMARK    7  A    between atoms: O_16  and  C_17
REMARK    8  A    between atoms: C_17  and  C_18
REMARK                            x       y       z     vdW  Elec       q    Type
REMARK                         _______ _______ _______ _____ _____    ______ ____
ROOT
ATOM      1  C   UNL     1      32.403  25.119  13.893  0.00  0.00    +0.102 C 
ATOM      2  C   UNL     1      33.441  25.850  14.756  0.00  0.00    +0.033 C 
ENDROOT
BRANCH   1   9
ATOM      3  N   UNL     1      35.075  22.694   8.617  0.00  0.00    -0.299 N 
ATOM      4  C   UNL     1      34.403  23.977   8.407  0.00  0.00    +0.127 C 
ATOM      5  C   UNL     1      33.033  24.024   9.091  0.00  0.00    +0.129 C 
ATOM      6  N   UNL     1      33.201  23.783  10.521  0.00  0.00    -0.275 N 
ATOM      7  C   UNL     1      32.662  24.671  11.442  0.00  0.00    +0.303 C 
ATOM      8  O   UNL     1      32.000  25.648  11.121  0.00  0.00    -0.253 OA
ATOM      9  N   UNL     1      32.960  24.387  12.753  0.00  0.00    -0.293 N 
ATOM     10  C   UNL     1      33.975  22.587  10.857  0.00  0.00    +0.205 C 
ATOM     11  C   UNL     1      34.794  21.917   9.737  0.00  0.00    +0.233 C 
ATOM     12  O   UNL     1      35.283  20.800   9.908  0.00  0.00    -0.274 OA
ATOM     13  H   UNL     1      33.106  23.410  12.941  0.00  0.00    +0.151 HD
BRANCH   3  15
ATOM     14  C   UNL     1      35.964  21.686   6.544  0.00  0.00    +0.024 C 
ATOM     15  C   UNL     1      36.285  22.398   7.852  0.00  0.00    +0.104 C 
ENDBRANCH   3  15
ENDBRANCH   1   9
BRANCH   1  16
ATOM     16  C   UNL     1      31.633  24.122  14.751  0.00  0.00    -0.024 A 
ATOM     17  C   UNL     1      30.762  23.202  14.136  0.00  0.00    +0.009 A 
ATOM     18  C   UNL     1      29.980  22.334  14.892  0.00  0.00    +0.049 A 
ATOM     19  C   UNL     1      30.012  22.396  16.285  0.00  0.00    +0.156 A 
ATOM     20  C   UNL     1      30.920  23.260  16.903  0.00  0.00    +0.165 A 
ATOM     21  F   UNL     1      31.008  23.307  18.241  0.00  0.00    -0.202 F 
ATOM     22  C   UNL     1      31.724  24.121  16.149  0.00  0.00    +0.047 A 
BRANCH  19  23
ATOM     23  O   UNL     1      29.181  21.667  17.095  0.00  0.00    -0.489 OA
BRANCH  23  24
ATOM     24  C   UNL     1      27.866  22.212  17.237  0.00  0.00    +0.232 C 
BRANCH  24  25
ATOM     25  C   UNL     1      27.249  21.671  18.485  0.00  0.00    +0.027 C 
ATOM     26  C   UNL     1      25.889  22.145  18.927  0.00  0.00    +0.007 C 
ATOM     27  C   UNL     1      27.110  22.535  19.715  0.00  0.00    +0.007 C 
ENDBRANCH  24  25
ENDBRANCH  23  24
ENDBRANCH  19  23
ENDBRANCH   1  16
TORSDOF 6
ENDMDL
MODEL 3
REMARK VINA RESULT:      -6.3      1.310      2.044
REMARK  Name = ZINC000543478179
REMARK  8 active torsions:
REMARK  status: ('A' for Active; 'I' for Inactive)
REMARK    1  A    between atoms: C_1  and  C_2
REMARK    2  A    between atoms: C_2  and  N_3
REMARK    3  A    between atoms: N_9  and  C_10
REMARK    4  A    between atoms: C_10  and  C_11
REMARK    5  A    between atoms: C_10  and  C_12
REMARK    6  A    between atoms: C_15  and  O_16
REMARK    7  A    between atoms: O_16  and  C_17
REMARK    8  A    between atoms: C_17  and  C_18
REMARK                            x       y       z     vdW  Elec       q    Type
REMARK                         _______ _______ _______ _____ _____    ______ ____
ROOT
ATOM      1  C   UNL     1      30.444  22.846  15.069  0.00  0.00    +0.102 C 
ATOM      2  C   UNL     1      30.665  21.329  14.993  0.00  0.00    +0.033 C 
ENDROOT
BRANCH   1   9
ATOM      3  N   UNL     1      31.723  24.777  21.027  0.00  0.00    -0.299 N 
ATOM      4  C   UNL     1      30.490  23.998  20.907  0.00  0.00    +0.127 C 
ATOM      5  C   UNL     1      29.649  24.440  19.705  0.00  0.00    +0.129 C 
ATOM      6  N   UNL     1      30.441  24.301  18.486  0.00  0.00    -0.275 N 
ATOM      7  C   UNL     1      29.935  23.591  17.406  0.00  0.00    +0.303 C 
ATOM      8  O   UNL     1      28.816  23.095  17.397  0.00  0.00    -0.253 OA
ATOM      9  N   UNL     1      30.805  23.455  16.352  0.00  0.00    -0.293 N 
ATOM     10  C   UNL     1      31.760  24.935  18.535  0.00  0.00    +0.205 C 
ATOM     11  C   UNL     1      32.305  25.367  19.909  0.00  0.00    +0.233 C 
ATOM     12  O   UNL     1      33.299  26.092  19.984  0.00  0.00    -0.274 OA
ATOM     13  H   UNL     1      31.467  24.206  16.263  0.00  0.00    +0.151 HD
BRANCH   3  15
ATOM     14  C   UNL     1      31.872  23.710  23.251  0.00  0.00    +0.024 C 
ATOM     15  C   UNL     1      32.529  24.640  22.239  0.00  0.00    +0.104 C 
ENDBRANCH   3  15
ENDBRANCH   1   9
BRANCH   1  16
ATOM     16  C   UNL     1      31.258  23.539  13.984  0.00  0.00    -0.024 A 
ATOM     17  C   UNL     1      32.625  23.235  13.837  0.00  0.00    +0.009 A 
ATOM     18  C   UNL     1      33.419  23.910  12.915  0.00  0.00    +0.049 A 
ATOM     19  C   UNL     1      32.878  24.940  12.146  0.00  0.00    +0.156 A 
ATOM     20  C   UNL     1      31.509  25.205  12.238  0.00  0.00    +0.165 A 
ATOM     21  F   UNL     1      30.950  26.157  11.477  0.00  0.00    -0.202 F 
ATOM     22  C   UNL     1      30.700  24.517  13.149  0.00  0.00    +0.047 A 
BRANCH  19  23
ATOM     23  O   UNL     1      33.622  25.733  11.313  0.00  0.00    -0.489 OA
BRANCH  23  24
ATOM     24  C   UNL     1      34.551  25.019  10.491  0.00  0.00    +0.232 C 
BRANCH  24  25
ATOM     25  C   UNL     1      33.830  24.480   9.299  0.00  0.00    +0.027 C 
ATOM     26  C   UNL     1      33.581  23.000   9.168  0.00  0.00    +0.007 C 
ATOM     27  C   UNL     1      34.562  23.678   8.251  0.00  0.00    +0.007 C 
ENDBRANCH  24  25
ENDBRANCH  23  24
ENDBRANCH  19  23
ENDBRANCH   1  16
TORSDOF 6
ENDMDL
MODEL 4
REMARK VINA RESULT:      -6.1      4.695      8.581
REMARK  Name = ZINC000543478179
REMARK  8 active torsions:
REMARK  status: ('A' for Active; 'I' for Inactive)
REMARK    1  A    between atoms: C_1  and  C_2
REMARK    2  A    between atoms: C_2  and  N_3
REMARK    3  A    between atoms: N_9  and  C_10
REMARK    4  A    between atoms: C_10  and  C_11
REMARK    5  A    between atoms: C_10  and  C_12
REMARK    6  A    between atoms: C_15  and  O_16
REMARK    7  A    between atoms: O_16  and  C_17
REMARK    8  A    between atoms: C_17  and  C_18
REMARK                            x       y       z     vdW  Elec       q    Type
REMARK                         _______ _______ _______ _____ _____    ______ ____
ROOT
ATOM      1  C   UNL     1      31.069  23.028  16.446  0.00  0.00    +0.102 C 
ATOM      2  C   UNL     1      32.004  24.122  16.980  0.00  0.00    +0.033 C 
ENDROOT
BRANCH   1   9
ATOM      3  N   UNL     1      34.019  17.413  15.653  0.00  0.00    -0.299 N 
ATOM      4  C   UNL     1      33.638  18.066  14.400  0.00  0.00    +0.127 C 
ATOM      5  C   UNL     1      32.212  18.624  14.457  0.00  0.00    +0.129 C 
ATOM      6  N   UNL     1      32.111  19.575  15.559  0.00  0.00    -0.275 N 
ATOM      7  C   UNL     1      31.612  20.850  15.333  0.00  0.00    +0.303 C 
ATOM      8  O   UNL     1      31.201  21.223  14.242  0.00  0.00    -0.253 OA
ATOM      9  N   UNL     1      31.648  21.682  16.426  0.00  0.00    -0.293 N 
ATOM     10  C   UNL     1      32.589  19.074  16.849  0.00  0.00    +0.205 C 
ATOM     11  C   UNL     1      33.430  17.784  16.858  0.00  0.00    +0.233 C 
ATOM     12  O   UNL     1      33.670  17.205  17.919  0.00  0.00    -0.274 OA
ATOM     13  H   UNL     1      31.579  21.207  17.309  0.00  0.00    +0.151 HD
BRANCH   3  15
ATOM     14  C   UNL     1      35.093  15.282  15.011  0.00  0.00    +0.024 C 
ATOM     15  C   UNL     1      35.256  16.634  15.695  0.00  0.00    +0.104 C 
ENDBRANCH   3  15
ENDBRANCH   1   9
BRANCH   1  16
ATOM     16  C   UNL     1      29.804  22.974  17.295  0.00  0.00    -0.024 A 
ATOM     17  C   UNL     1      29.705  23.776  18.447  0.00  0.00    +0.009 A 
ATOM     18  C   UNL     1      28.603  23.690  19.293  0.00  0.00    +0.049 A 
ATOM     19  C   UNL     1      27.592  22.764  19.033  0.00  0.00    +0.156 A 
ATOM     20  C   UNL     1      27.650  22.011  17.858  0.00  0.00    +0.165 A 
ATOM     21  F   UNL     1      26.669  21.147  17.557  0.00  0.00    -0.202 F 
ATOM     22  C   UNL     1      28.746  22.106  16.993  0.00  0.00    +0.047 A 
BRANCH  19  23
ATOM     23  O   UNL     1      26.543  22.532  19.883  0.00  0.00    -0.489 OA
BRANCH  23  24
ATOM     24  C   UNL     1      25.663  23.647  20.057  0.00  0.00    +0.232 C 
BRANCH  24  25
ATOM     25  C   UNL     1      24.383  23.372  19.339  0.00  0.00    +0.027 C 
ATOM     26  C   UNL     1      24.227  23.756  17.891  0.00  0.00    +0.007 C 
ATOM     27  C   UNL     1      23.459  24.500  18.949  0.00  0.00    +0.007 C 
ENDBRANCH  24  25
ENDBRANCH  23  24
ENDBRANCH  19  23
ENDBRANCH   1  16
TORSDOF 6
ENDMDL
MODEL 5
REMARK VINA RESULT:      -6.1      3.989      7.854
REMARK  Name = ZINC000543478179
REMARK  8 active torsions:
REMARK  status: ('A' for Active; 'I' for Inactive)
REMARK    1  A    between atoms: C_1  and  C_2
REMARK    2  A    between atoms: C_2  and  N_3
REMARK    3  A    between atoms: N_9  and  C_10
REMARK    4  A    between atoms: C_10  and  C_11
REMARK    5  A    between atoms: C_10  and  C_12
REMARK    6  A    between atoms: C_15  and  O_16
REMARK    7  A    between atoms: O_16  and  C_17
REMARK    8  A    between atoms: C_17  and  C_18
REMARK                            x       y       z     vdW  Elec       q    Type
REMARK                         _______ _______ _______ _____ _____    ______ ____
ROOT
ATOM      1  C   UNL     1      31.817  22.554  17.437  0.00  0.00    +0.102 C 
ATOM      2  C   UNL     1      32.507  23.204  18.644  0.00  0.00    +0.033 C 
ENDROOT
BRANCH   1   9
ATOM      3  N   UNL     1      32.652  25.957  12.090  0.00  0.00    -0.299 N 
ATOM      4  C   UNL     1      31.322  26.098  12.683  0.00  0.00    +0.127 C 
ATOM      5  C   UNL     1      30.741  24.747  13.113  0.00  0.00    +0.129 C 
ATOM      6  N   UNL     1      31.644  24.119  14.073  0.00  0.00    -0.275 N 
ATOM      7  C   UNL     1      31.159  23.673  15.295  0.00  0.00    +0.303 C 
ATOM      8  O   UNL     1      29.978  23.739  15.609  0.00  0.00    -0.253 OA
ATOM      9  N   UNL     1      32.117  23.181  16.147  0.00  0.00    -0.293 N 
ATOM     10  C   UNL     1      33.041  24.038  13.641  0.00  0.00    +0.205 C 
ATOM     11  C   UNL     1      33.475  24.886  12.431  0.00  0.00    +0.233 C 
ATOM     12  O   UNL     1      34.568  24.694  11.897  0.00  0.00    -0.274 OA
ATOM     13  H   UNL     1      32.914  22.778  15.685  0.00  0.00    +0.151 HD
BRANCH   3  15
ATOM     14  C   UNL     1      33.613  28.209  12.416  0.00  0.00    +0.024 C 
ATOM     15  C   UNL     1      33.255  27.110  11.424  0.00  0.00    +0.104 C 
ENDBRANCH   3  15
ENDBRANCH   1   9
BRANCH   1  16
ATOM     16  C   UNL     1      32.223  21.088  17.342  0.00  0.00    -0.024 A 
ATOM     17  C   UNL     1      33.305  20.614  18.107  0.00  0.00    +0.009 A 
ATOM     18  C   UNL     1      33.758  19.304  17.983  0.00  0.00    +0.049 A 
ATOM     19  C   UNL     1      33.169  18.445  17.054  0.00  0.00    +0.156 A 
ATOM     20  C   UNL     1      32.053  18.886  16.337  0.00  0.00    +0.165 A 
ATOM     21  F   UNL     1      31.437  18.068  15.472  0.00  0.00    -0.202 F 
ATOM     22  C   UNL     1      31.581  20.196  16.472  0.00  0.00    +0.047 A 
BRANCH  19  23
ATOM     23  O   UNL     1      33.639  17.187  16.783  0.00  0.00    -0.489 OA
BRANCH  23  24
ATOM     24  C   UNL     1      34.760  17.153  15.895  0.00  0.00    +0.232 C 
BRANCH  24  25
ATOM     25  C   UNL     1      34.367  16.436  14.645  0.00  0.00    +0.027 C 
ATOM     26  C   UNL     1      35.259  16.479  13.432  0.00  0.00    +0.007 C 
ATOM     27  C   UNL     1      33.939  17.203  13.417  0.00  0.00    +0.007 C 
ENDBRANCH  24  25
ENDBRANCH  23  24
ENDBRANCH  19  23
ENDBRANCH   1  16
TORSDOF 6
ENDMDL
MODEL 6
REMARK VINA RESULT:      -6.0      4.042      9.241
REMARK  Name = ZINC000543478179
REMARK  8 active torsions:
REMARK  status: ('A' for Active; 'I' for Inactive)
REMARK    1  A    between atoms: C_1  and  C_2
REMARK    2  A    between atoms: C_2  and  N_3
REMARK    3  A    between atoms: N_9  and  C_10
REMARK    4  A    between atoms: C_10  and  C_11
REMARK    5  A    between atoms: C_10  and  C_12
REMARK    6  A    between atoms: C_15  and  O_16
REMARK    7  A    between atoms: O_16  and  C_17
REMARK    8  A    between atoms: C_17  and  C_18
REMARK                            x       y       z     vdW  Elec       q    Type
REMARK                         _______ _______ _______ _____ _____    ______ ____
ROOT
ATOM      1  C   UNL     1      32.822  25.721  13.191  0.00  0.00    +0.102 C 
ATOM      2  C   UNL     1      33.862  26.657  13.821  0.00  0.00    +0.033 C 
ENDROOT
BRANCH   1   9
ATOM      3  N   UNL     1      35.361  22.680   8.174  0.00  0.00    -0.299 N 
ATOM      4  C   UNL     1      34.754  23.970   7.842  0.00  0.00    +0.127 C 
ATOM      5  C   UNL     1      33.389  24.149   8.515  0.00  0.00    +0.129 C 
ATOM      6  N   UNL     1      33.547  24.036   9.962  0.00  0.00    -0.275 N 
ATOM      7  C   UNL     1      33.054  25.031  10.794  0.00  0.00    +0.303 C 
ATOM      8  O   UNL     1      32.441  26.007  10.380  0.00  0.00    -0.253 OA
ATOM      9  N   UNL     1      33.339  24.857  12.126  0.00  0.00    -0.293 N 
ATOM     10  C   UNL     1      34.260  22.839  10.410  0.00  0.00    +0.205 C 
ATOM     11  C   UNL     1      35.042  22.027   9.361  0.00  0.00    +0.233 C 
ATOM     12  O   UNL     1      35.475  20.907   9.638  0.00  0.00    -0.274 OA
ATOM     13  H   UNL     1      33.437  23.897  12.406  0.00  0.00    +0.151 HD
BRANCH   3  15
ATOM     14  C   UNL     1      36.196  21.603   6.113  0.00  0.00    +0.024 C 
ATOM     15  C   UNL     1      36.553  22.253   7.444  0.00  0.00    +0.104 C 
ENDBRANCH   3  15
ENDBRANCH   1   9
BRANCH   1  16
ATOM     16  C   UNL     1      32.224  24.820  14.266  0.00  0.00    -0.024 A 
ATOM     17  C   UNL     1      32.853  24.722  15.521  0.00  0.00    +0.009 A 
ATOM     18  C   UNL     1      32.385  23.846  16.496  0.00  0.00    +0.049 A 
ATOM     19  C   UNL     1      31.302  23.009  16.223  0.00  0.00    +0.156 A 
ATOM     20  C   UNL     1      30.631  23.146  15.005  0.00  0.00    +0.165 A 
ATOM     21  F   UNL     1      29.558  22.389  14.733  0.00  0.00    -0.202 F 
ATOM     22  C   UNL     1      31.085  24.039  14.028  0.00  0.00    +0.047 A 
BRANCH  19  23
ATOM     23  O   UNL     1      30.865  22.035  17.081  0.00  0.00    -0.489 OA
BRANCH  23  24
ATOM     24  C   UNL     1      31.659  20.845  17.079  0.00  0.00    +0.232 C 
BRANCH  24  25
ATOM     25  C   UNL     1      31.015  19.832  16.191  0.00  0.00    +0.027 C 
ATOM     26  C   UNL     1      31.666  18.492  15.969  0.00  0.00    +0.007 C 
ATOM     27  C   UNL     1      31.612  19.493  14.846  0.00  0.00    +0.007 C 
ENDBRANCH  24  25
ENDBRANCH  23  24
ENDBRANCH  19  23
ENDBRANCH   1  16
TORSDOF 6
ENDMDL
MODEL 7
REMARK VINA RESULT:      -5.9      4.338      7.954
REMARK  Name = ZINC000543478179
REMARK  8 active torsions:
REMARK  status: ('A' for Active; 'I' for Inactive)
REMARK    1  A    between atoms: C_1  and  C_2
REMARK    2  A    between atoms: C_2  and  N_3
REMARK    3  A    between atoms: N_9  and  C_10
REMARK    4  A    between atoms: C_10  and  C_11
REMARK    5  A    between atoms: C_10  and  C_12
REMARK    6  A    between atoms: C_15  and  O_16
REMARK    7  A    between atoms: O_16  and  C_17
REMARK    8  A    between atoms: C_17  and  C_18
REMARK                            x       y       z     vdW  Elec       q    Type
REMARK                         _______ _______ _______ _____ _____    ______ ____
ROOT
ATOM      1  C   UNL     1      31.375  21.408  15.286  0.00  0.00    +0.102 C 
ATOM      2  C   UNL     1      32.038  21.601  16.657  0.00  0.00    +0.033 C 
ENDROOT
BRANCH   1   9
ATOM      3  N   UNL     1      32.736  26.524  11.702  0.00  0.00    -0.299 N 
ATOM      4  C   UNL     1      31.906  26.820  12.870  0.00  0.00    +0.127 C 
ATOM      5  C   UNL     1      30.778  25.799  13.044  0.00  0.00    +0.129 C 
ATOM      6  N   UNL     1      31.353  24.464  13.174  0.00  0.00    -0.275 N 
ATOM      7  C   UNL     1      30.999  23.656  14.247  0.00  0.00    +0.303 C 
ATOM      8  O   UNL     1      30.179  23.989  15.092  0.00  0.00    -0.253 OA
ATOM      9  N   UNL     1      31.670  22.460  14.308  0.00  0.00    -0.293 N 
ATOM     10  C   UNL     1      32.306  24.100  12.124  0.00  0.00    +0.205 C 
ATOM     11  C   UNL     1      32.851  25.222  11.221  0.00  0.00    +0.233 C 
ATOM     12  O   UNL     1      33.478  24.947  10.197  0.00  0.00    -0.274 OA
ATOM     13  H   UNL     1      31.960  22.102  13.415  0.00  0.00    +0.151 HD
BRANCH   3  15
ATOM     14  C   UNL     1      33.901  28.621  12.293  0.00  0.00    +0.024 C 
ATOM     15  C   UNL     1      33.715  27.516  11.261  0.00  0.00    +0.104 C 
ENDBRANCH   3  15
ENDBRANCH   1   9
BRANCH   1  16
ATOM     16  C   UNL     1      31.819  20.081  14.682  0.00  0.00    -0.024 A 
ATOM     17  C   UNL     1      31.703  18.899  15.438  0.00  0.00    +0.009 A 
ATOM     18  C   UNL     1      32.176  17.683  14.953  0.00  0.00    +0.049 A 
ATOM     19  C   UNL     1      32.821  17.626  13.718  0.00  0.00    +0.156 A 
ATOM     20  C   UNL     1      32.883  18.780  12.933  0.00  0.00    +0.165 A 
ATOM     21  F   UNL     1      33.455  18.745  11.721  0.00  0.00    -0.202 F 
ATOM     22  C   UNL     1      32.392  20.002  13.406  0.00  0.00    +0.047 A 
BRANCH  19  23
ATOM     23  O   UNL     1      33.425  16.496  13.232  0.00  0.00    -0.489 OA
BRANCH  23  24
ATOM     24  C   UNL     1      34.528  16.030  14.016  0.00  0.00    +0.232 C 
BRANCH  24  25
ATOM     25  C   UNL     1      35.760  16.768  13.606  0.00  0.00    +0.027 C 
ATOM     26  C   UNL     1      36.159  16.832  12.155  0.00  0.00    +0.007 C 
ATOM     27  C   UNL     1      36.980  16.023  13.122  0.00  0.00    +0.007 C 
ENDBRANCH  24  25
ENDBRANCH  23  24
ENDBRANCH  19  23
ENDBRANCH   1  16
TORSDOF 6
ENDMDL
MODEL 8
REMARK VINA RESULT:      -5.9      3.639      7.505
REMARK  Name = ZINC000543478179
REMARK  8 active torsions:
REMARK  status: ('A' for Active; 'I' for Inactive)
REMARK    1  A    between atoms: C_1  and  C_2
REMARK    2  A    between atoms: C_2  and  N_3
REMARK    3  A    between atoms: N_9  and  C_10
REMARK    4  A    between atoms: C_10  and  C_11
REMARK    5  A    between atoms: C_10  and  C_12
REMARK    6  A    between atoms: C_15  and  O_16
REMARK    7  A    between atoms: O_16  and  C_17
REMARK    8  A    between atoms: C_17  and  C_18
REMARK                            x       y       z     vdW  Elec       q    Type
REMARK                         _______ _______ _______ _____ _____    ______ ____
ROOT
ATOM      1  C   UNL     1      30.307  23.487  15.975  0.00  0.00    +0.102 C 
ATOM      2  C   UNL     1      29.917  23.936  17.390  0.00  0.00    +0.033 C 
ENDROOT
BRANCH   1   9
ATOM      3  N   UNL     1      33.920  27.621  12.700  0.00  0.00    -0.299 N 
ATOM      4  C   UNL     1      32.734  27.164  11.975  0.00  0.00    +0.127 C 
ATOM      5  C   UNL     1      32.535  25.650  12.100  0.00  0.00    +0.129 C 
ATOM      6  N   UNL     1      32.417  25.295  13.511  0.00  0.00    -0.275 N 
ATOM      7  C   UNL     1      31.337  24.541  13.949  0.00  0.00    +0.303 C 
ATOM      8  O   UNL     1      30.474  24.109  13.198  0.00  0.00    -0.253 OA
ATOM      9  N   UNL     1      31.290  24.345  15.308  0.00  0.00    -0.293 N 
ATOM     10  C   UNL     1      33.488  25.810  14.366  0.00  0.00    +0.205 C 
ATOM     11  C   UNL     1      34.403  26.910  13.796  0.00  0.00    +0.233 C 
ATOM     12  O   UNL     1      35.440  27.222  14.382  0.00  0.00    -0.274 OA
ATOM     13  H   UNL     1      32.190  24.341  15.757  0.00  0.00    +0.151 HD
BRANCH   3  15
ATOM     14  C   UNL     1      35.566  29.057  11.547  0.00  0.00    +0.024 C 
ATOM     15  C   UNL     1      34.383  28.994  12.504  0.00  0.00    +0.104 C 
ENDBRANCH   3  15
ENDBRANCH   1   9
BRANCH   1  16
ATOM     16  C   UNL     1      30.883  22.077  16.024  0.00  0.00    -0.024 A 
ATOM     17  C   UNL     1      31.699  21.696  17.106  0.00  0.00    +0.009 A 
ATOM     18  C   UNL     1      32.312  20.446  17.142  0.00  0.00    +0.049 A 
ATOM     19  C   UNL     1      32.161  19.562  16.073  0.00  0.00    +0.156 A 
ATOM     20  C   UNL     1      31.301  19.906  15.027  0.00  0.00    +0.165 A 
ATOM     21  F   UNL     1      31.100  19.056  14.009  0.00  0.00    -0.202 F 
ATOM     22  C   UNL     1      30.667  21.152  14.994  0.00  0.00    +0.047 A 
BRANCH  19  23
ATOM     23  O   UNL     1      32.832  18.371  15.977  0.00  0.00    -0.489 OA
BRANCH  23  24
ATOM     24  C   UNL     1      33.959  18.396  15.095  0.00  0.00    +0.232 C 
BRANCH  24  25
ATOM     25  C   UNL     1      34.084  17.065  14.430  0.00  0.00    +0.027 C 
ATOM     26  C   UNL     1      35.045  16.875  13.286  0.00  0.00    +0.007 C 
ATOM     27  C   UNL     1      33.562  16.849  13.031  0.00  0.00    +0.007 C 
ENDBRANCH  24  25
ENDBRANCH  23  24
ENDBRANCH  19  23
ENDBRANCH   1  16
TORSDOF 6
ENDMDL
MODEL 9
REMARK VINA RESULT:      -5.9      3.637      4.789
REMARK  Name = ZINC000543478179
REMARK  8 active torsions:
REMARK  status: ('A' for Active; 'I' for Inactive)
REMARK    1  A    between atoms: C_1  and  C_2
REMARK    2  A    between atoms: C_2  and  N_3
REMARK    3  A    between atoms: N_9  and  C_10
REMARK    4  A    between atoms: C_10  and  C_11
REMARK    5  A    between atoms: C_10  and  C_12
REMARK    6  A    between atoms: C_15  and  O_16
REMARK    7  A    between atoms: O_16  and  C_17
REMARK    8  A    between atoms: C_17  and  C_18
REMARK                            x       y       z     vdW  Elec       q    Type
REMARK                         _______ _______ _______ _____ _____    ______ ____
ROOT
ATOM      1  C   UNL     1      32.371  24.259  11.068  0.00  0.00    +0.102 C 
ATOM      2  C   UNL     1      32.873  23.427   9.879  0.00  0.00    +0.033 C 
ENDROOT
BRANCH   1   9
ATOM      3  N   UNL     1      32.452  21.134  16.644  0.00  0.00    -0.299 N 
ATOM      4  C   UNL     1      31.120  21.575  16.229  0.00  0.00    +0.127 C 
ATOM      5  C   UNL     1      31.130  23.017  15.713  0.00  0.00    +0.129 C 
ATOM      6  N   UNL     1      32.055  23.120  14.588  0.00  0.00    -0.275 N 
ATOM      7  C   UNL     1      31.631  23.671  13.387  0.00  0.00    +0.303 C 
ATOM      8  O   UNL     1      30.507  24.127  13.221  0.00  0.00    -0.253 OA
ATOM      9  N   UNL     1      32.562  23.633  12.379  0.00  0.00    -0.293 N 
ATOM     10  C   UNL     1      33.395  22.587  14.844  0.00  0.00    +0.205 C 
ATOM     11  C   UNL     1      33.596  21.701  16.087  0.00  0.00    +0.233 C 
ATOM     12  O   UNL     1      34.731  21.408  16.466  0.00  0.00    -0.274 OA
ATOM     13  H   UNL     1      33.516  23.659  12.696  0.00  0.00    +0.151 HD
BRANCH   3  15
ATOM     14  C   UNL     1      32.411  18.672  16.441  0.00  0.00    +0.024 C 
ATOM     15  C   UNL     1      32.584  19.869  17.366  0.00  0.00    +0.104 C 
ENDBRANCH   3  15
ENDBRANCH   1   9
BRANCH   1  16
ATOM     16  C   UNL     1      33.086  25.605  11.091  0.00  0.00    -0.024 A 
ATOM     17  C   UNL     1      34.320  25.749  10.430  0.00  0.00    +0.009 A 
ATOM     18  C   UNL     1      35.041  26.938  10.501  0.00  0.00    +0.049 A 
ATOM     19  C   UNL     1      34.569  27.998  11.274  0.00  0.00    +0.156 A 
ATOM     20  C   UNL     1      33.314  27.888  11.880  0.00  0.00    +0.165 A 
ATOM     21  F   UNL     1      32.812  28.908  12.590  0.00  0.00    -0.202 F 
ATOM     22  C   UNL     1      32.575  26.703  11.796  0.00  0.00    +0.047 A 
BRANCH  19  23
ATOM     23  O   UNL     1      35.280  29.148  11.496  0.00  0.00    -0.489 OA
BRANCH  23  24
ATOM     24  C   UNL     1      36.555  28.946  12.114  0.00  0.00    +0.232 C 
BRANCH  24  25
ATOM     25  C   UNL     1      36.394  29.029  13.597  0.00  0.00    +0.027 C 
ATOM     26  C   UNL     1      37.531  28.641  14.506  0.00  0.00    +0.007 C 
ATOM     27  C   UNL     1      36.301  27.777  14.435  0.00  0.00    +0.007 C 
ENDBRANCH  24  25
ENDBRANCH  23  24
ENDBRANCH  19  23
ENDBRANCH   1  16
TORSDOF 6
ENDMDL
