MODEL 1
REMARK VINA RESULT:      -6.5      0.000      0.000
REMARK  Name = ZINC000870248439
REMARK  2 active torsions:
REMARK  status: ('A' for Active; 'I' for Inactive)
REMARK    1  A    between atoms: C_2  and  C_4
REMARK    2  A    between atoms: C_7  and  C_8
REMARK                            x       y       z     vdW  Elec       q    Type
REMARK                         _______ _______ _______ _____ _____    ______ ____
ROOT
ATOM      1  C   UNL     1      33.977  19.143  13.287  0.00  0.00    +0.247 C 
ATOM      2  O   UNL     1      34.403  18.039  13.625  0.00  0.00    -0.270 OA
ATOM      3  N   UNL     1      34.382  19.795  12.115  0.00  0.00    -0.297 N 
ATOM      4  C   UNL     1      33.936  21.122  11.682  0.00  0.00    +0.108 C 
ATOM      5  C   UNL     1      33.741  21.229  10.174  0.00  0.00    +0.026 C 
ATOM      6  C   UNL     1      34.945  20.716   9.356  0.00  0.00    -0.025 C 
ATOM      7  C   UNL     1      34.514  20.684   7.867  0.00  0.00    +0.017 C 
ATOM      8  C   UNL     1      35.595  20.234   6.893  0.00  0.00    +0.069 C 
ATOM      9  S   UNL     1      37.050  21.315   6.930  0.00  0.00    -0.161 S 
ATOM     10  C   UNL     1      37.381  21.312   8.713  0.00  0.00    +0.069 C 
ATOM     11  C   UNL     1      36.144  21.686   9.522  0.00  0.00    +0.017 C 
ATOM     12  C   UNL     1      35.263  19.285   9.861  0.00  0.00    +0.026 C 
ATOM     13  C   UNL     1      35.500  19.222  11.370  0.00  0.00    +0.108 C 
ENDROOT
BRANCH   1  17
ATOM     14  C   UNL     1      30.982  21.146  15.578  0.00  0.00    +0.037 A 
ATOM     15  C   UNL     1      32.306  21.153  16.028  0.00  0.00    +0.014 A 
ATOM     16  C   UNL     1      33.274  20.420  15.340  0.00  0.00    +0.014 A 
ATOM     17  C   UNL     1      32.941  19.762  14.151  0.00  0.00    +0.037 A 
ATOM     18  C   UNL     1      31.601  19.681  13.752  0.00  0.00    +0.014 A 
ATOM     19  C   UNL     1      30.618  20.365  14.473  0.00  0.00    +0.014 A 
BRANCH  14  21
ATOM     20  N   UNL     1      30.003  23.311  16.088  0.00  0.00    -0.325 N 
ATOM     21  C   UNL     1      29.940  21.956  16.257  0.00  0.00    +0.242 C 
ATOM     22  O   UNL     1      29.036  21.436  16.893  0.00  0.00    -0.270 OA
ATOM     23  H   UNL     1      29.222  23.842  16.452  0.00  0.00    +0.145 HD
ATOM     24  H   UNL     1      30.566  23.742  15.368  0.00  0.00    +0.145 HD
ENDBRANCH  14  21
ENDBRANCH   1  17
TORSDOF 2
ENDMDL
MODEL 2
REMARK VINA RESULT:      -6.5     13.454     16.098
REMARK  Name = ZINC000870248439
REMARK  2 active torsions:
REMARK  status: ('A' for Active; 'I' for Inactive)
REMARK    1  A    between atoms: C_2  and  C_4
REMARK    2  A    between atoms: C_7  and  C_8
REMARK                            x       y       z     vdW  Elec       q    Type
REMARK                         _______ _______ _______ _____ _____    ______ ____
ROOT
ATOM      1  C   UNL     1      21.226  30.020  17.825  0.00  0.00    +0.247 C 
ATOM      2  O   UNL     1      20.456  30.308  18.740  0.00  0.00    -0.270 OA
ATOM      3  N   UNL     1      22.025  30.966  17.167  0.00  0.00    -0.297 N 
ATOM      4  C   UNL     1      22.931  30.686  16.051  0.00  0.00    +0.108 C 
ATOM      5  C   UNL     1      24.222  31.494  16.107  0.00  0.00    +0.026 C 
ATOM      6  C   UNL     1      23.998  33.006  16.318  0.00  0.00    -0.025 C 
ATOM      7  C   UNL     1      25.385  33.650  16.572  0.00  0.00    +0.017 C 
ATOM      8  C   UNL     1      25.368  35.160  16.769  0.00  0.00    +0.069 C 
ATOM      9  S   UNL     1      24.709  36.036  15.324  0.00  0.00    -0.161 S 
ATOM     10  C   UNL     1      23.151  35.134  15.113  0.00  0.00    +0.069 C 
ATOM     11  C   UNL     1      23.370  33.627  15.044  0.00  0.00    +0.017 C 
ATOM     12  C   UNL     1      23.090  33.162  17.566  0.00  0.00    +0.026 C 
ATOM     13  C   UNL     1      21.783  32.377  17.456  0.00  0.00    +0.108 C 
ENDROOT
BRANCH   1  17
ATOM     14  C   UNL     1      21.809  25.956  16.654  0.00  0.00    +0.037 A 
ATOM     15  C   UNL     1      20.878  26.740  15.964  0.00  0.00    +0.014 A 
ATOM     16  C   UNL     1      20.610  28.038  16.400  0.00  0.00    +0.014 A 
ATOM     17  C   UNL     1      21.338  28.586  17.461  0.00  0.00    +0.037 A 
ATOM     18  C   UNL     1      22.202  27.772  18.205  0.00  0.00    +0.014 A 
ATOM     19  C   UNL     1      22.429  26.452  17.807  0.00  0.00    +0.014 A 
BRANCH  14  21
ATOM     20  N   UNL     1      22.001  24.339  14.849  0.00  0.00    -0.325 N 
ATOM     21  C   UNL     1      22.155  24.591  16.184  0.00  0.00    +0.242 C 
ATOM     22  O   UNL     1      22.608  23.747  16.942  0.00  0.00    -0.270 OA
ATOM     23  H   UNL     1      22.354  23.449  14.521  0.00  0.00    +0.145 HD
ATOM     24  H   UNL     1      21.887  25.077  14.168  0.00  0.00    +0.145 HD
ENDBRANCH  14  21
ENDBRANCH   1  17
TORSDOF 2
ENDMDL
MODEL 3
REMARK VINA RESULT:      -6.3      4.720      6.617
REMARK  Name = ZINC000870248439
REMARK  2 active torsions:
REMARK  status: ('A' for Active; 'I' for Inactive)
REMARK    1  A    between atoms: C_2  and  C_4
REMARK    2  A    between atoms: C_7  and  C_8
REMARK                            x       y       z     vdW  Elec       q    Type
REMARK                         _______ _______ _______ _____ _____    ______ ____
ROOT
ATOM      1  C   UNL     1      34.688  19.229  14.687  0.00  0.00    +0.247 C 
ATOM      2  O   UNL     1      35.141  19.614  13.609  0.00  0.00    -0.270 OA
ATOM      3  N   UNL     1      35.337  18.291  15.501  0.00  0.00    -0.297 N 
ATOM      4  C   UNL     1      34.829  17.771  16.772  0.00  0.00    +0.108 C 
ATOM      5  C   UNL     1      35.919  17.556  17.815  0.00  0.00    +0.026 C 
ATOM      6  C   UNL     1      37.127  16.751  17.290  0.00  0.00    -0.025 C 
ATOM      7  C   UNL     1      38.229  16.806  18.378  0.00  0.00    +0.017 C 
ATOM      8  C   UNL     1      39.498  16.030  18.051  0.00  0.00    +0.069 C 
ATOM      9  S   UNL     1      39.179  14.261  17.805  0.00  0.00    -0.161 S 
ATOM     10  C   UNL     1      37.842  14.365  16.585  0.00  0.00    +0.069 C 
ATOM     11  C   UNL     1      36.712  15.275  17.055  0.00  0.00    +0.017 C 
ATOM     12  C   UNL     1      37.610  17.448  15.991  0.00  0.00    +0.026 C 
ATOM     13  C   UNL     1      36.502  17.604  14.949  0.00  0.00    +0.108 C 
ENDROOT
BRANCH   1  17
ATOM     14  C   UNL     1      31.084  21.223  15.813  0.00  0.00    +0.037 A 
ATOM     15  C   UNL     1      32.199  21.296  16.655  0.00  0.00    +0.014 A 
ATOM     16  C   UNL     1      33.349  20.569  16.345  0.00  0.00    +0.014 A 
ATOM     17  C   UNL     1      33.421  19.848  15.148  0.00  0.00    +0.037 A 
ATOM     18  C   UNL     1      32.277  19.703  14.353  0.00  0.00    +0.014 A 
ATOM     19  C   UNL     1      31.103  20.383  14.692  0.00  0.00    +0.014 A 
BRANCH  14  21
ATOM     20  N   UNL     1      29.816  23.279  15.545  0.00  0.00    -0.325 N 
ATOM     21  C   UNL     1      29.866  22.025  16.087  0.00  0.00    +0.242 C 
ATOM     22  O   UNL     1      28.927  21.569  16.722  0.00  0.00    -0.270 OA
ATOM     23  H   UNL     1      28.934  23.767  15.635  0.00  0.00    +0.145 HD
ATOM     24  H   UNL     1      30.443  23.577  14.811  0.00  0.00    +0.145 HD
ENDBRANCH  14  21
ENDBRANCH   1  17
TORSDOF 2
ENDMDL
MODEL 4
REMARK VINA RESULT:      -6.2      5.340      6.435
REMARK  Name = ZINC000870248439
REMARK  2 active torsions:
REMARK  status: ('A' for Active; 'I' for Inactive)
REMARK    1  A    between atoms: C_2  and  C_4
REMARK    2  A    between atoms: C_7  and  C_8
REMARK                            x       y       z     vdW  Elec       q    Type
REMARK                         _______ _______ _______ _____ _____    ______ ____
ROOT
ATOM      1  C   UNL     1      33.714  20.388  17.602  0.00  0.00    +0.247 C 
ATOM      2  O   UNL     1      33.644  20.644  18.803  0.00  0.00    -0.270 OA
ATOM      3  N   UNL     1      34.452  19.314  17.087  0.00  0.00    -0.297 N 
ATOM      4  C   UNL     1      34.599  18.985  15.668  0.00  0.00    +0.108 C 
ATOM      5  C   UNL     1      34.610  17.485  15.395  0.00  0.00    +0.026 C 
ATOM      6  C   UNL     1      35.597  16.701  16.287  0.00  0.00    -0.025 C 
ATOM      7  C   UNL     1      35.336  15.192  16.051  0.00  0.00    +0.017 C 
ATOM      8  C   UNL     1      36.249  14.252  16.826  0.00  0.00    +0.069 C 
ATOM      9  S   UNL     1      37.998  14.489  16.410  0.00  0.00    -0.161 S 
ATOM     10  C   UNL     1      38.124  16.281  16.658  0.00  0.00    +0.069 C 
ATOM     11  C   UNL     1      37.054  17.040  15.880  0.00  0.00    +0.017 C 
ATOM     12  C   UNL     1      35.285  17.084  17.757  0.00  0.00    +0.026 C 
ATOM     13  C   UNL     1      35.330  18.592  18.005  0.00  0.00    +0.108 C 
ENDROOT
BRANCH   1  17
ATOM     14  C   UNL     1      31.413  22.606  14.770  0.00  0.00    +0.037 A 
ATOM     15  C   UNL     1      32.776  22.887  14.915  0.00  0.00    +0.014 A 
ATOM     16  C   UNL     1      33.515  22.237  15.904  0.00  0.00    +0.014 A 
ATOM     17  C   UNL     1      32.918  21.239  16.682  0.00  0.00    +0.037 A 
ATOM     18  C   UNL     1      31.537  21.024  16.598  0.00  0.00    +0.014 A 
ATOM     19  C   UNL     1      30.781  21.717  15.648  0.00  0.00    +0.014 A 
BRANCH  14  21
ATOM     20  N   UNL     1      29.775  24.256  14.063  0.00  0.00    -0.325 N 
ATOM     21  C   UNL     1      30.613  23.242  13.694  0.00  0.00    +0.242 C 
ATOM     22  O   UNL     1      30.736  22.913  12.524  0.00  0.00    -0.270 OA
ATOM     23  H   UNL     1      29.328  24.762  13.308  0.00  0.00    +0.145 HD
ATOM     24  H   UNL     1      29.847  24.720  14.958  0.00  0.00    +0.145 HD
ENDBRANCH  14  21
ENDBRANCH   1  17
TORSDOF 2
ENDMDL
MODEL 5
REMARK VINA RESULT:      -6.2      4.583      5.472
REMARK  Name = ZINC000870248439
REMARK  2 active torsions:
REMARK  status: ('A' for Active; 'I' for Inactive)
REMARK    1  A    between atoms: C_2  and  C_4
REMARK    2  A    between atoms: C_7  and  C_8
REMARK                            x       y       z     vdW  Elec       q    Type
REMARK                         _______ _______ _______ _____ _____    ______ ____
ROOT
ATOM      1  C   UNL     1      32.996  24.316  11.085  0.00  0.00    +0.247 C 
ATOM      2  O   UNL     1      32.453  24.453   9.989  0.00  0.00    -0.270 OA
ATOM      3  N   UNL     1      34.283  24.792  11.369  0.00  0.00    -0.297 N 
ATOM      4  C   UNL     1      34.991  24.625  12.641  0.00  0.00    +0.108 C 
ATOM      5  C   UNL     1      35.820  25.842  13.032  0.00  0.00    +0.026 C 
ATOM      6  C   UNL     1      36.745  26.349  11.905  0.00  0.00    -0.025 C 
ATOM      7  C   UNL     1      37.347  27.699  12.371  0.00  0.00    +0.017 C 
ATOM      8  C   UNL     1      38.324  28.341  11.395  0.00  0.00    +0.069 C 
ATOM      9  S   UNL     1      39.760  27.285  11.063  0.00  0.00    -0.161 S 
ATOM     10  C   UNL     1      38.906  25.751  10.611  0.00  0.00    +0.069 C 
ATOM     11  C   UNL     1      37.891  25.331  11.669  0.00  0.00    +0.017 C 
ATOM     12  C   UNL     1      35.862  26.553  10.647  0.00  0.00    +0.026 C 
ATOM     13  C   UNL     1      35.080  25.299  10.255  0.00  0.00    +0.108 C 
ENDROOT
BRANCH   1  17
ATOM     14  C   UNL     1      30.895  22.561  14.361  0.00  0.00    +0.037 A 
ATOM     15  C   UNL     1      31.717  21.756  13.566  0.00  0.00    +0.014 A 
ATOM     16  C   UNL     1      32.331  22.298  12.436  0.00  0.00    +0.014 A 
ATOM     17  C   UNL     1      32.202  23.662  12.155  0.00  0.00    +0.037 A 
ATOM     18  C   UNL     1      31.309  24.445  12.898  0.00  0.00    +0.014 A 
ATOM     19  C   UNL     1      30.646  23.890  13.996  0.00  0.00    +0.014 A 
BRANCH  14  21
ATOM     20  N   UNL     1      29.499  22.892  16.323  0.00  0.00    -0.325 N 
ATOM     21  C   UNL     1      30.271  22.028  15.598  0.00  0.00    +0.242 C 
ATOM     22  O   UNL     1      30.396  20.858  15.927  0.00  0.00    -0.270 OA
ATOM     23  H   UNL     1      28.981  22.487  17.093  0.00  0.00    +0.145 HD
ATOM     24  H   UNL     1      29.166  23.768  15.946  0.00  0.00    +0.145 HD
ENDBRANCH  14  21
ENDBRANCH   1  17
TORSDOF 2
ENDMDL
MODEL 6
REMARK VINA RESULT:      -6.1     24.110     27.065
REMARK  Name = ZINC000870248439
REMARK  2 active torsions:
REMARK  status: ('A' for Active; 'I' for Inactive)
REMARK    1  A    between atoms: C_2  and  C_4
REMARK    2  A    between atoms: C_7  and  C_8
REMARK                            x       y       z     vdW  Elec       q    Type
REMARK                         _______ _______ _______ _____ _____    ______ ____
ROOT
ATOM      1  C   UNL     1      20.811   2.959  25.976  0.00  0.00    +0.247 C 
ATOM      2  O   UNL     1      20.087   2.462  25.115  0.00  0.00    -0.270 OA
ATOM      3  N   UNL     1      20.381   3.218  27.285  0.00  0.00    -0.297 N 
ATOM      4  C   UNL     1      21.187   3.839  28.339  0.00  0.00    +0.108 C 
ATOM      5  C   UNL     1      20.936   3.243  29.718  0.00  0.00    +0.026 C 
ATOM      6  C   UNL     1      19.441   3.157  30.094  0.00  0.00    -0.025 C 
ATOM      7  C   UNL     1      19.338   2.340  31.406  0.00  0.00    +0.017 C 
ATOM      8  C   UNL     1      17.928   2.179  31.957  0.00  0.00    +0.069 C 
ATOM      9  S   UNL     1      17.152   3.773  32.342  0.00  0.00    -0.161 S 
ATOM     10  C   UNL     1      17.415   4.623  30.763  0.00  0.00    +0.069 C 
ATOM     11  C   UNL     1      18.877   4.582  30.331  0.00  0.00    +0.017 C 
ATOM     12  C   UNL     1      18.722   2.418  28.935  0.00  0.00    +0.026 C 
ATOM     13  C   UNL     1      18.957   3.070  27.573  0.00  0.00    +0.108 C 
ENDROOT
BRANCH   1  17
ATOM     14  C   UNL     1      24.784   3.722  24.613  0.00  0.00    +0.037 A 
ATOM     15  C   UNL     1      24.478   2.473  25.165  0.00  0.00    +0.014 A 
ATOM     16  C   UNL     1      23.211   2.247  25.702  0.00  0.00    +0.014 A 
ATOM     17  C   UNL     1      22.221   3.230  25.601  0.00  0.00    +0.037 A 
ATOM     18  C   UNL     1      22.554   4.507  25.131  0.00  0.00    +0.014 A 
ATOM     19  C   UNL     1      23.841   4.756  24.646  0.00  0.00    +0.014 A 
BRANCH  14  21
ATOM     20  N   UNL     1      27.207   3.818  24.780  0.00  0.00    -0.325 N 
ATOM     21  C   UNL     1      26.106   3.976  23.986  0.00  0.00    +0.242 C 
ATOM     22  O   UNL     1      26.211   4.261  22.803  0.00  0.00    -0.270 OA
ATOM     23  H   UNL     1      28.104   3.873  24.313  0.00  0.00    +0.145 HD
ATOM     24  H   UNL     1      27.171   3.335  25.667  0.00  0.00    +0.145 HD
ENDBRANCH  14  21
ENDBRANCH   1  17
TORSDOF 2
ENDMDL
MODEL 7
REMARK VINA RESULT:      -6.1      2.643      3.537
REMARK  Name = ZINC000870248439
REMARK  2 active torsions:
REMARK  status: ('A' for Active; 'I' for Inactive)
REMARK    1  A    between atoms: C_2  and  C_4
REMARK    2  A    between atoms: C_7  and  C_8
REMARK                            x       y       z     vdW  Elec       q    Type
REMARK                         _______ _______ _______ _____ _____    ______ ____
ROOT
ATOM      1  C   UNL     1      35.349  22.970  11.053  0.00  0.00    +0.247 C 
ATOM      2  O   UNL     1      36.310  23.678  11.351  0.00  0.00    -0.270 OA
ATOM      3  N   UNL     1      35.397  21.993  10.049  0.00  0.00    -0.297 N 
ATOM      4  C   UNL     1      34.277  21.148   9.629  0.00  0.00    +0.108 C 
ATOM      5  C   UNL     1      34.694  19.723   9.284  0.00  0.00    +0.026 C 
ATOM      6  C   UNL     1      35.888  19.647   8.308  0.00  0.00    -0.025 C 
ATOM      7  C   UNL     1      36.328  18.163   8.229  0.00  0.00    +0.017 C 
ATOM      8  C   UNL     1      37.482  17.883   7.277  0.00  0.00    +0.069 C 
ATOM      9  S   UNL     1      37.092  18.341   5.566  0.00  0.00    -0.161 S 
ATOM     10  C   UNL     1      36.531  20.044   5.832  0.00  0.00    +0.069 C 
ATOM     11  C   UNL     1      35.447  20.127   6.901  0.00  0.00    +0.017 C 
ATOM     12  C   UNL     1      37.022  20.520   8.906  0.00  0.00    +0.026 C 
ATOM     13  C   UNL     1      36.582  21.955   9.196  0.00  0.00    +0.108 C 
ENDROOT
BRANCH   1  17
ATOM     14  C   UNL     1      31.693  23.197  13.247  0.00  0.00    +0.037 A 
ATOM     15  C   UNL     1      31.865  24.005  12.118  0.00  0.00    +0.014 A 
ATOM     16  C   UNL     1      33.091  24.010  11.452  0.00  0.00    +0.014 A 
ATOM     17  C   UNL     1      34.110  23.139  11.852  0.00  0.00    +0.037 A 
ATOM     18  C   UNL     1      33.968  22.399  13.033  0.00  0.00    +0.014 A 
ATOM     19  C   UNL     1      32.762  22.437  13.737  0.00  0.00    +0.014 A 
BRANCH  14  21
ATOM     20  N   UNL     1      29.810  24.319  14.298  0.00  0.00    -0.325 N 
ATOM     21  C   UNL     1      30.385  23.130  13.946  0.00  0.00    +0.242 C 
ATOM     22  O   UNL     1      29.821  22.066  14.150  0.00  0.00    -0.270 OA
ATOM     23  H   UNL     1      28.867  24.267  14.661  0.00  0.00    +0.145 HD
ATOM     24  H   UNL     1      30.115  25.203  13.914  0.00  0.00    +0.145 HD
ENDBRANCH  14  21
ENDBRANCH   1  17
TORSDOF 2
ENDMDL
MODEL 8
REMARK VINA RESULT:      -6.0      3.695      5.132
REMARK  Name = ZINC000870248439
REMARK  2 active torsions:
REMARK  status: ('A' for Active; 'I' for Inactive)
REMARK    1  A    between atoms: C_2  and  C_4
REMARK    2  A    between atoms: C_7  and  C_8
REMARK                            x       y       z     vdW  Elec       q    Type
REMARK                         _______ _______ _______ _____ _____    ______ ____
ROOT
ATOM      1  C   UNL     1      32.199  21.774  15.911  0.00  0.00    +0.247 C 
ATOM      2  O   UNL     1      31.019  21.514  16.144  0.00  0.00    -0.270 OA
ATOM      3  N   UNL     1      32.687  22.045  14.626  0.00  0.00    -0.297 N 
ATOM      4  C   UNL     1      34.084  22.325  14.286  0.00  0.00    +0.108 C 
ATOM      5  C   UNL     1      34.240  23.384  13.201  0.00  0.00    +0.026 C 
ATOM      6  C   UNL     1      33.371  23.123  11.952  0.00  0.00    -0.025 C 
ATOM      7  C   UNL     1      33.468  24.379  11.049  0.00  0.00    +0.017 C 
ATOM      8  C   UNL     1      32.697  24.292   9.739  0.00  0.00    +0.069 C 
ATOM      9  S   UNL     1      33.268  22.925   8.693  0.00  0.00    -0.161 S 
ATOM     10  C   UNL     1      33.169  21.569   9.892  0.00  0.00    +0.069 C 
ATOM     11  C   UNL     1      33.916  21.893  11.181  0.00  0.00    +0.017 C 
ATOM     12  C   UNL     1      31.914  22.919  12.444  0.00  0.00    +0.026 C 
ATOM     13  C   UNL     1      31.788  21.817  13.497  0.00  0.00    +0.108 C 
ENDROOT
BRANCH   1  17
ATOM     14  C   UNL     1      35.062  22.025  19.069  0.00  0.00    +0.037 A 
ATOM     15  C   UNL     1      34.449  20.797  18.797  0.00  0.00    +0.014 A 
ATOM     16  C   UNL     1      33.442  20.725  17.834  0.00  0.00    +0.014 A 
ATOM     17  C   UNL     1      33.116  21.855  17.075  0.00  0.00    +0.037 A 
ATOM     18  C   UNL     1      33.665  23.099  17.409  0.00  0.00    +0.014 A 
ATOM     19  C   UNL     1      34.631  23.186  18.415  0.00  0.00    +0.014 A 
BRANCH  14  21
ATOM     20  N   UNL     1      36.006  23.001  21.084  0.00  0.00    -0.325 N 
ATOM     21  C   UNL     1      36.171  22.123  20.050  0.00  0.00    +0.242 C 
ATOM     22  O   UNL     1      37.163  21.414  19.970  0.00  0.00    -0.270 OA
ATOM     23  H   UNL     1      36.711  22.971  21.811  0.00  0.00    +0.145 HD
ATOM     24  H   UNL     1      35.107  23.396  21.322  0.00  0.00    +0.145 HD
ENDBRANCH  14  21
ENDBRANCH   1  17
TORSDOF 2
ENDMDL
MODEL 9
REMARK VINA RESULT:      -5.9      2.493      3.335
REMARK  Name = ZINC000870248439
REMARK  2 active torsions:
REMARK  status: ('A' for Active; 'I' for Inactive)
REMARK    1  A    between atoms: C_2  and  C_4
REMARK    2  A    between atoms: C_7  and  C_8
REMARK                            x       y       z     vdW  Elec       q    Type
REMARK                         _______ _______ _______ _____ _____    ______ ____
ROOT
ATOM      1  C   UNL     1      35.293  22.652  11.354  0.00  0.00    +0.247 C 
ATOM      2  O   UNL     1      36.241  22.806  12.123  0.00  0.00    -0.270 OA
ATOM      3  N   UNL     1      35.450  22.380   9.988  0.00  0.00    -0.297 N 
ATOM      4  C   UNL     1      34.361  22.224   9.020  0.00  0.00    +0.108 C 
ATOM      5  C   UNL     1      34.631  21.145   7.979  0.00  0.00    +0.026 C 
ATOM      6  C   UNL     1      36.010  21.274   7.297  0.00  0.00    -0.025 C 
ATOM      7  C   UNL     1      36.225  20.001   6.441  0.00  0.00    +0.017 C 
ATOM      8  C   UNL     1      37.530  19.964   5.656  0.00  0.00    +0.069 C 
ATOM      9  S   UNL     1      37.668  21.339   4.482  0.00  0.00    -0.161 S 
ATOM     10  C   UNL     1      37.323  22.724   5.601  0.00  0.00    +0.069 C 
ATOM     11  C   UNL     1      36.025  22.521   6.375  0.00  0.00    +0.017 C 
ATOM     12  C   UNL     1      37.071  21.356   8.426  0.00  0.00    +0.026 C 
ATOM     13  C   UNL     1      36.794  22.479   9.426  0.00  0.00    +0.108 C 
ENDROOT
BRANCH   1  17
ATOM     14  C   UNL     1      31.489  22.944  13.270  0.00  0.00    +0.037 A 
ATOM     15  C   UNL     1      32.150  21.711  13.246  0.00  0.00    +0.014 A 
ATOM     16  C   UNL     1      33.346  21.582  12.539  0.00  0.00    +0.014 A 
ATOM     17  C   UNL     1      33.931  22.703  11.940  0.00  0.00    +0.037 A 
ATOM     18  C   UNL     1      33.225  23.912  11.887  0.00  0.00    +0.014 A 
ATOM     19  C   UNL     1      31.997  24.029  12.544  0.00  0.00    +0.014 A 
BRANCH  14  21
ATOM     20  N   UNL     1      29.832  24.412  14.273  0.00  0.00    -0.325 N 
ATOM     21  C   UNL     1      30.243  23.126  14.055  0.00  0.00    +0.242 C 
ATOM     22  O   UNL     1      29.585  22.174  14.445  0.00  0.00    -0.270 OA
ATOM     23  H   UNL     1      28.921  24.521  14.701  0.00  0.00    +0.145 HD
ATOM     24  H   UNL     1      30.199  25.194  13.749  0.00  0.00    +0.145 HD
ENDBRANCH  14  21
ENDBRANCH   1  17
TORSDOF 2
ENDMDL
