MODEL 1
REMARK VINA RESULT:      -6.8      0.000      0.000
REMARK  Name = ZINC000560333501
REMARK  5 active torsions:
REMARK  status: ('A' for Active; 'I' for Inactive)
REMARK    1  A    between atoms: C_2  and  C_3
REMARK    2  A    between atoms: C_7  and  C_8
REMARK    3  A    between atoms: C_8  and  C_9
REMARK    4  A    between atoms: N_11  and  C_12
REMARK    5  A    between atoms: C_12  and  C_13
REMARK                            x       y       z     vdW  Elec       q    Type
REMARK                         _______ _______ _______ _____ _____    ______ ____
ROOT
ATOM      1  C   UNL     1      29.459  22.875  16.731  0.00  0.00    +0.217 C 
ATOM      2  O   UNL     1      28.432  22.515  17.311  0.00  0.00    -0.275 OA
ATOM      3  N   UNL     1      30.446  23.633  17.337  0.00  0.00    -0.315 N 
ATOM      4  H   UNL     1      31.354  23.618  16.890  0.00  0.00    +0.149 HD
ENDROOT
BRANCH   1   5
ATOM      5  C   UNL     1      29.705  22.503  15.287  0.00  0.00    +0.131 C 
BRANCH   5  10
ATOM      6  C   UNL     1      32.082  19.508  15.584  0.00  0.00    +0.052 A 
ATOM      7  C   UNL     1      31.440  18.575  14.763  0.00  0.00    +0.019 A 
ATOM      8  C   UNL     1      30.262  18.925  14.102  0.00  0.00    +0.002 A 
ATOM      9  C   UNL     1      29.726  20.205  14.255  0.00  0.00    +0.004 A 
ATOM     10  C   UNL     1      30.359  21.155  15.068  0.00  0.00    -0.037 A 
ATOM     11  C   UNL     1      31.539  20.792  15.739  0.00  0.00    +0.023 A 
BRANCH   6  13
ATOM     12  N   UNL     1      34.251  18.836  16.840  0.00  0.00    -0.191 NA
ATOM     13  C   UNL     1      33.281  19.142  16.278  0.00  0.00    +0.099 C 
ENDBRANCH   6  13
ENDBRANCH   5  10
ENDBRANCH   1   5
BRANCH   3  14
ATOM     14  C   UNL     1      30.434  23.741  18.785  0.00  0.00    +0.108 C 
BRANCH  14  15
ATOM     15  C   UNL     1      31.423  22.841  19.549  0.00  0.00    +0.011 C 
ATOM     16  C   UNL     1      31.147  22.764  21.048  0.00  0.00    +0.033 C 
ATOM     17  C   UNL     1      31.250  24.142  21.684  0.00  0.00    +0.161 C 
ATOM     18  O   UNL     1      32.432  24.852  21.324  0.00  0.00    -0.373 OA
ATOM     19  C   UNL     1      32.989  24.779  19.979  0.00  0.00    +0.070 C 
ATOM     20  C   UNL     1      32.618  25.910  18.959  0.00  0.00    +0.035 C 
ATOM     21  C   UNL     1      33.809  26.716  19.479  0.00  0.00    +0.006 C 
ATOM     22  C   UNL     1      34.434  25.382  19.932  0.00  0.00    +0.035 C 
ATOM     23  C   UNL     1      32.868  23.364  19.399  0.00  0.00    +0.040 C 
ENDBRANCH  14  15
ENDBRANCH   3  14
TORSDOF 5
ENDMDL
MODEL 2
REMARK VINA RESULT:      -6.6      4.679      7.214
REMARK  Name = ZINC000560333501
REMARK  5 active torsions:
REMARK  status: ('A' for Active; 'I' for Inactive)
REMARK    1  A    between atoms: C_2  and  C_3
REMARK    2  A    between atoms: C_7  and  C_8
REMARK    3  A    between atoms: C_8  and  C_9
REMARK    4  A    between atoms: N_11  and  C_12
REMARK    5  A    between atoms: C_12  and  C_13
REMARK                            x       y       z     vdW  Elec       q    Type
REMARK                         _______ _______ _______ _____ _____    ______ ____
ROOT
ATOM      1  C   UNL     1      30.218  23.909  13.403  0.00  0.00    +0.217 C 
ATOM      2  O   UNL     1      29.526  23.051  12.849  0.00  0.00    -0.275 OA
ATOM      3  N   UNL     1      30.773  23.739  14.659  0.00  0.00    -0.315 N 
ATOM      4  H   UNL     1      31.547  24.351  14.888  0.00  0.00    +0.149 HD
ENDROOT
BRANCH   1   5
ATOM      5  C   UNL     1      30.502  25.230  12.727  0.00  0.00    +0.131 C 
BRANCH   5  10
ATOM      6  C   UNL     1      32.811  24.261   9.823  0.00  0.00    +0.052 A 
ATOM      7  C   UNL     1      33.704  25.338   9.822  0.00  0.00    +0.019 A 
ATOM      8  C   UNL     1      33.571  26.352  10.769  0.00  0.00    +0.002 A 
ATOM      9  C   UNL     1      32.552  26.294  11.721  0.00  0.00    +0.004 A 
ATOM     10  C   UNL     1      31.652  25.219  11.743  0.00  0.00    -0.037 A 
ATOM     11  C   UNL     1      31.786  24.206  10.778  0.00  0.00    +0.023 A 
BRANCH   6  13
ATOM     12  N   UNL     1      33.044  22.397   8.034  0.00  0.00    -0.191 NA
ATOM     13  C   UNL     1      32.936  23.229   8.836  0.00  0.00    +0.099 C 
ENDBRANCH   6  13
ENDBRANCH   5  10
ENDBRANCH   1   5
BRANCH   3  14
ATOM     14  C   UNL     1      30.819  22.396  15.212  0.00  0.00    +0.108 C 
BRANCH  14  15
ATOM     15  C   UNL     1      32.208  21.867  15.615  0.00  0.00    +0.011 C 
ATOM     16  C   UNL     1      33.282  22.102  14.556  0.00  0.00    +0.033 C 
ATOM     17  C   UNL     1      32.920  21.397  13.258  0.00  0.00    +0.161 C 
ATOM     18  O   UNL     1      32.534  20.036  13.434  0.00  0.00    -0.373 OA
ATOM     19  C   UNL     1      31.743  19.607  14.580  0.00  0.00    +0.070 C 
ATOM     20  C   UNL     1      30.189  19.487  14.408  0.00  0.00    +0.035 C 
ATOM     21  C   UNL     1      30.393  18.050  13.927  0.00  0.00    +0.006 C 
ATOM     22  C   UNL     1      31.724  18.045  14.702  0.00  0.00    +0.035 C 
ATOM     23  C   UNL     1      32.164  20.343  15.859  0.00  0.00    +0.040 C 
ENDBRANCH  14  15
ENDBRANCH   3  14
TORSDOF 5
ENDMDL
MODEL 3
REMARK VINA RESULT:      -6.5      4.741      7.492
REMARK  Name = ZINC000560333501
REMARK  5 active torsions:
REMARK  status: ('A' for Active; 'I' for Inactive)
REMARK    1  A    between atoms: C_2  and  C_3
REMARK    2  A    between atoms: C_7  and  C_8
REMARK    3  A    between atoms: C_8  and  C_9
REMARK    4  A    between atoms: N_11  and  C_12
REMARK    5  A    between atoms: C_12  and  C_13
REMARK                            x       y       z     vdW  Elec       q    Type
REMARK                         _______ _______ _______ _____ _____    ______ ____
ROOT
ATOM      1  C   UNL     1      30.210  23.839  13.419  0.00  0.00    +0.217 C 
ATOM      2  O   UNL     1      29.466  22.992  12.920  0.00  0.00    -0.275 OA
ATOM      3  N   UNL     1      30.924  23.627  14.586  0.00  0.00    -0.315 N 
ATOM      4  H   UNL     1      31.711  24.244  14.742  0.00  0.00    +0.149 HD
ENDROOT
BRANCH   1   5
ATOM      5  C   UNL     1      30.388  25.192  12.773  0.00  0.00    +0.131 C 
BRANCH   5  10
ATOM      6  C   UNL     1      33.490  26.381  10.859  0.00  0.00    +0.052 A 
ATOM      7  C   UNL     1      33.676  25.320   9.965  0.00  0.00    +0.019 A 
ATOM      8  C   UNL     1      32.788  24.245   9.970  0.00  0.00    +0.002 A 
ATOM      9  C   UNL     1      31.713  24.227  10.860  0.00  0.00    +0.004 A 
ATOM     10  C   UNL     1      31.507  25.284  11.758  0.00  0.00    -0.037 A 
ATOM     11  C   UNL     1      32.412  26.359  11.754  0.00  0.00    +0.023 A 
BRANCH   6  13
ATOM     12  N   UNL     1      35.157  28.369  10.877  0.00  0.00    -0.191 NA
ATOM     13  C   UNL     1      34.415  27.477  10.867  0.00  0.00    +0.099 C 
ENDBRANCH   6  13
ENDBRANCH   5  10
ENDBRANCH   1   5
BRANCH   3  14
ATOM     14  C   UNL     1      31.058  22.264  15.068  0.00  0.00    +0.108 C 
BRANCH  14  15
ATOM     15  C   UNL     1      32.494  21.725  15.213  0.00  0.00    +0.011 C 
ATOM     16  C   UNL     1      33.358  21.951  13.976  0.00  0.00    +0.033 C 
ATOM     17  C   UNL     1      32.762  21.245  12.768  0.00  0.00    +0.161 C 
ATOM     18  O   UNL     1      32.406  19.887  13.016  0.00  0.00    -0.373 OA
ATOM     19  C   UNL     1      31.834  19.467  14.289  0.00  0.00    +0.070 C 
ATOM     20  C   UNL     1      30.274  19.356  14.403  0.00  0.00    +0.035 C 
ATOM     21  C   UNL     1      30.378  17.917  13.899  0.00  0.00    +0.006 C 
ATOM     22  C   UNL     1      31.829  17.905  14.418  0.00  0.00    +0.035 C 
ATOM     23  C   UNL     1      32.487  20.203  15.466  0.00  0.00    +0.040 C 
ENDBRANCH  14  15
ENDBRANCH   3  14
TORSDOF 5
ENDMDL
MODEL 4
REMARK VINA RESULT:      -6.5      3.526      4.649
REMARK  Name = ZINC000560333501
REMARK  5 active torsions:
REMARK  status: ('A' for Active; 'I' for Inactive)
REMARK    1  A    between atoms: C_2  and  C_3
REMARK    2  A    between atoms: C_7  and  C_8
REMARK    3  A    between atoms: C_8  and  C_9
REMARK    4  A    between atoms: N_11  and  C_12
REMARK    5  A    between atoms: C_12  and  C_13
REMARK                            x       y       z     vdW  Elec       q    Type
REMARK                         _______ _______ _______ _____ _____    ______ ____
ROOT
ATOM      1  C   UNL     1      30.258  22.242  15.067  0.00  0.00    +0.217 C 
ATOM      2  O   UNL     1      30.928  21.241  15.336  0.00  0.00    -0.275 OA
ATOM      3  N   UNL     1      29.925  23.205  16.004  0.00  0.00    -0.315 N 
ATOM      4  H   UNL     1      29.646  24.105  15.634  0.00  0.00    +0.149 HD
ENDROOT
BRANCH   1   5
ATOM      5  C   UNL     1      29.747  22.479  13.666  0.00  0.00    +0.131 C 
BRANCH   5  10
ATOM      6  C   UNL     1      32.012  24.053  11.003  0.00  0.00    +0.052 A 
ATOM      7  C   UNL     1      31.820  25.415  11.260  0.00  0.00    +0.019 A 
ATOM      8  C   UNL     1      30.983  25.814  12.302  0.00  0.00    +0.002 A 
ATOM      9  C   UNL     1      30.341  24.858  13.091  0.00  0.00    +0.004 A 
ATOM     10  C   UNL     1      30.528  23.489  12.853  0.00  0.00    -0.037 A 
ATOM     11  C   UNL     1      31.364  23.096  11.795  0.00  0.00    +0.023 A 
BRANCH   6  13
ATOM     12  N   UNL     1      33.547  23.318   9.045  0.00  0.00    -0.191 NA
ATOM     13  C   UNL     1      32.857  23.645   9.919  0.00  0.00    +0.099 C 
ENDBRANCH   6  13
ENDBRANCH   5  10
ENDBRANCH   1   5
BRANCH   3  14
ATOM     14  C   UNL     1      30.647  23.213  17.264  0.00  0.00    +0.108 C 
BRANCH  14  15
ATOM     15  C   UNL     1      31.916  24.084  17.322  0.00  0.00    +0.011 C 
ATOM     16  C   UNL     1      33.206  23.297  17.107  0.00  0.00    +0.033 C 
ATOM     17  C   UNL     1      33.373  22.234  18.182  0.00  0.00    +0.161 C 
ATOM     18  O   UNL     1      33.177  22.724  19.507  0.00  0.00    -0.373 OA
ATOM     19  C   UNL     1      32.158  23.719  19.812  0.00  0.00    +0.070 C 
ATOM     20  C   UNL     1      30.769  23.222  20.345  0.00  0.00    +0.035 C 
ATOM     21  C   UNL     1      31.339  23.274  21.763  0.00  0.00    +0.006 C 
ATOM     22  C   UNL     1      32.357  24.310  21.249  0.00  0.00    +0.035 C 
ATOM     23  C   UNL     1      32.049  24.769  18.699  0.00  0.00    +0.040 C 
ENDBRANCH  14  15
ENDBRANCH   3  14
TORSDOF 5
ENDMDL
MODEL 5
REMARK VINA RESULT:      -6.4      4.997      7.464
REMARK  Name = ZINC000560333501
REMARK  5 active torsions:
REMARK  status: ('A' for Active; 'I' for Inactive)
REMARK    1  A    between atoms: C_2  and  C_3
REMARK    2  A    between atoms: C_7  and  C_8
REMARK    3  A    between atoms: C_8  and  C_9
REMARK    4  A    between atoms: N_11  and  C_12
REMARK    5  A    between atoms: C_12  and  C_13
REMARK                            x       y       z     vdW  Elec       q    Type
REMARK                         _______ _______ _______ _____ _____    ______ ____
ROOT
ATOM      1  C   UNL     1      31.524  21.119  13.544  0.00  0.00    +0.217 C 
ATOM      2  O   UNL     1      32.657  20.678  13.754  0.00  0.00    -0.275 OA
ATOM      3  N   UNL     1      31.265  22.151  12.660  0.00  0.00    -0.315 N 
ATOM      4  H   UNL     1      30.307  22.231  12.341  0.00  0.00    +0.149 HD
ENDROOT
BRANCH   1   5
ATOM      5  C   UNL     1      30.325  20.546  14.262  0.00  0.00    +0.131 C 
BRANCH   5  10
ATOM      6  C   UNL     1      27.824  22.168  16.674  0.00  0.00    +0.052 A 
ATOM      7  C   UNL     1      28.673  22.984  17.430  0.00  0.00    +0.019 A 
ATOM      8  C   UNL     1      30.037  23.024  17.142  0.00  0.00    +0.002 A 
ATOM      9  C   UNL     1      30.556  22.255  16.099  0.00  0.00    +0.004 A 
ATOM     10  C   UNL     1      29.720  21.437  15.326  0.00  0.00    -0.037 A 
ATOM     11  C   UNL     1      28.349  21.394  15.629  0.00  0.00    +0.023 A 
BRANCH   6  13
ATOM     12  N   UNL     1      25.292  22.076  17.231  0.00  0.00    -0.191 NA
ATOM     13  C   UNL     1      26.426  22.113  16.984  0.00  0.00    +0.099 C 
ENDBRANCH   6  13
ENDBRANCH   5  10
ENDBRANCH   1   5
BRANCH   3  14
ATOM     14  C   UNL     1      32.300  22.515  11.709  0.00  0.00    +0.108 C 
BRANCH  14  15
ATOM     15  C   UNL     1      31.905  23.528  10.618  0.00  0.00    +0.011 C 
ATOM     16  C   UNL     1      32.535  23.237   9.258  0.00  0.00    +0.033 C 
ATOM     17  C   UNL     1      34.053  23.284   9.349  0.00  0.00    +0.161 C 
ATOM     18  O   UNL     1      34.552  24.444  10.011  0.00  0.00    -0.373 OA
ATOM     19  C   UNL     1      33.872  25.018  11.165  0.00  0.00    +0.070 C 
ATOM     20  C   UNL     1      34.372  24.619  12.597  0.00  0.00    +0.035 C 
ATOM     21  C   UNL     1      35.371  25.774  12.528  0.00  0.00    +0.006 C 
ATOM     22  C   UNL     1      34.434  26.441  11.503  0.00  0.00    +0.035 C 
ATOM     23  C   UNL     1      32.348  24.954  11.007  0.00  0.00    +0.040 C 
ENDBRANCH  14  15
ENDBRANCH   3  14
TORSDOF 5
ENDMDL
MODEL 6
REMARK VINA RESULT:      -6.3      2.287      3.189
REMARK  Name = ZINC000560333501
REMARK  5 active torsions:
REMARK  status: ('A' for Active; 'I' for Inactive)
REMARK    1  A    between atoms: C_2  and  C_3
REMARK    2  A    between atoms: C_7  and  C_8
REMARK    3  A    between atoms: C_8  and  C_9
REMARK    4  A    between atoms: N_11  and  C_12
REMARK    5  A    between atoms: C_12  and  C_13
REMARK                            x       y       z     vdW  Elec       q    Type
REMARK                         _______ _______ _______ _____ _____    ______ ____
ROOT
ATOM      1  C   UNL     1      28.460  22.641  17.043  0.00  0.00    +0.217 C 
ATOM      2  O   UNL     1      27.651  22.467  17.958  0.00  0.00    -0.275 OA
ATOM      3  N   UNL     1      29.482  23.573  17.104  0.00  0.00    -0.315 N 
ATOM      4  H   UNL     1      30.248  23.432  16.457  0.00  0.00    +0.149 HD
ENDROOT
BRANCH   1   5
ATOM      5  C   UNL     1      28.379  21.830  15.771  0.00  0.00    +0.131 C 
BRANCH   5  10
ATOM      6  C   UNL     1      31.078  22.576  13.153  0.00  0.00    +0.052 A 
ATOM      7  C   UNL     1      32.113  21.741  13.591  0.00  0.00    +0.019 A 
ATOM      8  C   UNL     1      31.924  20.929  14.708  0.00  0.00    +0.002 A 
ATOM      9  C   UNL     1      30.705  20.943  15.388  0.00  0.00    +0.004 A 
ATOM     10  C   UNL     1      29.655  21.768  14.960  0.00  0.00    -0.037 A 
ATOM     11  C   UNL     1      29.857  22.591  13.840  0.00  0.00    +0.023 A 
BRANCH   6  13
ATOM     12  N   UNL     1      31.438  24.108  11.090  0.00  0.00    -0.191 NA
ATOM     13  C   UNL     1      31.280  23.425  12.016  0.00  0.00    +0.099 C 
ENDBRANCH   6  13
ENDBRANCH   5  10
ENDBRANCH   1   5
BRANCH   3  14
ATOM     14  C   UNL     1      29.817  24.139  18.398  0.00  0.00    +0.108 C 
BRANCH  14  15
ATOM     15  C   UNL     1      30.658  23.254  19.338  0.00  0.00    +0.011 C 
ATOM     16  C   UNL     1      31.278  24.019  20.504  0.00  0.00    +0.033 C 
ATOM     17  C   UNL     1      32.214  25.106  19.996  0.00  0.00    +0.161 C 
ATOM     18  O   UNL     1      33.139  24.651  19.011  0.00  0.00    -0.373 OA
ATOM     19  C   UNL     1      32.759  23.676  17.997  0.00  0.00    +0.070 C 
ATOM     20  C   UNL     1      32.314  24.203  16.589  0.00  0.00    +0.035 C 
ATOM     21  C   UNL     1      33.780  24.178  16.158  0.00  0.00    +0.006 C 
ATOM     22  C   UNL     1      34.018  23.118  17.250  0.00  0.00    +0.035 C 
ATOM     23  C   UNL     1      31.829  22.601  18.574  0.00  0.00    +0.040 C 
ENDBRANCH  14  15
ENDBRANCH   3  14
TORSDOF 5
ENDMDL
MODEL 7
REMARK VINA RESULT:      -6.3      1.150      1.302
REMARK  Name = ZINC000560333501
REMARK  5 active torsions:
REMARK  status: ('A' for Active; 'I' for Inactive)
REMARK    1  A    between atoms: C_2  and  C_3
REMARK    2  A    between atoms: C_7  and  C_8
REMARK    3  A    between atoms: C_8  and  C_9
REMARK    4  A    between atoms: N_11  and  C_12
REMARK    5  A    between atoms: C_12  and  C_13
REMARK                            x       y       z     vdW  Elec       q    Type
REMARK                         _______ _______ _______ _____ _____    ______ ____
ROOT
ATOM      1  C   UNL     1      29.211  23.546  17.833  0.00  0.00    +0.217 C 
ATOM      2  O   UNL     1      28.599  23.310  18.878  0.00  0.00    -0.275 OA
ATOM      3  N   UNL     1      30.388  24.273  17.792  0.00  0.00    -0.315 N 
ATOM      4  H   UNL     1      30.953  24.155  16.959  0.00  0.00    +0.149 HD
ENDROOT
BRANCH   1   5
ATOM      5  C   UNL     1      28.696  23.045  16.504  0.00  0.00    +0.131 C 
BRANCH   5  10
ATOM      6  C   UNL     1      31.613  20.695  15.684  0.00  0.00    +0.052 A 
ATOM      7  C   UNL     1      31.063  19.942  14.640  0.00  0.00    +0.019 A 
ATOM      8  C   UNL     1      29.770  20.212  14.194  0.00  0.00    +0.002 A 
ATOM      9  C   UNL     1      29.024  21.235  14.782  0.00  0.00    +0.004 A 
ATOM     10  C   UNL     1      29.561  22.005  15.824  0.00  0.00    -0.037 A 
ATOM     11  C   UNL     1      30.860  21.720  16.275  0.00  0.00    +0.023 A 
BRANCH   6  13
ATOM     12  N   UNL     1      34.006  20.175  16.539  0.00  0.00    -0.191 NA
ATOM     13  C   UNL     1      32.935  20.403  16.154  0.00  0.00    +0.099 C 
ENDBRANCH   6  13
ENDBRANCH   5  10
ENDBRANCH   1   5
BRANCH   3  14
ATOM     14  C   UNL     1      31.101  24.494  19.037  0.00  0.00    +0.108 C 
BRANCH  14  15
ATOM     15  C   UNL     1      31.951  23.320  19.559  0.00  0.00    +0.011 C 
ATOM     16  C   UNL     1      31.382  22.666  20.815  0.00  0.00    +0.033 C 
ATOM     17  C   UNL     1      31.304  23.670  21.955  0.00  0.00    +0.161 C 
ATOM     18  O   UNL     1      32.507  24.410  22.150  0.00  0.00    -0.373 OA
ATOM     19  C   UNL     1      33.324  24.852  21.027  0.00  0.00    +0.070 C 
ATOM     20  C   UNL     1      33.123  26.312  20.491  0.00  0.00    +0.035 C 
ATOM     21  C   UNL     1      34.154  26.788  21.514  0.00  0.00    +0.006 C 
ATOM     22  C   UNL     1      34.725  25.358  21.513  0.00  0.00    +0.035 C 
ATOM     23  C   UNL     1      33.375  23.792  19.920  0.00  0.00    +0.040 C 
ENDBRANCH  14  15
ENDBRANCH   3  14
TORSDOF 5
ENDMDL
MODEL 8
REMARK VINA RESULT:      -6.3      1.874      2.743
REMARK  Name = ZINC000560333501
REMARK  5 active torsions:
REMARK  status: ('A' for Active; 'I' for Inactive)
REMARK    1  A    between atoms: C_2  and  C_3
REMARK    2  A    between atoms: C_7  and  C_8
REMARK    3  A    between atoms: C_8  and  C_9
REMARK    4  A    between atoms: N_11  and  C_12
REMARK    5  A    between atoms: C_12  and  C_13
REMARK                            x       y       z     vdW  Elec       q    Type
REMARK                         _______ _______ _______ _____ _____    ______ ____
ROOT
ATOM      1  C   UNL     1      28.739  22.627  17.053  0.00  0.00    +0.217 C 
ATOM      2  O   UNL     1      27.881  22.758  17.930  0.00  0.00    -0.275 OA
ATOM      3  N   UNL     1      29.997  23.199  17.134  0.00  0.00    -0.315 N 
ATOM      4  H   UNL     1      30.706  22.796  16.533  0.00  0.00    +0.149 HD
ENDROOT
BRANCH   1   5
ATOM      5  C   UNL     1      28.458  21.820  15.807  0.00  0.00    +0.131 C 
BRANCH   5  10
ATOM      6  C   UNL     1      30.951  22.602  13.000  0.00  0.00    +0.052 A 
ATOM      7  C   UNL     1      31.868  21.557  13.159  0.00  0.00    +0.019 A 
ATOM      8  C   UNL     1      31.664  20.598  14.151  0.00  0.00    +0.002 A 
ATOM      9  C   UNL     1      30.545  20.675  14.982  0.00  0.00    +0.004 A 
ATOM     10  C   UNL     1      29.611  21.711  14.833  0.00  0.00    -0.037 A 
ATOM     11  C   UNL     1      29.830  22.679  13.839  0.00  0.00    +0.023 A 
BRANCH   6  13
ATOM     12  N   UNL     1      31.348  24.400  11.172  0.00  0.00    -0.191 NA
ATOM     13  C   UNL     1      31.172  23.598  11.994  0.00  0.00    +0.099 C 
ENDBRANCH   6  13
ENDBRANCH   5  10
ENDBRANCH   1   5
BRANCH   3  14
ATOM     14  C   UNL     1      30.442  23.697  18.423  0.00  0.00    +0.108 C 
BRANCH  14  15
ATOM     15  C   UNL     1      31.433  22.808  19.198  0.00  0.00    +0.011 C 
ATOM     16  C   UNL     1      31.090  22.657  20.677  0.00  0.00    +0.033 C 
ATOM     17  C   UNL     1      31.103  24.010  21.372  0.00  0.00    +0.161 C 
ATOM     18  O   UNL     1      32.269  24.783  21.098  0.00  0.00    -0.373 OA
ATOM     19  C   UNL     1      32.891  24.789  19.780  0.00  0.00    +0.070 C 
ATOM     20  C   UNL     1      32.520  25.946  18.788  0.00  0.00    +0.035 C 
ATOM     21  C   UNL     1      33.649  26.778  19.397  0.00  0.00    +0.006 C 
ATOM     22  C   UNL     1      34.309  25.454  19.827  0.00  0.00    +0.035 C 
ATOM     23  C   UNL     1      32.859  23.396  19.139  0.00  0.00    +0.040 C 
ENDBRANCH  14  15
ENDBRANCH   3  14
TORSDOF 5
ENDMDL
MODEL 9
REMARK VINA RESULT:      -6.3      4.509      6.273
REMARK  Name = ZINC000560333501
REMARK  5 active torsions:
REMARK  status: ('A' for Active; 'I' for Inactive)
REMARK    1  A    between atoms: C_2  and  C_3
REMARK    2  A    between atoms: C_7  and  C_8
REMARK    3  A    between atoms: C_8  and  C_9
REMARK    4  A    between atoms: N_11  and  C_12
REMARK    5  A    between atoms: C_12  and  C_13
REMARK                            x       y       z     vdW  Elec       q    Type
REMARK                         _______ _______ _______ _____ _____    ______ ____
ROOT
ATOM      1  C   UNL     1      30.281  22.945  13.892  0.00  0.00    +0.217 C 
ATOM      2  O   UNL     1      30.955  23.753  14.536  0.00  0.00    -0.275 OA
ATOM      3  N   UNL     1      30.115  23.021  12.519  0.00  0.00    -0.315 N 
ATOM      4  H   UNL     1      29.810  22.171  12.063  0.00  0.00    +0.149 HD
ENDROOT
BRANCH   1   5
ATOM      5  C   UNL     1      29.575  21.801  14.580  0.00  0.00    +0.131 C 
BRANCH   5  10
ATOM      6  C   UNL     1      32.146  19.178  15.682  0.00  0.00    +0.052 A 
ATOM      7  C   UNL     1      31.707  18.058  14.968  0.00  0.00    +0.019 A 
ATOM      8  C   UNL     1      30.605  18.162  14.121  0.00  0.00    +0.002 A 
ATOM      9  C   UNL     1      29.941  19.382  13.980  0.00  0.00    +0.004 A 
ATOM     10  C   UNL     1      30.370  20.517  14.682  0.00  0.00    -0.037 A 
ATOM     11  C   UNL     1      31.476  20.401  15.541  0.00  0.00    +0.023 A 
BRANCH   6  13
ATOM     12  N   UNL     1      34.181  18.979  17.279  0.00  0.00    -0.191 NA
ATOM     13  C   UNL     1      33.268  19.065  16.567  0.00  0.00    +0.099 C 
ENDBRANCH   6  13
ENDBRANCH   5  10
ENDBRANCH   1   5
BRANCH   3  14
ATOM     14  C   UNL     1      31.015  23.878  11.767  0.00  0.00    +0.108 C 
BRANCH  14  15
ATOM     15  C   UNL     1      31.947  23.179  10.760  0.00  0.00    +0.011 C 
ATOM     16  C   UNL     1      32.989  22.278  11.417  0.00  0.00    +0.033 C 
ATOM     17  C   UNL     1      33.892  23.084  12.339  0.00  0.00    +0.161 C 
ATOM     18  O   UNL     1      34.409  24.270  11.740  0.00  0.00    -0.373 OA
ATOM     19  C   UNL     1      33.606  25.085  10.838  0.00  0.00    +0.070 C 
ATOM     20  C   UNL     1      32.856  26.329  11.429  0.00  0.00    +0.035 C 
ATOM     21  C   UNL     1      34.112  27.161  11.168  0.00  0.00    +0.006 C 
ATOM     22  C   UNL     1      34.491  26.134  10.084  0.00  0.00    +0.035 C 
ATOM     23  C   UNL     1      32.730  24.215   9.927  0.00  0.00    +0.040 C 
ENDBRANCH  14  15
ENDBRANCH   3  14
TORSDOF 5
ENDMDL
