MODEL 1
REMARK VINA RESULT:      -6.5      0.000      0.000
REMARK  Name = ZINC000543478179
REMARK  8 active torsions:
REMARK  status: ('A' for Active; 'I' for Inactive)
REMARK    1  A    between atoms: C_1  and  C_2
REMARK    2  A    between atoms: C_2  and  N_3
REMARK    3  A    between atoms: N_9  and  C_10
REMARK    4  A    between atoms: C_10  and  C_11
REMARK    5  A    between atoms: C_10  and  C_12
REMARK    6  A    between atoms: C_15  and  O_16
REMARK    7  A    between atoms: O_16  and  C_17
REMARK    8  A    between atoms: C_17  and  C_18
REMARK                            x       y       z     vdW  Elec       q    Type
REMARK                         _______ _______ _______ _____ _____    ______ ____
ROOT
ATOM      1  C   UNL     1      30.458  22.714  15.086  0.00  0.00    +0.102 C 
ATOM      2  C   UNL     1      30.642  21.190  15.066  0.00  0.00    +0.033 C 
ENDROOT
BRANCH   1   9
ATOM      3  N   UNL     1      31.727  24.823  20.986  0.00  0.00    -0.299 N 
ATOM      4  C   UNL     1      30.479  24.067  20.881  0.00  0.00    +0.127 C 
ATOM      5  C   UNL     1      29.658  24.484  19.656  0.00  0.00    +0.129 C 
ATOM      6  N   UNL     1      30.457  24.286  18.451  0.00  0.00    -0.275 N 
ATOM      7  C   UNL     1      29.946  23.550  17.391  0.00  0.00    +0.303 C 
ATOM      8  O   UNL     1      28.816  23.078  17.389  0.00  0.00    -0.253 OA
ATOM      9  N   UNL     1      30.822  23.359  16.351  0.00  0.00    -0.293 N 
ATOM     10  C   UNL     1      31.789  24.894  18.490  0.00  0.00    +0.205 C 
ATOM     11  C   UNL     1      32.331  25.362  19.853  0.00  0.00    +0.233 C 
ATOM     12  O   UNL     1      33.340  26.067  19.912  0.00  0.00    -0.274 OA
ATOM     13  H   UNL     1      31.500  24.093  16.242  0.00  0.00    +0.151 HD
BRANCH   3  15
ATOM     14  C   UNL     1      31.886  23.749  23.204  0.00  0.00    +0.024 C 
ATOM     15  C   UNL     1      32.519  24.712  22.209  0.00  0.00    +0.104 C 
ENDBRANCH   3  15
ENDBRANCH   1   9
BRANCH   1  16
ATOM     16  C   UNL     1      31.301  23.348  13.986  0.00  0.00    -0.024 A 
ATOM     17  C   UNL     1      32.630  22.925  13.796  0.00  0.00    +0.009 A 
ATOM     18  C   UNL     1      33.456  23.539  12.859  0.00  0.00    +0.049 A 
ATOM     19  C   UNL     1      32.988  24.625  12.119  0.00  0.00    +0.156 A 
ATOM     20  C   UNL     1      31.651  25.010  12.254  0.00  0.00    +0.165 A 
ATOM     21  F   UNL     1      31.159  26.019  11.521  0.00  0.00    -0.202 F 
ATOM     22  C   UNL     1      30.810  24.383  13.180  0.00  0.00    +0.047 A 
BRANCH  19  23
ATOM     23  O   UNL     1      33.776  25.360  11.274  0.00  0.00    -0.489 OA
BRANCH  23  24
ATOM     24  C   UNL     1      34.569  26.359  11.923  0.00  0.00    +0.232 C 
BRANCH  24  25
ATOM     25  C   UNL     1      34.080  27.709  11.512  0.00  0.00    +0.027 C 
ATOM     26  C   UNL     1      34.628  28.948  12.172  0.00  0.00    +0.007 C 
ATOM     27  C   UNL     1      33.207  28.527  12.432  0.00  0.00    +0.007 C 
ENDBRANCH  24  25
ENDBRANCH  23  24
ENDBRANCH  19  23
ENDBRANCH   1  16
TORSDOF 6
ENDMDL
MODEL 2
REMARK VINA RESULT:      -6.3      3.979      9.296
REMARK  Name = ZINC000543478179
REMARK  8 active torsions:
REMARK  status: ('A' for Active; 'I' for Inactive)
REMARK    1  A    between atoms: C_1  and  C_2
REMARK    2  A    between atoms: C_2  and  N_3
REMARK    3  A    between atoms: N_9  and  C_10
REMARK    4  A    between atoms: C_10  and  C_11
REMARK    5  A    between atoms: C_10  and  C_12
REMARK    6  A    between atoms: C_15  and  O_16
REMARK    7  A    between atoms: O_16  and  C_17
REMARK    8  A    between atoms: C_17  and  C_18
REMARK                            x       y       z     vdW  Elec       q    Type
REMARK                         _______ _______ _______ _____ _____    ______ ____
ROOT
ATOM      1  C   UNL     1      32.263  25.021  13.962  0.00  0.00    +0.102 C 
ATOM      2  C   UNL     1      33.273  25.793  14.822  0.00  0.00    +0.033 C 
ENDROOT
BRANCH   1   9
ATOM      3  N   UNL     1      35.079  22.532   8.790  0.00  0.00    -0.299 N 
ATOM      4  C   UNL     1      34.403  23.806   8.544  0.00  0.00    +0.127 C 
ATOM      5  C   UNL     1      33.017  23.854   9.194  0.00  0.00    +0.129 C 
ATOM      6  N   UNL     1      33.152  23.637  10.632  0.00  0.00    -0.275 N 
ATOM      7  C   UNL     1      32.585  24.535  11.525  0.00  0.00    +0.303 C 
ATOM      8  O   UNL     1      31.924  25.503  11.172  0.00  0.00    -0.253 OA
ATOM      9  N   UNL     1      32.853  24.274  12.847  0.00  0.00    -0.293 N 
ATOM     10  C   UNL     1      33.926  22.452  11.005  0.00  0.00    +0.205 C 
ATOM     11  C   UNL     1      34.776  21.770   9.916  0.00  0.00    +0.233 C 
ATOM     12  O   UNL     1      35.268  20.659  10.116  0.00  0.00    -0.274 OA
ATOM     13  H   UNL     1      33.001  23.302  13.054  0.00  0.00    +0.151 HD
BRANCH   3  15
ATOM     14  C   UNL     1      36.027  21.867   6.608  0.00  0.00    +0.024 C 
ATOM     15  C   UNL     1      36.309  22.232   8.060  0.00  0.00    +0.104 C 
ENDBRANCH   3  15
ENDBRANCH   1   9
BRANCH   1  16
ATOM     16  C   UNL     1      31.502  24.027  14.831  0.00  0.00    -0.024 A 
ATOM     17  C   UNL     1      30.664  23.071  14.226  0.00  0.00    +0.009 A 
ATOM     18  C   UNL     1      29.889  22.204  14.991  0.00  0.00    +0.049 A 
ATOM     19  C   UNL     1      29.896  22.302  16.382  0.00  0.00    +0.156 A 
ATOM     20  C   UNL     1      30.773  23.202  16.993  0.00  0.00    +0.165 A 
ATOM     21  F   UNL     1      30.837  23.285  18.330  0.00  0.00    -0.202 F 
ATOM     22  C   UNL     1      31.570  24.063  16.231  0.00  0.00    +0.047 A 
BRANCH  19  23
ATOM     23  O   UNL     1      29.069  21.573  17.196  0.00  0.00    -0.489 OA
BRANCH  23  24
ATOM     24  C   UNL     1      27.730  22.072  17.276  0.00  0.00    +0.232 C 
BRANCH  24  25
ATOM     25  C   UNL     1      27.145  21.680  18.593  0.00  0.00    +0.027 C 
ATOM     26  C   UNL     1      25.836  22.271  19.049  0.00  0.00    +0.007 C 
ATOM     27  C   UNL     1      27.113  22.655  19.745  0.00  0.00    +0.007 C 
ENDBRANCH  24  25
ENDBRANCH  23  24
ENDBRANCH  19  23
ENDBRANCH   1  16
TORSDOF 6
ENDMDL
MODEL 3
REMARK VINA RESULT:      -6.2      1.292      2.020
REMARK  Name = ZINC000543478179
REMARK  8 active torsions:
REMARK  status: ('A' for Active; 'I' for Inactive)
REMARK    1  A    between atoms: C_1  and  C_2
REMARK    2  A    between atoms: C_2  and  N_3
REMARK    3  A    between atoms: N_9  and  C_10
REMARK    4  A    between atoms: C_10  and  C_11
REMARK    5  A    between atoms: C_10  and  C_12
REMARK    6  A    between atoms: C_15  and  O_16
REMARK    7  A    between atoms: O_16  and  C_17
REMARK    8  A    between atoms: C_17  and  C_18
REMARK                            x       y       z     vdW  Elec       q    Type
REMARK                         _______ _______ _______ _____ _____    ______ ____
ROOT
ATOM      1  C   UNL     1      30.625  22.811  15.070  0.00  0.00    +0.102 C 
ATOM      2  C   UNL     1      30.908  21.304  14.995  0.00  0.00    +0.033 C 
ENDROOT
BRANCH   1   9
ATOM      3  N   UNL     1      31.760  24.814  21.033  0.00  0.00    -0.299 N 
ATOM      4  C   UNL     1      30.526  24.040  20.891  0.00  0.00    +0.127 C 
ATOM      5  C   UNL     1      29.720  24.470  19.662  0.00  0.00    +0.129 C 
ATOM      6  N   UNL     1      30.542  24.311  18.466  0.00  0.00    -0.275 N 
ATOM      7  C   UNL     1      30.061  23.590  17.383  0.00  0.00    +0.303 C 
ATOM      8  O   UNL     1      28.940  23.100  17.351  0.00  0.00    -0.253 OA
ATOM      9  N   UNL     1      30.957  23.435  16.354  0.00  0.00    -0.293 N 
ATOM     10  C   UNL     1      31.863  24.939  18.541  0.00  0.00    +0.205 C 
ATOM     11  C   UNL     1      32.374  25.387  19.923  0.00  0.00    +0.233 C 
ATOM     12  O   UNL     1      33.370  26.106  20.014  0.00  0.00    -0.274 OA
ATOM     13  H   UNL     1      31.625  24.182  16.272  0.00  0.00    +0.151 HD
BRANCH   3  15
ATOM     14  C   UNL     1      31.885  23.714  23.242  0.00  0.00    +0.024 C 
ATOM     15  C   UNL     1      32.533  24.689  22.268  0.00  0.00    +0.104 C 
ENDBRANCH   3  15
ENDBRANCH   1   9
BRANCH   1  16
ATOM     16  C   UNL     1      31.416  23.536  13.987  0.00  0.00    -0.024 A 
ATOM     17  C   UNL     1      32.796  23.290  13.849  0.00  0.00    +0.009 A 
ATOM     18  C   UNL     1      33.566  23.995  12.929  0.00  0.00    +0.049 A 
ATOM     19  C   UNL     1      32.986  25.000  12.155  0.00  0.00    +0.156 A 
ATOM     20  C   UNL     1      31.606  25.207  12.238  0.00  0.00    +0.165 A 
ATOM     21  F   UNL     1      31.012  26.133  11.471  0.00  0.00    -0.202 F 
ATOM     22  C   UNL     1      30.822  24.487  13.147  0.00  0.00    +0.047 A 
BRANCH  19  23
ATOM     23  O   UNL     1      33.700  25.821  11.323  0.00  0.00    -0.489 OA
BRANCH  23  24
ATOM     24  C   UNL     1      34.602  25.138  10.448  0.00  0.00    +0.232 C 
BRANCH  24  25
ATOM     25  C   UNL     1      33.824  24.540   9.321  0.00  0.00    +0.027 C 
ATOM     26  C   UNL     1      33.715  23.044   9.183  0.00  0.00    +0.007 C 
ATOM     27  C   UNL     1      34.527  23.830   8.189  0.00  0.00    +0.007 C 
ENDBRANCH  24  25
ENDBRANCH  23  24
ENDBRANCH  19  23
ENDBRANCH   1  16
TORSDOF 6
ENDMDL
MODEL 4
REMARK VINA RESULT:      -6.1      3.951      7.809
REMARK  Name = ZINC000543478179
REMARK  8 active torsions:
REMARK  status: ('A' for Active; 'I' for Inactive)
REMARK    1  A    between atoms: C_1  and  C_2
REMARK    2  A    between atoms: C_2  and  N_3
REMARK    3  A    between atoms: N_9  and  C_10
REMARK    4  A    between atoms: C_10  and  C_11
REMARK    5  A    between atoms: C_10  and  C_12
REMARK    6  A    between atoms: C_15  and  O_16
REMARK    7  A    between atoms: O_16  and  C_17
REMARK    8  A    between atoms: C_17  and  C_18
REMARK                            x       y       z     vdW  Elec       q    Type
REMARK                         _______ _______ _______ _____ _____    ______ ____
ROOT
ATOM      1  C   UNL     1      31.767  22.543  17.396  0.00  0.00    +0.102 C 
ATOM      2  C   UNL     1      32.485  23.189  18.589  0.00  0.00    +0.033 C 
ENDROOT
BRANCH   1   9
ATOM      3  N   UNL     1      32.549  25.979  12.063  0.00  0.00    -0.299 N 
ATOM      4  C   UNL     1      31.265  26.200  12.729  0.00  0.00    +0.127 C 
ATOM      5  C   UNL     1      30.617  24.884  13.170  0.00  0.00    +0.129 C 
ATOM      6  N   UNL     1      31.524  24.178  14.070  0.00  0.00    -0.275 N 
ATOM      7  C   UNL     1      31.075  23.744  15.310  0.00  0.00    +0.303 C 
ATOM      8  O   UNL     1      29.919  23.884  15.688  0.00  0.00    -0.253 OA
ATOM      9  N   UNL     1      32.041  23.172  16.101  0.00  0.00    -0.293 N 
ATOM     10  C   UNL     1      32.887  24.010  13.562  0.00  0.00    +0.205 C 
ATOM     11  C   UNL     1      33.313  24.848  12.342  0.00  0.00    +0.233 C 
ATOM     12  O   UNL     1      34.360  24.593  11.747  0.00  0.00    -0.274 OA
ATOM     13  H   UNL     1      32.782  22.725  15.591  0.00  0.00    +0.151 HD
BRANCH   3  15
ATOM     14  C   UNL     1      33.535  28.226  12.351  0.00  0.00    +0.024 C 
ATOM     15  C   UNL     1      33.194  27.101  11.382  0.00  0.00    +0.104 C 
ENDBRANCH   3  15
ENDBRANCH   1   9
BRANCH   1  16
ATOM     16  C   UNL     1      32.167  21.076  17.289  0.00  0.00    -0.024 A 
ATOM     17  C   UNL     1      33.247  20.591  18.051  0.00  0.00    +0.009 A 
ATOM     18  C   UNL     1      33.694  19.280  17.915  0.00  0.00    +0.049 A 
ATOM     19  C   UNL     1      33.101  18.432  16.980  0.00  0.00    +0.156 A 
ATOM     20  C   UNL     1      31.987  18.883  16.267  0.00  0.00    +0.165 A 
ATOM     21  F   UNL     1      31.367  18.075  15.396  0.00  0.00    -0.202 F 
ATOM     22  C   UNL     1      31.521  20.194  16.413  0.00  0.00    +0.047 A 
BRANCH  19  23
ATOM     23  O   UNL     1      33.566  17.174  16.699  0.00  0.00    -0.489 OA
BRANCH  23  24
ATOM     24  C   UNL     1      34.682  17.141  15.805  0.00  0.00    +0.232 C 
BRANCH  24  25
ATOM     25  C   UNL     1      34.233  16.601  14.487  0.00  0.00    +0.027 C 
ATOM     26  C   UNL     1      35.170  16.601  13.307  0.00  0.00    +0.007 C 
ATOM     27  C   UNL     1      33.982  17.524  13.320  0.00  0.00    +0.007 C 
ENDBRANCH  24  25
ENDBRANCH  23  24
ENDBRANCH  19  23
ENDBRANCH   1  16
TORSDOF 6
ENDMDL
MODEL 5
REMARK VINA RESULT:      -6.0      3.587      7.448
REMARK  Name = ZINC000543478179
REMARK  8 active torsions:
REMARK  status: ('A' for Active; 'I' for Inactive)
REMARK    1  A    between atoms: C_1  and  C_2
REMARK    2  A    between atoms: C_2  and  N_3
REMARK    3  A    between atoms: N_9  and  C_10
REMARK    4  A    between atoms: C_10  and  C_11
REMARK    5  A    between atoms: C_10  and  C_12
REMARK    6  A    between atoms: C_15  and  O_16
REMARK    7  A    between atoms: O_16  and  C_17
REMARK    8  A    between atoms: C_17  and  C_18
REMARK                            x       y       z     vdW  Elec       q    Type
REMARK                         _______ _______ _______ _____ _____    ______ ____
ROOT
ATOM      1  C   UNL     1      30.301  23.473  15.953  0.00  0.00    +0.102 C 
ATOM      2  C   UNL     1      29.962  23.871  17.396  0.00  0.00    +0.033 C 
ENDROOT
BRANCH   1   9
ATOM      3  N   UNL     1      33.926  27.636  12.729  0.00  0.00    -0.299 N 
ATOM      4  C   UNL     1      32.727  27.207  12.007  0.00  0.00    +0.127 C 
ATOM      5  C   UNL     1      32.513  25.693  12.101  0.00  0.00    +0.129 C 
ATOM      6  N   UNL     1      32.406  25.309  13.505  0.00  0.00    -0.275 N 
ATOM      7  C   UNL     1      31.322  24.558  13.939  0.00  0.00    +0.303 C 
ATOM      8  O   UNL     1      30.447  24.151  13.187  0.00  0.00    -0.253 OA
ATOM      9  N   UNL     1      31.287  24.334  15.294  0.00  0.00    -0.293 N 
ATOM     10  C   UNL     1      33.491  25.795  14.360  0.00  0.00    +0.205 C 
ATOM     11  C   UNL     1      34.412  26.897  13.804  0.00  0.00    +0.233 C 
ATOM     12  O   UNL     1      35.459  27.185  14.386  0.00  0.00    -0.274 OA
ATOM     13  H   UNL     1      32.191  24.311  15.733  0.00  0.00    +0.151 HD
BRANCH   3  15
ATOM     14  C   UNL     1      35.588  29.076  11.603  0.00  0.00    +0.024 C 
ATOM     15  C   UNL     1      34.401  29.007  12.556  0.00  0.00    +0.104 C 
ENDBRANCH   3  15
ENDBRANCH   1   9
BRANCH   1  16
ATOM     16  C   UNL     1      30.842  22.048  15.926  0.00  0.00    -0.024 A 
ATOM     17  C   UNL     1      31.638  21.586  16.991  0.00  0.00    +0.009 A 
ATOM     18  C   UNL     1      32.219  20.321  16.961  0.00  0.00    +0.049 A 
ATOM     19  C   UNL     1      32.058  19.504  15.843  0.00  0.00    +0.156 A 
ATOM     20  C   UNL     1      31.217  19.927  14.810  0.00  0.00    +0.165 A 
ATOM     21  F   UNL     1      31.005  19.142  13.744  0.00  0.00    -0.202 F 
ATOM     22  C   UNL     1      30.614  21.189  14.843  0.00  0.00    +0.047 A 
BRANCH  19  23
ATOM     23  O   UNL     1      32.700  18.304  15.685  0.00  0.00    -0.489 OA
BRANCH  23  24
ATOM     24  C   UNL     1      34.071  18.414  15.288  0.00  0.00    +0.232 C 
BRANCH  24  25
ATOM     25  C   UNL     1      34.202  17.967  13.869  0.00  0.00    +0.027 C 
ATOM     26  C   UNL     1      33.339  16.850  13.342  0.00  0.00    +0.007 C 
ATOM     27  C   UNL     1      34.814  16.628  13.536  0.00  0.00    +0.007 C 
ENDBRANCH  24  25
ENDBRANCH  23  24
ENDBRANCH  19  23
ENDBRANCH   1  16
TORSDOF 6
ENDMDL
MODEL 6
REMARK VINA RESULT:      -6.0      4.056      9.250
REMARK  Name = ZINC000543478179
REMARK  8 active torsions:
REMARK  status: ('A' for Active; 'I' for Inactive)
REMARK    1  A    between atoms: C_1  and  C_2
REMARK    2  A    between atoms: C_2  and  N_3
REMARK    3  A    between atoms: N_9  and  C_10
REMARK    4  A    between atoms: C_10  and  C_11
REMARK    5  A    between atoms: C_10  and  C_12
REMARK    6  A    between atoms: C_15  and  O_16
REMARK    7  A    between atoms: O_16  and  C_17
REMARK    8  A    between atoms: C_17  and  C_18
REMARK                            x       y       z     vdW  Elec       q    Type
REMARK                         _______ _______ _______ _____ _____    ______ ____
ROOT
ATOM      1  C   UNL     1      32.897  25.725  13.200  0.00  0.00    +0.102 C 
ATOM      2  C   UNL     1      33.953  26.639  13.837  0.00  0.00    +0.033 C 
ENDROOT
BRANCH   1   9
ATOM      3  N   UNL     1      35.384  22.682   8.158  0.00  0.00    -0.299 N 
ATOM      4  C   UNL     1      34.804  23.987   7.838  0.00  0.00    +0.127 C 
ATOM      5  C   UNL     1      33.441  24.187   8.510  0.00  0.00    +0.129 C 
ATOM      6  N   UNL     1      33.594  24.057   9.956  0.00  0.00    -0.275 N 
ATOM      7  C   UNL     1      33.120  25.054  10.797  0.00  0.00    +0.303 C 
ATOM      8  O   UNL     1      32.528  26.045  10.391  0.00  0.00    -0.253 OA
ATOM      9  N   UNL     1      33.399  24.861  12.128  0.00  0.00    -0.293 N 
ATOM     10  C   UNL     1      34.282  22.841  10.395  0.00  0.00    +0.205 C 
ATOM     11  C   UNL     1      35.050  22.023   9.339  0.00  0.00    +0.233 C 
ATOM     12  O   UNL     1      35.460  20.893   9.605  0.00  0.00    -0.274 OA
ATOM     13  H   UNL     1      33.477  23.896  12.399  0.00  0.00    +0.151 HD
BRANCH   3  15
ATOM     14  C   UNL     1      36.197  21.526   6.132  0.00  0.00    +0.024 C 
ATOM     15  C   UNL     1      36.569  22.238   7.427  0.00  0.00    +0.104 C 
ENDBRANCH   3  15
ENDBRANCH   1   9
BRANCH   1  16
ATOM     16  C   UNL     1      32.286  24.826  14.269  0.00  0.00    -0.024 A 
ATOM     17  C   UNL     1      32.910  24.714  15.525  0.00  0.00    +0.009 A 
ATOM     18  C   UNL     1      32.429  23.838  16.494  0.00  0.00    +0.049 A 
ATOM     19  C   UNL     1      31.338  23.016  16.214  0.00  0.00    +0.156 A 
ATOM     20  C   UNL     1      30.672  23.167  14.995  0.00  0.00    +0.165 A 
ATOM     21  F   UNL     1      29.590  22.424  14.717  0.00  0.00    -0.202 F 
ATOM     22  C   UNL     1      31.138  24.059  14.024  0.00  0.00    +0.047 A 
BRANCH  19  23
ATOM     23  O   UNL     1      30.887  22.042  17.066  0.00  0.00    -0.489 OA
BRANCH  23  24
ATOM     24  C   UNL     1      31.675  20.848  17.070  0.00  0.00    +0.232 C 
BRANCH  24  25
ATOM     25  C   UNL     1      31.005  19.821  16.216  0.00  0.00    +0.027 C 
ATOM     26  C   UNL     1      31.669  18.492  15.965  0.00  0.00    +0.007 C 
ATOM     27  C   UNL     1      31.542  19.489  14.845  0.00  0.00    +0.007 C 
ENDBRANCH  24  25
ENDBRANCH  23  24
ENDBRANCH  19  23
ENDBRANCH   1  16
TORSDOF 6
ENDMDL
MODEL 7
REMARK VINA RESULT:      -6.0      4.689      8.476
REMARK  Name = ZINC000543478179
REMARK  8 active torsions:
REMARK  status: ('A' for Active; 'I' for Inactive)
REMARK    1  A    between atoms: C_1  and  C_2
REMARK    2  A    between atoms: C_2  and  N_3
REMARK    3  A    between atoms: N_9  and  C_10
REMARK    4  A    between atoms: C_10  and  C_11
REMARK    5  A    between atoms: C_10  and  C_12
REMARK    6  A    between atoms: C_15  and  O_16
REMARK    7  A    between atoms: O_16  and  C_17
REMARK    8  A    between atoms: C_17  and  C_18
REMARK                            x       y       z     vdW  Elec       q    Type
REMARK                         _______ _______ _______ _____ _____    ______ ____
ROOT
ATOM      1  C   UNL     1      31.197  23.224  16.799  0.00  0.00    +0.102 C 
ATOM      2  C   UNL     1      32.131  24.239  17.474  0.00  0.00    +0.033 C 
ENDROOT
BRANCH   1   9
ATOM      3  N   UNL     1      33.978  17.570  15.726  0.00  0.00    -0.299 N 
ATOM      4  C   UNL     1      33.639  18.306  14.508  0.00  0.00    +0.127 C 
ATOM      5  C   UNL     1      32.231  18.907  14.575  0.00  0.00    +0.129 C 
ATOM      6  N   UNL     1      32.142  19.796  15.730  0.00  0.00    -0.275 N 
ATOM      7  C   UNL     1      31.689  21.098  15.570  0.00  0.00    +0.303 C 
ATOM      8  O   UNL     1      31.308  21.547  14.497  0.00  0.00    -0.253 OA
ATOM      9  N   UNL     1      31.732  21.863  16.710  0.00  0.00    -0.293 N 
ATOM     10  C   UNL     1      32.581  19.206  16.995  0.00  0.00    +0.205 C 
ATOM     11  C   UNL     1      33.380  17.890  16.942  0.00  0.00    +0.233 C 
ATOM     12  O   UNL     1      33.584  17.244  17.971  0.00  0.00    -0.274 OA
ATOM     13  H   UNL     1      31.633  21.341  17.563  0.00  0.00    +0.151 HD
BRANCH   3  15
ATOM     14  C   UNL     1      36.447  17.604  15.788  0.00  0.00    +0.024 C 
ATOM     15  C   UNL     1      35.188  16.749  15.741  0.00  0.00    +0.104 C 
ENDBRANCH   3  15
ENDBRANCH   1   9
BRANCH   1  16
ATOM     16  C   UNL     1      29.879  23.152  17.563  0.00  0.00    -0.024 A 
ATOM     17  C   UNL     1      29.711  23.913  18.735  0.00  0.00    +0.009 A 
ATOM     18  C   UNL     1      28.556  23.808  19.503  0.00  0.00    +0.049 A 
ATOM     19  C   UNL     1      27.557  22.903  19.145  0.00  0.00    +0.156 A 
ATOM     20  C   UNL     1      27.686  22.192  17.949  0.00  0.00    +0.165 A 
ATOM     21  F   UNL     1      26.720  21.350  17.553  0.00  0.00    -0.202 F 
ATOM     22  C   UNL     1      28.836  22.308  17.161  0.00  0.00    +0.047 A 
BRANCH  19  23
ATOM     23  O   UNL     1      26.453  22.651  19.916  0.00  0.00    -0.489 OA
BRANCH  23  24
ATOM     24  C   UNL     1      25.567  23.765  20.065  0.00  0.00    +0.232 C 
BRANCH  24  25
ATOM     25  C   UNL     1      24.289  23.467  19.353  0.00  0.00    +0.027 C 
ATOM     26  C   UNL     1      24.180  23.681  17.865  0.00  0.00    +0.007 C 
ATOM     27  C   UNL     1      23.430  24.583  18.808  0.00  0.00    +0.007 C 
ENDBRANCH  24  25
ENDBRANCH  23  24
ENDBRANCH  19  23
ENDBRANCH   1  16
TORSDOF 6
ENDMDL
MODEL 8
REMARK VINA RESULT:      -5.9      4.049      7.582
REMARK  Name = ZINC000543478179
REMARK  8 active torsions:
REMARK  status: ('A' for Active; 'I' for Inactive)
REMARK    1  A    between atoms: C_1  and  C_2
REMARK    2  A    between atoms: C_2  and  N_3
REMARK    3  A    between atoms: N_9  and  C_10
REMARK    4  A    between atoms: C_10  and  C_11
REMARK    5  A    between atoms: C_10  and  C_12
REMARK    6  A    between atoms: C_15  and  O_16
REMARK    7  A    between atoms: O_16  and  C_17
REMARK    8  A    between atoms: C_17  and  C_18
REMARK                            x       y       z     vdW  Elec       q    Type
REMARK                         _______ _______ _______ _____ _____    ______ ____
ROOT
ATOM      1  C   UNL     1      31.754  21.784  16.236  0.00  0.00    +0.102 C 
ATOM      2  C   UNL     1      32.422  22.209  17.552  0.00  0.00    +0.033 C 
ENDROOT
BRANCH   1   9
ATOM      3  N   UNL     1      32.725  26.354  11.873  0.00  0.00    -0.299 N 
ATOM      4  C   UNL     1      31.724  26.699  12.882  0.00  0.00    +0.127 C 
ATOM      5  C   UNL     1      30.756  25.542  13.147  0.00  0.00    +0.129 C 
ATOM      6  N   UNL     1      31.512  24.372  13.583  0.00  0.00    -0.275 N 
ATOM      7  C   UNL     1      31.161  23.715  14.754  0.00  0.00    +0.303 C 
ATOM      8  O   UNL     1      30.203  24.041  15.442  0.00  0.00    -0.253 OA
ATOM      9  N   UNL     1      31.998  22.684  15.106  0.00  0.00    -0.293 N 
ATOM     10  C   UNL     1      32.630  24.003  12.713  0.00  0.00    +0.205 C 
ATOM     11  C   UNL     1      33.099  25.029  11.664  0.00  0.00    +0.233 C 
ATOM     12  O   UNL     1      33.881  24.694  10.773  0.00  0.00    -0.274 OA
ATOM     13  H   UNL     1      32.447  22.232  14.328  0.00  0.00    +0.151 HD
BRANCH   3  15
ATOM     14  C   UNL     1      33.788  28.533  12.348  0.00  0.00    +0.024 C 
ATOM     15  C   UNL     1      33.584  27.410  11.339  0.00  0.00    +0.104 C 
ENDBRANCH   3  15
ENDBRANCH   1   9
BRANCH   1  16
ATOM     16  C   UNL     1      32.244  20.398  15.836  0.00  0.00    -0.024 A 
ATOM     17  C   UNL     1      33.500  19.947  16.285  0.00  0.00    +0.009 A 
ATOM     18  C   UNL     1      34.017  18.723  15.870  0.00  0.00    +0.049 A 
ATOM     19  C   UNL     1      33.312  17.938  14.958  0.00  0.00    +0.156 A 
ATOM     20  C   UNL     1      32.036  18.346  14.559  0.00  0.00    +0.165 A 
ATOM     21  F   UNL     1      31.314  17.589  13.720  0.00  0.00    -0.202 F 
ATOM     22  C   UNL     1      31.502  19.566  14.987  0.00  0.00    +0.047 A 
BRANCH  19  23
ATOM     23  O   UNL     1      33.810  16.786  14.407  0.00  0.00    -0.489 OA
BRANCH  23  24
ATOM     24  C   UNL     1      34.935  16.982  13.545  0.00  0.00    +0.232 C 
BRANCH  24  25
ATOM     25  C   UNL     1      34.446  17.378  12.191  0.00  0.00    +0.027 C 
ATOM     26  C   UNL     1      35.427  17.681  11.088  0.00  0.00    +0.007 C 
ATOM     27  C   UNL     1      34.614  18.793  11.694  0.00  0.00    +0.007 C 
ENDBRANCH  24  25
ENDBRANCH  23  24
ENDBRANCH  19  23
ENDBRANCH   1  16
TORSDOF 6
ENDMDL
MODEL 9
REMARK VINA RESULT:      -5.8      3.330      4.723
REMARK  Name = ZINC000543478179
REMARK  8 active torsions:
REMARK  status: ('A' for Active; 'I' for Inactive)
REMARK    1  A    between atoms: C_1  and  C_2
REMARK    2  A    between atoms: C_2  and  N_3
REMARK    3  A    between atoms: N_9  and  C_10
REMARK    4  A    between atoms: C_10  and  C_11
REMARK    5  A    between atoms: C_10  and  C_12
REMARK    6  A    between atoms: C_15  and  O_16
REMARK    7  A    between atoms: O_16  and  C_17
REMARK    8  A    between atoms: C_17  and  C_18
REMARK                            x       y       z     vdW  Elec       q    Type
REMARK                         _______ _______ _______ _____ _____    ______ ____
ROOT
ATOM      1  C   UNL     1      31.805  26.081  13.160  0.00  0.00    +0.102 C 
ATOM      2  C   UNL     1      30.364  26.381  12.721  0.00  0.00    +0.033 C 
ENDROOT
BRANCH   1   9
ATOM      3  N   UNL     1      32.418  21.525  17.602  0.00  0.00    -0.299 N 
ATOM      4  C   UNL     1      31.699  21.094  16.403  0.00  0.00    +0.127 C 
ATOM      5  C   UNL     1      30.669  22.132  15.949  0.00  0.00    +0.129 C 
ATOM      6  N   UNL     1      31.346  23.399  15.688  0.00  0.00    -0.275 N 
ATOM      7  C   UNL     1      31.165  24.046  14.473  0.00  0.00    +0.303 C 
ATOM      8  O   UNL     1      30.419  23.629  13.598  0.00  0.00    -0.253 OA
ATOM      9  N   UNL     1      31.921  25.182  14.311  0.00  0.00    -0.293 N 
ATOM     10  C   UNL     1      32.205  23.873  16.775  0.00  0.00    +0.205 C 
ATOM     11  C   UNL     1      32.572  22.879  17.893  0.00  0.00    +0.233 C 
ATOM     12  O   UNL     1      33.104  23.277  18.929  0.00  0.00    -0.274 OA
ATOM     13  H   UNL     1      32.138  25.659  15.168  0.00  0.00    +0.151 HD
BRANCH   3  15
ATOM     14  C   UNL     1      33.341  19.234  17.558  0.00  0.00    +0.024 C 
ATOM     15  C   UNL     1      33.274  20.565  18.297  0.00  0.00    +0.104 C 
ENDBRANCH   3  15
ENDBRANCH   1   9
BRANCH   1  16
ATOM     16  C   UNL     1      32.573  25.452  12.003  0.00  0.00    -0.024 A 
ATOM     17  C   UNL     1      33.879  24.972  12.215  0.00  0.00    +0.009 A 
ATOM     18  C   UNL     1      34.642  24.469  11.165  0.00  0.00    +0.049 A 
ATOM     19  C   UNL     1      34.135  24.478   9.865  0.00  0.00    +0.156 A 
ATOM     20  C   UNL     1      32.817  24.892   9.656  0.00  0.00    +0.165 A 
ATOM     21  F   UNL     1      32.286  24.867   8.425  0.00  0.00    -0.202 F 
ATOM     22  C   UNL     1      32.038  25.380  10.711  0.00  0.00    +0.047 A 
BRANCH  19  23
ATOM     23  O   UNL     1      34.869  24.121   8.765  0.00  0.00    -0.489 OA
BRANCH  23  24
ATOM     24  C   UNL     1      34.821  22.726   8.449  0.00  0.00    +0.232 C 
BRANCH  24  25
ATOM     25  C   UNL     1      36.091  22.339   7.765  0.00  0.00    +0.027 C 
ATOM     26  C   UNL     1      36.552  23.086   6.541  0.00  0.00    +0.007 C 
ATOM     27  C   UNL     1      36.067  21.668   6.414  0.00  0.00    +0.007 C 
ENDBRANCH  24  25
ENDBRANCH  23  24
ENDBRANCH  19  23
ENDBRANCH   1  16
TORSDOF 6
ENDMDL
