MODEL 1
REMARK VINA RESULT:      -6.3      0.000      0.000
REMARK  Name = ZINC000329563636
REMARK  3 active torsions:
REMARK  status: ('A' for Active; 'I' for Inactive)
REMARK    1  A    between atoms: C_1  and  C_2
REMARK    2  A    between atoms: C_2  and  N_3
REMARK    3  A    between atoms: N_9  and  C_10
REMARK                            x       y       z     vdW  Elec       q    Type
REMARK                         _______ _______ _______ _____ _____    ______ ____
ROOT
ATOM      1  C   UNL     1      34.748  20.742  14.543  0.00  0.00    +0.112 C 
ATOM      2  C   UNL     1      35.709  21.377  15.555  0.00  0.00    +0.075 C 
ATOM      3  C   UNL     1      35.055  21.837  16.866  0.00  0.00    +0.113 C 
ATOM      4  C   UNL     1      34.890  20.724  17.935  0.00  0.00    +0.048 C 
ATOM      5  C   UNL     1      35.849  21.074  19.067  0.00  0.00    +0.004 C 
ATOM      6  C   UNL     1      35.926  22.587  19.027  0.00  0.00    +0.004 C 
ATOM      7  C   UNL     1      35.985  22.882  17.537  0.00  0.00    +0.048 C 
ATOM      8  O   UNL     1      33.789  22.485  16.637  0.00  0.00    -0.485 OA
ATOM      9  C   UNL     1      32.900  21.696  15.955  0.00  0.00    +0.126 A 
ATOM     10  C   UNL     1      31.553  21.807  16.296  0.00  0.00    +0.046 A 
ATOM     11  C   UNL     1      30.604  20.999  15.665  0.00  0.00    +0.004 A 
ATOM     12  C   UNL     1      31.002  20.101  14.678  0.00  0.00    +0.001 A 
ATOM     13  C   UNL     1      32.347  20.017  14.317  0.00  0.00    +0.009 A 
ATOM     14  C   UNL     1      33.309  20.816  14.956  0.00  0.00    +0.015 A 
ENDROOT
BRANCH   1  21
ATOM     15  N   UNL     1      34.326  22.557   8.507  0.00  0.00    -0.299 N 
ATOM     16  C   UNL     1      34.315  21.113   8.739  0.00  0.00    +0.127 C 
ATOM     17  C   UNL     1      35.434  20.689   9.685  0.00  0.00    +0.129 C 
ATOM     18  N   UNL     1      35.275  21.397  10.946  0.00  0.00    -0.275 N 
ATOM     19  C   UNL     1      35.073  20.669  12.098  0.00  0.00    +0.303 C 
ATOM     20  O   UNL     1      35.019  19.440  12.101  0.00  0.00    -0.253 OA
ATOM     21  N   UNL     1      34.904  21.393  13.240  0.00  0.00    -0.292 N 
ATOM     22  C   UNL     1      35.272  22.857  10.822  0.00  0.00    +0.205 C 
ATOM     23  C   UNL     1      34.704  23.444   9.512  0.00  0.00    +0.233 C 
ATOM     24  O   UNL     1      34.629  24.668   9.370  0.00  0.00    -0.274 OA
ATOM     25  H   UNL     1      35.295  22.320  13.277  0.00  0.00    +0.151 HD
BRANCH  15  27
ATOM     26  C   UNL     1      32.155  23.394   7.649  0.00  0.00    +0.024 C 
ATOM     27  C   UNL     1      33.611  23.071   7.344  0.00  0.00    +0.104 C 
ENDBRANCH  15  27
ENDBRANCH   1  21
TORSDOF 2
ENDMDL
MODEL 2
REMARK VINA RESULT:      -6.2      0.998      1.147
REMARK  Name = ZINC000329563636
REMARK  3 active torsions:
REMARK  status: ('A' for Active; 'I' for Inactive)
REMARK    1  A    between atoms: C_1  and  C_2
REMARK    2  A    between atoms: C_2  and  N_3
REMARK    3  A    between atoms: N_9  and  C_10
REMARK                            x       y       z     vdW  Elec       q    Type
REMARK                         _______ _______ _______ _____ _____    ______ ____
ROOT
ATOM      1  C   UNL     1      34.714  21.211  14.377  0.00  0.00    +0.112 C 
ATOM      2  C   UNL     1      35.599  22.001  15.347  0.00  0.00    +0.075 C 
ATOM      3  C   UNL     1      34.919  22.401  16.664  0.00  0.00    +0.113 C 
ATOM      4  C   UNL     1      34.936  21.306  17.763  0.00  0.00    +0.048 C 
ATOM      5  C   UNL     1      35.863  21.816  18.861  0.00  0.00    +0.004 C 
ATOM      6  C   UNL     1      35.727  23.324  18.782  0.00  0.00    +0.004 C 
ATOM      7  C   UNL     1      35.709  23.583  17.285  0.00  0.00    +0.048 C 
ATOM      8  O   UNL     1      33.570  22.861  16.454  0.00  0.00    -0.485 OA
ATOM      9  C   UNL     1      32.784  21.938  15.816  0.00  0.00    +0.126 A 
ATOM     10  C   UNL     1      31.443  21.869  16.190  0.00  0.00    +0.046 A 
ATOM     11  C   UNL     1      30.602  20.921  15.604  0.00  0.00    +0.004 A 
ATOM     12  C   UNL     1      31.097  20.060  14.628  0.00  0.00    +0.001 A 
ATOM     13  C   UNL     1      32.433  20.154  14.233  0.00  0.00    +0.009 A 
ATOM     14  C   UNL     1      33.288  21.096  14.827  0.00  0.00    +0.015 A 
ENDROOT
BRANCH   1  21
ATOM     15  N   UNL     1      34.932  22.476   8.191  0.00  0.00    -0.299 N 
ATOM     16  C   UNL     1      35.852  21.441   8.662  0.00  0.00    +0.127 C 
ATOM     17  C   UNL     1      36.613  21.890   9.904  0.00  0.00    +0.129 C 
ATOM     18  N   UNL     1      35.655  22.216  10.949  0.00  0.00    -0.275 N 
ATOM     19  C   UNL     1      35.688  21.506  12.129  0.00  0.00    +0.303 C 
ATOM     20  O   UNL     1      36.497  20.602  12.332  0.00  0.00    -0.253 OA
ATOM     21  N   UNL     1      34.746  21.841  13.056  0.00  0.00    -0.292 N 
ATOM     22  C   UNL     1      34.682  23.248  10.577  0.00  0.00    +0.205 C 
ATOM     23  C   UNL     1      34.280  23.321   9.088  0.00  0.00    +0.233 C 
ATOM     24  O   UNL     1      33.429  24.136   8.722  0.00  0.00    -0.274 OA
ATOM     25  H   UNL     1      34.357  22.770  13.022  0.00  0.00    +0.151 HD
BRANCH  15  27
ATOM     26  C   UNL     1      34.729  21.035   6.184  0.00  0.00    +0.024 C 
ATOM     27  C   UNL     1      34.439  22.386   6.821  0.00  0.00    +0.104 C 
ENDBRANCH  15  27
ENDBRANCH   1  21
TORSDOF 2
ENDMDL
MODEL 3
REMARK VINA RESULT:      -6.2      1.881      2.078
REMARK  Name = ZINC000329563636
REMARK  3 active torsions:
REMARK  status: ('A' for Active; 'I' for Inactive)
REMARK    1  A    between atoms: C_1  and  C_2
REMARK    2  A    between atoms: C_2  and  N_3
REMARK    3  A    between atoms: N_9  and  C_10
REMARK                            x       y       z     vdW  Elec       q    Type
REMARK                         _______ _______ _______ _____ _____    ______ ____
ROOT
ATOM      1  C   UNL     1      34.150  19.022  13.858  0.00  0.00    +0.112 C 
ATOM      2  C   UNL     1      35.441  18.672  14.606  0.00  0.00    +0.075 C 
ATOM      3  C   UNL     1      35.426  18.993  16.107  0.00  0.00    +0.113 C 
ATOM      4  C   UNL     1      34.781  17.900  17.000  0.00  0.00    +0.048 C 
ATOM      5  C   UNL     1      35.914  17.294  17.820  0.00  0.00    +0.004 C 
ATOM      6  C   UNL     1      36.899  18.435  17.980  0.00  0.00    +0.004 C 
ATOM      7  C   UNL     1      36.892  19.082  16.605  0.00  0.00    +0.048 C 
ATOM      8  O   UNL     1      34.811  20.268  16.378  0.00  0.00    -0.485 OA
ATOM      9  C   UNL     1      33.532  20.359  15.895  0.00  0.00    +0.126 A 
ATOM     10  C   UNL     1      32.614  21.090  16.647  0.00  0.00    +0.046 A 
ATOM     11  C   UNL     1      31.285  21.184  16.229  0.00  0.00    +0.004 A 
ATOM     12  C   UNL     1      30.884  20.567  15.046  0.00  0.00    +0.001 A 
ATOM     13  C   UNL     1      31.814  19.864  14.279  0.00  0.00    +0.009 A 
ATOM     14  C   UNL     1      33.149  19.754  14.701  0.00  0.00    +0.015 A 
ENDROOT
BRANCH   1  21
ATOM     15  N   UNL     1      34.129  22.056   8.317  0.00  0.00    -0.299 N 
ATOM     16  C   UNL     1      33.631  20.681   8.291  0.00  0.00    +0.127 C 
ATOM     17  C   UNL     1      34.573  19.729   9.021  0.00  0.00    +0.129 C 
ATOM     18  N   UNL     1      34.720  20.179  10.397  0.00  0.00    -0.275 N 
ATOM     19  C   UNL     1      34.327  19.342  11.417  0.00  0.00    +0.303 C 
ATOM     20  O   UNL     1      33.853  18.226  11.210  0.00  0.00    -0.253 OA
ATOM     21  N   UNL     1      34.466  19.834  12.681  0.00  0.00    -0.292 N 
ATOM     22  C   UNL     1      35.216  21.552  10.534  0.00  0.00    +0.205 C 
ATOM     23  C   UNL     1      34.831  22.546   9.416  0.00  0.00    +0.233 C 
ATOM     24  O   UNL     1      35.177  23.727   9.501  0.00  0.00    -0.274 OA
ATOM     25  H   UNL     1      35.154  20.552  12.838  0.00  0.00    +0.151 HD
BRANCH  15  27
ATOM     26  C   UNL     1      32.173  23.443   7.690  0.00  0.00    +0.024 C 
ATOM     27  C   UNL     1      33.588  23.001   7.347  0.00  0.00    +0.104 C 
ENDBRANCH  15  27
ENDBRANCH   1  21
TORSDOF 2
ENDMDL
MODEL 4
REMARK VINA RESULT:      -6.1      2.670      7.651
REMARK  Name = ZINC000329563636
REMARK  3 active torsions:
REMARK  status: ('A' for Active; 'I' for Inactive)
REMARK    1  A    between atoms: C_1  and  C_2
REMARK    2  A    between atoms: C_2  and  N_3
REMARK    3  A    between atoms: N_9  and  C_10
REMARK                            x       y       z     vdW  Elec       q    Type
REMARK                         _______ _______ _______ _____ _____    ______ ____
ROOT
ATOM      1  C   UNL     1      33.808  23.079  14.846  0.00  0.00    +0.112 C 
ATOM      2  C   UNL     1      34.343  23.394  13.444  0.00  0.00    +0.075 C 
ATOM      3  C   UNL     1      33.513  22.814  12.290  0.00  0.00    +0.113 C 
ATOM      4  C   UNL     1      32.297  23.677  11.865  0.00  0.00    +0.048 C 
ATOM      5  C   UNL     1      32.621  24.219  10.477  0.00  0.00    +0.004 C 
ATOM      6  C   UNL     1      33.506  23.151   9.866  0.00  0.00    +0.004 C 
ATOM      7  C   UNL     1      34.407  22.757  11.023  0.00  0.00    +0.048 C 
ATOM      8  O   UNL     1      33.083  21.466  12.562  0.00  0.00    -0.485 OA
ATOM      9  C   UNL     1      32.359  21.359  13.721  0.00  0.00    +0.126 A 
ATOM     10  C   UNL     1      31.315  20.436  13.741  0.00  0.00    +0.046 A 
ATOM     11  C   UNL     1      30.516  20.311  14.879  0.00  0.00    +0.004 A 
ATOM     12  C   UNL     1      30.778  21.092  16.003  0.00  0.00    +0.001 A 
ATOM     13  C   UNL     1      31.845  21.991  15.989  0.00  0.00    +0.009 A 
ATOM     14  C   UNL     1      32.645  22.132  14.844  0.00  0.00    +0.015 A 
ENDROOT
BRANCH   1  21
ATOM     15  N   UNL     1      37.359  20.678  19.486  0.00  0.00    -0.299 N 
ATOM     16  C   UNL     1      36.517  21.816  19.853  0.00  0.00    +0.127 C 
ATOM     17  C   UNL     1      36.644  22.956  18.848  0.00  0.00    +0.129 C 
ATOM     18  N   UNL     1      36.267  22.463  17.531  0.00  0.00    -0.275 N 
ATOM     19  C   UNL     1      35.197  23.040  16.885  0.00  0.00    +0.303 C 
ATOM     20  O   UNL     1      34.543  23.956  17.380  0.00  0.00    -0.253 OA
ATOM     21  N   UNL     1      34.880  22.514  15.668  0.00  0.00    -0.292 N 
ATOM     22  C   UNL     1      37.055  21.317  17.067  0.00  0.00    +0.205 C 
ATOM     23  C   UNL     1      37.582  20.350  18.150  0.00  0.00    +0.233 C 
ATOM     24  O   UNL     1      38.209  19.341  17.817  0.00  0.00    -0.274 OA
ATOM     25  H   UNL     1      35.606  22.046  15.149  0.00  0.00    +0.151 HD
BRANCH  15  27
ATOM     26  C   UNL     1      36.436  19.225  21.270  0.00  0.00    +0.024 C 
ATOM     27  C   UNL     1      37.672  19.694  20.516  0.00  0.00    +0.104 C 
ENDBRANCH  15  27
ENDBRANCH   1  21
TORSDOF 2
ENDMDL
MODEL 5
REMARK VINA RESULT:      -6.0      2.547      4.151
REMARK  Name = ZINC000329563636
REMARK  3 active torsions:
REMARK  status: ('A' for Active; 'I' for Inactive)
REMARK    1  A    between atoms: C_1  and  C_2
REMARK    2  A    between atoms: C_2  and  N_3
REMARK    3  A    between atoms: N_9  and  C_10
REMARK                            x       y       z     vdW  Elec       q    Type
REMARK                         _______ _______ _______ _____ _____    ______ ____
ROOT
ATOM      1  C   UNL     1      34.264  20.430  12.568  0.00  0.00    +0.112 C 
ATOM      2  C   UNL     1      33.204  21.237  13.326  0.00  0.00    +0.075 C 
ATOM      3  C   UNL     1      32.302  20.411  14.254  0.00  0.00    +0.113 C 
ATOM      4  C   UNL     1      32.895  20.137  15.661  0.00  0.00    +0.048 C 
ATOM      5  C   UNL     1      32.046  20.934  16.645  0.00  0.00    +0.004 C 
ATOM      6  C   UNL     1      30.678  20.979  15.995  0.00  0.00    +0.004 C 
ATOM      7  C   UNL     1      31.009  21.221  14.531  0.00  0.00    +0.048 C 
ATOM      8  O   UNL     1      31.898  19.169  13.645  0.00  0.00    -0.485 OA
ATOM      9  C   UNL     1      32.960  18.394  13.257  0.00  0.00    +0.126 A 
ATOM     10  C   UNL     1      32.821  17.012  13.376  0.00  0.00    +0.046 A 
ATOM     11  C   UNL     1      33.883  16.171  13.036  0.00  0.00    +0.004 A 
ATOM     12  C   UNL     1      35.072  16.714  12.554  0.00  0.00    +0.001 A 
ATOM     13  C   UNL     1      35.195  18.096  12.405  0.00  0.00    +0.009 A 
ATOM     14  C   UNL     1      34.136  18.948  12.758  0.00  0.00    +0.015 A 
ENDROOT
BRANCH   1  21
ATOM     15  N   UNL     1      35.263  22.461   6.671  0.00  0.00    -0.299 N 
ATOM     16  C   UNL     1      35.539  23.428   7.732  0.00  0.00    +0.127 C 
ATOM     17  C   UNL     1      34.397  23.497   8.740  0.00  0.00    +0.129 C 
ATOM     18  N   UNL     1      34.199  22.174   9.313  0.00  0.00    -0.275 N 
ATOM     19  C   UNL     1      34.360  22.004  10.670  0.00  0.00    +0.303 C 
ATOM     20  O   UNL     1      34.671  22.929  11.418  0.00  0.00    -0.253 OA
ATOM     21  N   UNL     1      34.187  20.735  11.138  0.00  0.00    -0.292 N 
ATOM     22  C   UNL     1      33.914  21.126   8.328  0.00  0.00    +0.205 C 
ATOM     23  C   UNL     1      34.550  21.292   6.931  0.00  0.00    +0.233 C 
ATOM     24  O   UNL     1      34.387  20.418   6.075  0.00  0.00    -0.274 OA
ATOM     25  H   UNL     1      33.609  20.107  10.604  0.00  0.00    +0.151 HD
BRANCH  15  27
ATOM     26  C   UNL     1      36.846  23.841   5.353  0.00  0.00    +0.024 C 
ATOM     27  C   UNL     1      36.032  22.558   5.435  0.00  0.00    +0.104 C 
ENDBRANCH  15  27
ENDBRANCH   1  21
TORSDOF 2
ENDMDL
MODEL 6
REMARK VINA RESULT:      -5.8      3.379      8.484
REMARK  Name = ZINC000329563636
REMARK  3 active torsions:
REMARK  status: ('A' for Active; 'I' for Inactive)
REMARK    1  A    between atoms: C_1  and  C_2
REMARK    2  A    between atoms: C_2  and  N_3
REMARK    3  A    between atoms: N_9  and  C_10
REMARK                            x       y       z     vdW  Elec       q    Type
REMARK                         _______ _______ _______ _____ _____    ______ ____
ROOT
ATOM      1  C   UNL     1      34.854  20.338  15.169  0.00  0.00    +0.112 C 
ATOM      2  C   UNL     1      35.274  19.503  13.955  0.00  0.00    +0.075 C 
ATOM      3  C   UNL     1      34.143  19.186  12.966  0.00  0.00    +0.113 C 
ATOM      4  C   UNL     1      33.860  20.299  11.923  0.00  0.00    +0.048 C 
ATOM      5  C   UNL     1      34.296  19.742  10.573  0.00  0.00    +0.004 C 
ATOM      6  C   UNL     1      34.075  18.248  10.706  0.00  0.00    +0.004 C 
ATOM      7  C   UNL     1      34.565  17.959  12.115  0.00  0.00    +0.048 C 
ATOM      8  O   UNL     1      32.922  18.828  13.642  0.00  0.00    -0.485 OA
ATOM      9  C   UNL     1      32.489  19.796  14.510  0.00  0.00    +0.126 A 
ATOM     10  C   UNL     1      31.112  19.977  14.633  0.00  0.00    +0.046 A 
ATOM     11  C   UNL     1      30.611  20.976  15.471  0.00  0.00    +0.004 A 
ATOM     12  C   UNL     1      31.487  21.774  16.203  0.00  0.00    +0.001 A 
ATOM     13  C   UNL     1      32.864  21.567  16.101  0.00  0.00    +0.009 A 
ATOM     14  C   UNL     1      33.376  20.574  15.251  0.00  0.00    +0.015 A 
ENDROOT
BRANCH   1  21
ATOM     15  N   UNL     1      36.264  18.785  21.128  0.00  0.00    -0.299 N 
ATOM     16  C   UNL     1      36.585  20.156  20.735  0.00  0.00    +0.127 C 
ATOM     17  C   UNL     1      37.328  20.200  19.404  0.00  0.00    +0.129 C 
ATOM     18  N   UNL     1      36.501  19.571  18.385  0.00  0.00    -0.275 N 
ATOM     19  C   UNL     1      36.095  20.319  17.302  0.00  0.00    +0.303 C 
ATOM     20  O   UNL     1      36.403  21.502  17.164  0.00  0.00    -0.253 OA
ATOM     21  N   UNL     1      35.299  19.679  16.399  0.00  0.00    -0.292 N 
ATOM     22  C   UNL     1      36.121  18.187  18.684  0.00  0.00    +0.205 C 
ATOM     23  C   UNL     1      35.954  17.818  20.174  0.00  0.00    +0.233 C 
ATOM     24  O   UNL     1      35.587  16.682  20.486  0.00  0.00    -0.274 OA
ATOM     25  H   UNL     1      35.360  18.675  16.341  0.00  0.00    +0.151 HD
BRANCH  15  27
ATOM     26  C   UNL     1      37.154  18.177  23.361  0.00  0.00    +0.024 C 
ATOM     27  C   UNL     1      35.932  18.530  22.525  0.00  0.00    +0.104 C 
ENDBRANCH  15  27
ENDBRANCH   1  21
TORSDOF 2
ENDMDL
MODEL 7
REMARK VINA RESULT:      -5.8      2.132      4.163
REMARK  Name = ZINC000329563636
REMARK  3 active torsions:
REMARK  status: ('A' for Active; 'I' for Inactive)
REMARK    1  A    between atoms: C_1  and  C_2
REMARK    2  A    between atoms: C_2  and  N_3
REMARK    3  A    between atoms: N_9  and  C_10
REMARK                            x       y       z     vdW  Elec       q    Type
REMARK                         _______ _______ _______ _____ _____    ______ ____
ROOT
ATOM      1  C   UNL     1      34.209  21.466  17.206  0.00  0.00    +0.112 C 
ATOM      2  C   UNL     1      34.784  20.103  17.605  0.00  0.00    +0.075 C 
ATOM      3  C   UNL     1      35.958  20.160  18.592  0.00  0.00    +0.113 C 
ATOM      4  C   UNL     1      35.549  20.266  20.085  0.00  0.00    +0.048 C 
ATOM      5  C   UNL     1      35.939  18.941  20.730  0.00  0.00    +0.004 C 
ATOM      6  C   UNL     1      37.140  18.483  19.927  0.00  0.00    +0.004 C 
ATOM      7  C   UNL     1      36.742  18.824  18.500  0.00  0.00    +0.048 C 
ATOM      8  O   UNL     1      36.885  21.214  18.265  0.00  0.00    -0.485 OA
ATOM      9  C   UNL     1      36.293  22.449  18.213  0.00  0.00    +0.126 A 
ATOM     10  C   UNL     1      37.043  23.538  18.653  0.00  0.00    +0.046 A 
ATOM     11  C   UNL     1      36.480  24.816  18.663  0.00  0.00    +0.004 A 
ATOM     12  C   UNL     1      35.176  25.005  18.210  0.00  0.00    +0.001 A 
ATOM     13  C   UNL     1      34.440  23.917  17.740  0.00  0.00    +0.009 A 
ATOM     14  C   UNL     1      34.995  22.627  17.739  0.00  0.00    +0.015 A 
ENDROOT
BRANCH   1  21
ATOM     15  N   UNL     1      33.258  23.240  11.217  0.00  0.00    -0.299 N 
ATOM     16  C   UNL     1      32.143  23.473  12.135  0.00  0.00    +0.127 C 
ATOM     17  C   UNL     1      31.842  22.239  12.978  0.00  0.00    +0.129 C 
ATOM     18  N   UNL     1      33.037  21.881  13.728  0.00  0.00    -0.275 N 
ATOM     19  C   UNL     1      32.985  21.884  15.104  0.00  0.00    +0.303 C 
ATOM     20  O   UNL     1      31.966  22.181  15.725  0.00  0.00    -0.253 OA
ATOM     21  N   UNL     1      34.145  21.566  15.746  0.00  0.00    -0.292 N 
ATOM     22  C   UNL     1      34.217  21.625  12.897  0.00  0.00    +0.205 C 
ATOM     23  C   UNL     1      34.324  22.417  11.576  0.00  0.00    +0.233 C 
ATOM     24  O   UNL     1      35.319  22.281  10.859  0.00  0.00    -0.274 OA
ATOM     25  H   UNL     1      34.820  21.002  15.255  0.00  0.00    +0.151 HD
BRANCH  15  27
ATOM     26  C   UNL     1      32.611  23.695   8.868  0.00  0.00    +0.024 C 
ATOM     27  C   UNL     1      33.414  24.141  10.081  0.00  0.00    +0.104 C 
ENDBRANCH  15  27
ENDBRANCH   1  21
TORSDOF 2
ENDMDL
MODEL 8
REMARK VINA RESULT:      -5.8      3.108      7.456
REMARK  Name = ZINC000329563636
REMARK  3 active torsions:
REMARK  status: ('A' for Active; 'I' for Inactive)
REMARK    1  A    between atoms: C_1  and  C_2
REMARK    2  A    between atoms: C_2  and  N_3
REMARK    3  A    between atoms: N_9  and  C_10
REMARK                            x       y       z     vdW  Elec       q    Type
REMARK                         _______ _______ _______ _____ _____    ______ ____
ROOT
ATOM      1  C   UNL     1      34.281  22.641  10.491  0.00  0.00    +0.112 C 
ATOM      2  C   UNL     1      35.211  23.744  11.008  0.00  0.00    +0.075 C 
ATOM      3  C   UNL     1      36.153  24.342   9.954  0.00  0.00    +0.113 C 
ATOM      4  C   UNL     1      35.531  25.469   9.089  0.00  0.00    +0.048 C 
ATOM      5  C   UNL     1      36.242  26.757   9.488  0.00  0.00    +0.004 C 
ATOM      6  C   UNL     1      37.626  26.296   9.903  0.00  0.00    +0.004 C 
ATOM      7  C   UNL     1      37.338  25.026  10.686  0.00  0.00    +0.048 C 
ATOM      8  O   UNL     1      36.717  23.327   9.099  0.00  0.00    -0.485 OA
ATOM      9  C   UNL     1      35.765  22.575   8.463  0.00  0.00    +0.126 A 
ATOM     10  C   UNL     1      36.047  22.148   7.166  0.00  0.00    +0.046 A 
ATOM     11  C   UNL     1      35.100  21.413   6.451  0.00  0.00    +0.004 A 
ATOM     12  C   UNL     1      33.882  21.086   7.043  0.00  0.00    +0.001 A 
ATOM     13  C   UNL     1      33.617  21.487   8.353  0.00  0.00    +0.009 A 
ATOM     14  C   UNL     1      34.559  22.238   9.074  0.00  0.00    +0.015 A 
ENDROOT
BRANCH   1  21
ATOM     15  N   UNL     1      33.254  17.410  13.881  0.00  0.00    -0.299 N 
ATOM     16  C   UNL     1      32.230  18.449  13.988  0.00  0.00    +0.127 C 
ATOM     17  C   UNL     1      32.847  19.820  14.241  0.00  0.00    +0.129 C 
ATOM     18  N   UNL     1      33.759  20.132  13.151  0.00  0.00    -0.275 N 
ATOM     19  C   UNL     1      33.513  21.241  12.372  0.00  0.00    +0.303 C 
ATOM     20  O   UNL     1      32.547  21.978  12.562  0.00  0.00    -0.253 OA
ATOM     21  N   UNL     1      34.388  21.461  11.351  0.00  0.00    -0.292 N 
ATOM     22  C   UNL     1      34.828  19.147  12.957  0.00  0.00    +0.205 C 
ATOM     23  C   UNL     1      34.497  17.682  13.314  0.00  0.00    +0.233 C 
ATOM     24  O   UNL     1      35.340  16.800  13.126  0.00  0.00    -0.274 OA
ATOM     25  H   UNL     1      35.319  21.084  11.435  0.00  0.00    +0.151 HD
BRANCH  15  27
ATOM     26  C   UNL     1      32.117  15.476  12.824  0.00  0.00    +0.024 C 
ATOM     27  C   UNL     1      32.842  16.020  14.047  0.00  0.00    +0.104 C 
ENDBRANCH  15  27
ENDBRANCH   1  21
TORSDOF 2
ENDMDL
MODEL 9
REMARK VINA RESULT:      -5.8      2.686      4.290
REMARK  Name = ZINC000329563636
REMARK  3 active torsions:
REMARK  status: ('A' for Active; 'I' for Inactive)
REMARK    1  A    between atoms: C_1  and  C_2
REMARK    2  A    between atoms: C_2  and  N_3
REMARK    3  A    between atoms: N_9  and  C_10
REMARK                            x       y       z     vdW  Elec       q    Type
REMARK                         _______ _______ _______ _____ _____    ______ ____
ROOT
ATOM      1  C   UNL     1      33.310  20.059  12.275  0.00  0.00    +0.112 C 
ATOM      2  C   UNL     1      33.936  18.664  12.176  0.00  0.00    +0.075 C 
ATOM      3  C   UNL     1      33.830  17.816  13.452  0.00  0.00    +0.113 C 
ATOM      4  C   UNL     1      32.492  17.048  13.614  0.00  0.00    +0.048 C 
ATOM      5  C   UNL     1      32.826  15.569  13.457  0.00  0.00    +0.004 C 
ATOM      6  C   UNL     1      34.250  15.460  13.966  0.00  0.00    +0.004 C 
ATOM      7  C   UNL     1      34.909  16.703  13.392  0.00  0.00    +0.048 C 
ATOM      8  O   UNL     1      34.093  18.593  14.637  0.00  0.00    -0.485 OA
ATOM      9  C   UNL     1      33.265  19.677  14.760  0.00  0.00    +0.126 A 
ATOM     10  C   UNL     1      32.867  20.037  16.046  0.00  0.00    +0.046 A 
ATOM     11  C   UNL     1      31.990  21.108  16.232  0.00  0.00    +0.004 A 
ATOM     12  C   UNL     1      31.534  21.832  15.133  0.00  0.00    +0.001 A 
ATOM     13  C   UNL     1      31.961  21.489  13.849  0.00  0.00    +0.009 A 
ATOM     14  C   UNL     1      32.831  20.405  13.654  0.00  0.00    +0.015 A 
ENDROOT
BRANCH   1  21
ATOM     15  N   UNL     1      36.269  25.012   9.702  0.00  0.00    -0.299 N 
ATOM     16  C   UNL     1      35.322  24.315   8.833  0.00  0.00    +0.127 C 
ATOM     17  C   UNL     1      35.532  22.805   8.870  0.00  0.00    +0.129 C 
ATOM     18  N   UNL     1      35.380  22.344  10.242  0.00  0.00    -0.275 N 
ATOM     19  C   UNL     1      34.386  21.437  10.533  0.00  0.00    +0.303 C 
ATOM     20  O   UNL     1      33.617  21.002   9.677  0.00  0.00    -0.253 OA
ATOM     21  N   UNL     1      34.279  21.067  11.841  0.00  0.00    -0.292 N 
ATOM     22  C   UNL     1      36.288  22.984  11.198  0.00  0.00    +0.205 C 
ATOM     23  C   UNL     1      36.703  24.441  10.897  0.00  0.00    +0.233 C 
ATOM     24  O   UNL     1      37.426  25.048  11.691  0.00  0.00    -0.274 OA
ATOM     25  H   UNL     1      35.097  21.143  12.424  0.00  0.00    +0.151 HD
BRANCH  15  27
ATOM     26  C   UNL     1      37.776  26.729   8.738  0.00  0.00    +0.024 C 
ATOM     27  C   UNL     1      36.481  26.438   9.484  0.00  0.00    +0.104 C 
ENDBRANCH  15  27
ENDBRANCH   1  21
TORSDOF 2
ENDMDL
