MODEL 1
REMARK VINA RESULT:      -5.9      0.000      0.000
REMARK  Name = ZINC000543478179
REMARK  8 active torsions:
REMARK  status: ('A' for Active; 'I' for Inactive)
REMARK    1  A    between atoms: C_1  and  C_2
REMARK    2  A    between atoms: C_2  and  N_3
REMARK    3  A    between atoms: N_9  and  C_10
REMARK    4  A    between atoms: C_10  and  C_11
REMARK    5  A    between atoms: C_10  and  C_12
REMARK    6  A    between atoms: C_15  and  O_16
REMARK    7  A    between atoms: O_16  and  C_17
REMARK    8  A    between atoms: C_17  and  C_18
REMARK                            x       y       z     vdW  Elec       q    Type
REMARK                         _______ _______ _______ _____ _____    ______ ____
ROOT
ATOM      1  C   UNL     1      31.866  21.246  14.741  0.00  0.00    +0.102 C 
ATOM      2  C   UNL     1      30.335  21.303  14.842  0.00  0.00    +0.033 C 
ENDROOT
BRANCH   1   9
ATOM      3  N   UNL     1      33.671  21.604   8.619  0.00  0.00    -0.299 N 
ATOM      4  C   UNL     1      33.398  20.242   9.080  0.00  0.00    +0.127 C 
ATOM      5  C   UNL     1      34.019  19.967  10.453  0.00  0.00    +0.129 C 
ATOM      6  N   UNL     1      33.495  20.928  11.419  0.00  0.00    -0.275 N 
ATOM      7  C   UNL     1      32.937  20.483  12.609  0.00  0.00    +0.303 C 
ATOM      8  O   UNL     1      32.892  19.301  12.926  0.00  0.00    -0.253 OA
ATOM      9  N   UNL     1      32.401  21.473  13.396  0.00  0.00    -0.293 N 
ATOM     10  C   UNL     1      33.597  22.330  11.008  0.00  0.00    +0.205 C 
ATOM     11  C   UNL     1      33.909  22.630   9.530  0.00  0.00    +0.233 C 
ATOM     12  O   UNL     1      34.217  23.769   9.179  0.00  0.00    -0.274 OA
ATOM     13  H   UNL     1      32.843  22.370  13.291  0.00  0.00    +0.151 HD
BRANCH   3  15
ATOM     14  C   UNL     1      34.491  21.635   6.289  0.00  0.00    +0.024 C 
ATOM     15  C   UNL     1      33.347  21.962   7.240  0.00  0.00    +0.104 C 
ENDBRANCH   3  15
ENDBRANCH   1   9
BRANCH   1  16
ATOM     16  C   UNL     1      32.480  22.291  15.665  0.00  0.00    -0.024 A 
ATOM     17  C   UNL     1      31.896  22.541  16.921  0.00  0.00    +0.009 A 
ATOM     18  C   UNL     1      32.378  23.546  17.753  0.00  0.00    +0.049 A 
ATOM     19  C   UNL     1      33.429  24.361  17.332  0.00  0.00    +0.156 A 
ATOM     20  C   UNL     1      34.057  24.079  16.116  0.00  0.00    +0.165 A 
ATOM     21  F   UNL     1      35.101  24.814  15.705  0.00  0.00    -0.202 F 
ATOM     22  C   UNL     1      33.590  23.057  15.282  0.00  0.00    +0.047 A 
BRANCH  19  23
ATOM     23  O   UNL     1      33.873  25.448  18.037  0.00  0.00    -0.489 OA
BRANCH  23  24
ATOM     24  C   UNL     1      33.727  25.333  19.456  0.00  0.00    +0.232 C 
BRANCH  24  25
ATOM     25  C   UNL     1      32.938  26.497  19.958  0.00  0.00    +0.027 C 
ATOM     26  C   UNL     1      32.537  26.574  21.408  0.00  0.00    +0.007 C 
ATOM     27  C   UNL     1      31.490  26.335  20.354  0.00  0.00    +0.007 C 
ENDBRANCH  24  25
ENDBRANCH  23  24
ENDBRANCH  19  23
ENDBRANCH   1  16
TORSDOF 6
ENDMDL
MODEL 2
REMARK VINA RESULT:      -5.8      1.876      2.351
REMARK  Name = ZINC000543478179
REMARK  8 active torsions:
REMARK  status: ('A' for Active; 'I' for Inactive)
REMARK    1  A    between atoms: C_1  and  C_2
REMARK    2  A    between atoms: C_2  and  N_3
REMARK    3  A    between atoms: N_9  and  C_10
REMARK    4  A    between atoms: C_10  and  C_11
REMARK    5  A    between atoms: C_10  and  C_12
REMARK    6  A    between atoms: C_15  and  O_16
REMARK    7  A    between atoms: O_16  and  C_17
REMARK    8  A    between atoms: C_17  and  C_18
REMARK                            x       y       z     vdW  Elec       q    Type
REMARK                         _______ _______ _______ _____ _____    ______ ____
ROOT
ATOM      1  C   UNL     1      32.056  20.591  13.398  0.00  0.00    +0.102 C 
ATOM      2  C   UNL     1      30.613  20.097  13.223  0.00  0.00    +0.033 C 
ENDROOT
BRANCH   1   9
ATOM      3  N   UNL     1      34.321  22.774   7.832  0.00  0.00    -0.299 N 
ATOM      4  C   UNL     1      34.538  21.342   8.042  0.00  0.00    +0.127 C 
ATOM      5  C   UNL     1      35.044  21.042   9.457  0.00  0.00    +0.129 C 
ATOM      6  N   UNL     1      34.077  21.541  10.430  0.00  0.00    -0.275 N 
ATOM      7  C   UNL     1      33.591  20.699  11.421  0.00  0.00    +0.303 C 
ATOM      8  O   UNL     1      33.967  19.543  11.559  0.00  0.00    -0.253 OA
ATOM      9  N   UNL     1      32.623  21.256  12.221  0.00  0.00    -0.293 N 
ATOM     10  C   UNL     1      33.680  22.938  10.241  0.00  0.00    +0.205 C 
ATOM     11  C   UNL     1      34.031  23.615   8.904  0.00  0.00    +0.233 C 
ATOM     12  O   UNL     1      33.917  24.835   8.776  0.00  0.00    -0.274 OA
ATOM     13  H   UNL     1      32.695  22.253  12.325  0.00  0.00    +0.151 HD
BRANCH   3  15
ATOM     14  C   UNL     1      35.344  23.483   5.699  0.00  0.00    +0.024 C 
ATOM     15  C   UNL     1      34.055  23.257   6.478  0.00  0.00    +0.104 C 
ENDBRANCH   3  15
ENDBRANCH   1   9
BRANCH   1  16
ATOM     16  C   UNL     1      32.125  21.574  14.561  0.00  0.00    -0.024 A 
ATOM     17  C   UNL     1      33.235  22.432  14.682  0.00  0.00    +0.009 A 
ATOM     18  C   UNL     1      33.373  23.282  15.776  0.00  0.00    +0.049 A 
ATOM     19  C   UNL     1      32.427  23.262  16.802  0.00  0.00    +0.156 A 
ATOM     20  C   UNL     1      31.291  22.462  16.658  0.00  0.00    +0.165 A 
ATOM     21  F   UNL     1      30.341  22.457  17.606  0.00  0.00    -0.202 F 
ATOM     22  C   UNL     1      31.136  21.619  15.552  0.00  0.00    +0.047 A 
BRANCH  19  23
ATOM     23  O   UNL     1      32.559  23.972  17.966  0.00  0.00    -0.489 OA
BRANCH  23  24
ATOM     24  C   UNL     1      33.877  24.474  18.207  0.00  0.00    +0.232 C 
BRANCH  24  25
ATOM     25  C   UNL     1      33.815  25.961  18.332  0.00  0.00    +0.027 C 
ATOM     26  C   UNL     1      34.838  26.824  17.640  0.00  0.00    +0.007 C 
ATOM     27  C   UNL     1      34.845  26.712  19.141  0.00  0.00    +0.007 C 
ENDBRANCH  24  25
ENDBRANCH  23  24
ENDBRANCH  19  23
ENDBRANCH   1  16
TORSDOF 6
ENDMDL
MODEL 3
REMARK VINA RESULT:      -5.8      3.935      9.382
REMARK  Name = ZINC000543478179
REMARK  8 active torsions:
REMARK  status: ('A' for Active; 'I' for Inactive)
REMARK    1  A    between atoms: C_1  and  C_2
REMARK    2  A    between atoms: C_2  and  N_3
REMARK    3  A    between atoms: N_9  and  C_10
REMARK    4  A    between atoms: C_10  and  C_11
REMARK    5  A    between atoms: C_10  and  C_12
REMARK    6  A    between atoms: C_15  and  O_16
REMARK    7  A    between atoms: O_16  and  C_17
REMARK    8  A    between atoms: C_17  and  C_18
REMARK                            x       y       z     vdW  Elec       q    Type
REMARK                         _______ _______ _______ _____ _____    ______ ____
ROOT
ATOM      1  C   UNL     1      35.204  23.625  15.829  0.00  0.00    +0.102 C 
ATOM      2  C   UNL     1      35.661  24.633  14.765  0.00  0.00    +0.033 C 
ENDROOT
BRANCH   1   9
ATOM      3  N   UNL     1      33.793  26.598  21.309  0.00  0.00    -0.299 N 
ATOM      4  C   UNL     1      35.163  26.087  21.245  0.00  0.00    +0.127 C 
ATOM      5  C   UNL     1      35.216  24.663  20.685  0.00  0.00    +0.129 C 
ATOM      6  N   UNL     1      34.622  24.647  19.351  0.00  0.00    -0.275 N 
ATOM      7  C   UNL     1      35.324  24.104  18.285  0.00  0.00    +0.303 C 
ATOM      8  O   UNL     1      36.426  23.584  18.404  0.00  0.00    -0.253 OA
ATOM      9  N   UNL     1      34.701  24.226  17.067  0.00  0.00    -0.293 N 
ATOM     10  C   UNL     1      33.293  25.254  19.264  0.00  0.00    +0.205 C 
ATOM     11  C   UNL     1      32.812  26.118  20.445  0.00  0.00    +0.233 C 
ATOM     12  O   UNL     1      31.634  26.469  20.520  0.00  0.00    -0.274 OA
ATOM     13  H   UNL     1      33.697  24.251  17.117  0.00  0.00    +0.151 HD
BRANCH   3  15
ATOM     14  C   UNL     1      34.668  28.188  22.986  0.00  0.00    +0.024 C 
ATOM     15  C   UNL     1      33.538  27.849  22.023  0.00  0.00    +0.104 C 
ENDBRANCH   3  15
ENDBRANCH   1   9
BRANCH   1  16
ATOM     16  C   UNL     1      34.097  22.745  15.260  0.00  0.00    -0.024 A 
ATOM     17  C   UNL     1      34.135  22.366  13.905  0.00  0.00    +0.009 A 
ATOM     18  C   UNL     1      33.099  21.636  13.331  0.00  0.00    +0.049 A 
ATOM     19  C   UNL     1      31.974  21.305  14.086  0.00  0.00    +0.156 A 
ATOM     20  C   UNL     1      31.956  21.619  15.447  0.00  0.00    +0.165 A 
ATOM     21  F   UNL     1      30.909  21.272  16.209  0.00  0.00    -0.202 F 
ATOM     22  C   UNL     1      33.003  22.337  16.036  0.00  0.00    +0.047 A 
BRANCH  19  23
ATOM     23  O   UNL     1      30.861  20.701  13.561  0.00  0.00    -0.489 OA
BRANCH  23  24
ATOM     24  C   UNL     1      31.067  19.351  13.133  0.00  0.00    +0.232 C 
BRANCH  24  25
ATOM     25  C   UNL     1      31.283  18.489  14.333  0.00  0.00    +0.027 C 
ATOM     26  C   UNL     1      32.594  17.771  14.525  0.00  0.00    +0.007 C 
ATOM     27  C   UNL     1      31.350  16.987  14.202  0.00  0.00    +0.007 C 
ENDBRANCH  24  25
ENDBRANCH  23  24
ENDBRANCH  19  23
ENDBRANCH   1  16
TORSDOF 6
ENDMDL
MODEL 4
REMARK VINA RESULT:      -5.7      3.089      3.758
REMARK  Name = ZINC000543478179
REMARK  8 active torsions:
REMARK  status: ('A' for Active; 'I' for Inactive)
REMARK    1  A    between atoms: C_1  and  C_2
REMARK    2  A    between atoms: C_2  and  N_3
REMARK    3  A    between atoms: N_9  and  C_10
REMARK    4  A    between atoms: C_10  and  C_11
REMARK    5  A    between atoms: C_10  and  C_12
REMARK    6  A    between atoms: C_15  and  O_16
REMARK    7  A    between atoms: O_16  and  C_17
REMARK    8  A    between atoms: C_17  and  C_18
REMARK                            x       y       z     vdW  Elec       q    Type
REMARK                         _______ _______ _______ _____ _____    ______ ____
ROOT
ATOM      1  C   UNL     1      30.902  21.876  14.156  0.00  0.00    +0.102 C 
ATOM      2  C   UNL     1      30.531  22.952  13.126  0.00  0.00    +0.033 C 
ENDROOT
BRANCH   1   9
ATOM      3  N   UNL     1      32.796  16.282  11.709  0.00  0.00    -0.299 N 
ATOM      4  C   UNL     1      31.753  16.162  12.728  0.00  0.00    +0.127 C 
ATOM      5  C   UNL     1      32.039  17.046  13.946  0.00  0.00    +0.129 C 
ATOM      6  N   UNL     1      32.150  18.437  13.516  0.00  0.00    -0.275 N 
ATOM      7  C   UNL     1      31.393  19.419  14.138  0.00  0.00    +0.303 C 
ATOM      8  O   UNL     1      30.646  19.191  15.081  0.00  0.00    -0.253 OA
ATOM      9  N   UNL     1      31.518  20.672  13.590  0.00  0.00    -0.293 N 
ATOM     10  C   UNL     1      33.077  18.664  12.405  0.00  0.00    +0.205 C 
ATOM     11  C   UNL     1      33.561  17.441  11.605  0.00  0.00    +0.233 C 
ATOM     12  O   UNL     1      34.496  17.548  10.810  0.00  0.00    -0.274 OA
ATOM     13  H   UNL     1      32.409  20.847  13.157  0.00  0.00    +0.151 HD
BRANCH   3  15
ATOM     14  C   UNL     1      31.509  14.536  10.527  0.00  0.00    +0.024 C 
ATOM     15  C   UNL     1      32.798  15.345  10.587  0.00  0.00    +0.104 C 
ENDBRANCH   3  15
ENDBRANCH   1   9
BRANCH   1  16
ATOM     16  C   UNL     1      31.876  22.456  15.175  0.00  0.00    -0.024 A 
ATOM     17  C   UNL     1      31.475  22.598  16.517  0.00  0.00    +0.009 A 
ATOM     18  C   UNL     1      32.306  23.201  17.457  0.00  0.00    +0.049 A 
ATOM     19  C   UNL     1      33.541  23.721  17.070  0.00  0.00    +0.156 A 
ATOM     20  C   UNL     1      33.974  23.526  15.755  0.00  0.00    +0.165 A 
ATOM     21  F   UNL     1      35.177  23.972  15.365  0.00  0.00    -0.202 F 
ATOM     22  C   UNL     1      33.152  22.903  14.810  0.00  0.00    +0.047 A 
BRANCH  19  23
ATOM     23  O   UNL     1      34.355  24.438  17.905  0.00  0.00    -0.489 OA
BRANCH  23  24
ATOM     24  C   UNL     1      33.805  25.685  18.342  0.00  0.00    +0.232 C 
BRANCH  24  25
ATOM     25  C   UNL     1      33.497  25.595  19.800  0.00  0.00    +0.027 C 
ATOM     26  C   UNL     1      32.283  26.288  20.364  0.00  0.00    +0.007 C 
ATOM     27  C   UNL     1      33.659  26.797  20.699  0.00  0.00    +0.007 C 
ENDBRANCH  24  25
ENDBRANCH  23  24
ENDBRANCH  19  23
ENDBRANCH   1  16
TORSDOF 6
ENDMDL
MODEL 5
REMARK VINA RESULT:      -5.7      4.567      9.510
REMARK  Name = ZINC000543478179
REMARK  8 active torsions:
REMARK  status: ('A' for Active; 'I' for Inactive)
REMARK    1  A    between atoms: C_1  and  C_2
REMARK    2  A    between atoms: C_2  and  N_3
REMARK    3  A    between atoms: N_9  and  C_10
REMARK    4  A    between atoms: C_10  and  C_11
REMARK    5  A    between atoms: C_10  and  C_12
REMARK    6  A    between atoms: C_15  and  O_16
REMARK    7  A    between atoms: O_16  and  C_17
REMARK    8  A    between atoms: C_17  and  C_18
REMARK                            x       y       z     vdW  Elec       q    Type
REMARK                         _______ _______ _______ _____ _____    ______ ____
ROOT
ATOM      1  C   UNL     1      31.596  20.770  14.819  0.00  0.00    +0.102 C 
ATOM      2  C   UNL     1      30.141  20.795  15.307  0.00  0.00    +0.033 C 
ENDROOT
BRANCH   1   9
ATOM      3  N   UNL     1      35.092  23.900  19.160  0.00  0.00    -0.299 N 
ATOM      4  C   UNL     1      33.868  24.600  18.766  0.00  0.00    +0.127 C 
ATOM      5  C   UNL     1      33.661  24.578  17.248  0.00  0.00    +0.129 C 
ATOM      6  N   UNL     1      33.606  23.192  16.790  0.00  0.00    -0.275 N 
ATOM      7  C   UNL     1      32.541  22.760  16.013  0.00  0.00    +0.303 C 
ATOM      8  O   UNL     1      31.640  23.500  15.642  0.00  0.00    -0.253 OA
ATOM      9  N   UNL     1      32.556  21.418  15.717  0.00  0.00    -0.293 N 
ATOM     10  C   UNL     1      34.721  22.353  17.235  0.00  0.00    +0.205 C 
ATOM     11  C   UNL     1      35.619  22.884  18.368  0.00  0.00    +0.233 C 
ATOM     12  O   UNL     1      36.685  22.326  18.630  0.00  0.00    -0.274 OA
ATOM     13  H   UNL     1      33.475  21.014  15.675  0.00  0.00    +0.151 HD
BRANCH   3  15
ATOM     14  C   UNL     1      35.261  25.394  21.121  0.00  0.00    +0.024 C 
ATOM     15  C   UNL     1      35.558  24.017  20.541  0.00  0.00    +0.104 C 
ENDBRANCH   3  15
ENDBRANCH   1   9
BRANCH   1  16
ATOM     16  C   UNL     1      32.048  19.328  14.624  0.00  0.00    -0.024 A 
ATOM     17  C   UNL     1      33.372  18.965  14.937  0.00  0.00    +0.009 A 
ATOM     18  C   UNL     1      33.844  17.678  14.692  0.00  0.00    +0.049 A 
ATOM     19  C   UNL     1      33.017  16.734  14.084  0.00  0.00    +0.156 A 
ATOM     20  C   UNL     1      31.684  17.065  13.830  0.00  0.00    +0.165 A 
ATOM     21  F   UNL     1      30.852  16.162  13.290  0.00  0.00    -0.202 F 
ATOM     22  C   UNL     1      31.197  18.350  14.092  0.00  0.00    +0.047 A 
BRANCH  19  23
ATOM     23  O   UNL     1      33.446  15.492  13.696  0.00  0.00    -0.489 OA
BRANCH  23  24
ATOM     24  C   UNL     1      33.913  15.422  12.345  0.00  0.00    +0.232 C 
BRANCH  24  25
ATOM     25  C   UNL     1      33.147  14.363  11.621  0.00  0.00    +0.027 C 
ATOM     26  C   UNL     1      33.419  14.092  10.164  0.00  0.00    +0.007 C 
ATOM     27  C   UNL     1      32.121  14.730  10.577  0.00  0.00    +0.007 C 
ENDBRANCH  24  25
ENDBRANCH  23  24
ENDBRANCH  19  23
ENDBRANCH   1  16
TORSDOF 6
ENDMDL
MODEL 6
REMARK VINA RESULT:      -5.6      4.741      9.516
REMARK  Name = ZINC000543478179
REMARK  8 active torsions:
REMARK  status: ('A' for Active; 'I' for Inactive)
REMARK    1  A    between atoms: C_1  and  C_2
REMARK    2  A    between atoms: C_2  and  N_3
REMARK    3  A    between atoms: N_9  and  C_10
REMARK    4  A    between atoms: C_10  and  C_11
REMARK    5  A    between atoms: C_10  and  C_12
REMARK    6  A    between atoms: C_15  and  O_16
REMARK    7  A    between atoms: O_16  and  C_17
REMARK    8  A    between atoms: C_17  and  C_18
REMARK                            x       y       z     vdW  Elec       q    Type
REMARK                         _______ _______ _______ _____ _____    ______ ____
ROOT
ATOM      1  C   UNL     1      33.936  24.100  17.808  0.00  0.00    +0.102 C 
ATOM      2  C   UNL     1      33.106  25.166  18.537  0.00  0.00    +0.033 C 
ENDROOT
BRANCH   1   9
ATOM      3  N   UNL     1      37.242  20.701  22.095  0.00  0.00    -0.299 N 
ATOM      4  C   UNL     1      37.854  21.986  21.755  0.00  0.00    +0.127 C 
ATOM      5  C   UNL     1      37.844  22.243  20.245  0.00  0.00    +0.129 C 
ATOM      6  N   UNL     1      36.467  22.210  19.761  0.00  0.00    -0.275 N 
ATOM      7  C   UNL     1      35.969  23.266  19.010  0.00  0.00    +0.303 C 
ATOM      8  O   UNL     1      36.645  24.233  18.685  0.00  0.00    -0.253 OA
ATOM      9  N   UNL     1      34.638  23.162  18.687  0.00  0.00    -0.293 N 
ATOM     10  C   UNL     1      35.707  21.021  20.150  0.00  0.00    +0.205 C 
ATOM     11  C   UNL     1      36.283  20.127  21.264  0.00  0.00    +0.233 C 
ATOM     12  O   UNL     1      35.802  19.013  21.479  0.00  0.00    -0.274 OA
ATOM     13  H   UNL     1      34.305  22.216  18.606  0.00  0.00    +0.151 HD
BRANCH   3  15
ATOM     14  C   UNL     1      37.242  21.316  24.487  0.00  0.00    +0.024 C 
ATOM     15  C   UNL     1      37.369  20.197  23.461  0.00  0.00    +0.104 C 
ENDBRANCH   3  15
ENDBRANCH   1   9
BRANCH   1  16
ATOM     16  C   UNL     1      33.033  23.285  16.890  0.00  0.00    -0.024 A 
ATOM     17  C   UNL     1      33.422  23.053  15.557  0.00  0.00    +0.009 A 
ATOM     18  C   UNL     1      32.584  22.386  14.667  0.00  0.00    +0.049 A 
ATOM     19  C   UNL     1      31.315  21.975  15.075  0.00  0.00    +0.156 A 
ATOM     20  C   UNL     1      30.947  22.142  16.412  0.00  0.00    +0.165 A 
ATOM     21  F   UNL     1      29.752  21.714  16.845  0.00  0.00    -0.202 F 
ATOM     22  C   UNL     1      31.792  22.794  17.317  0.00  0.00    +0.047 A 
BRANCH  19  23
ATOM     23  O   UNL     1      30.389  21.429  14.226  0.00  0.00    -0.489 OA
BRANCH  23  24
ATOM     24  C   UNL     1      30.866  20.315  13.465  0.00  0.00    +0.232 C 
BRANCH  24  25
ATOM     25  C   UNL     1      31.048  19.146  14.378  0.00  0.00    +0.027 C 
ATOM     26  C   UNL     1      32.426  18.602  14.648  0.00  0.00    +0.007 C 
ATOM     27  C   UNL     1      31.450  17.797  13.833  0.00  0.00    +0.007 C 
ENDBRANCH  24  25
ENDBRANCH  23  24
ENDBRANCH  19  23
ENDBRANCH   1  16
TORSDOF 6
ENDMDL
MODEL 7
REMARK VINA RESULT:      -5.6      4.466      6.417
REMARK  Name = ZINC000543478179
REMARK  8 active torsions:
REMARK  status: ('A' for Active; 'I' for Inactive)
REMARK    1  A    between atoms: C_1  and  C_2
REMARK    2  A    between atoms: C_2  and  N_3
REMARK    3  A    between atoms: N_9  and  C_10
REMARK    4  A    between atoms: C_10  and  C_11
REMARK    5  A    between atoms: C_10  and  C_12
REMARK    6  A    between atoms: C_15  and  O_16
REMARK    7  A    between atoms: O_16  and  C_17
REMARK    8  A    between atoms: C_17  and  C_18
REMARK                            x       y       z     vdW  Elec       q    Type
REMARK                         _______ _______ _______ _____ _____    ______ ____
ROOT
ATOM      1  C   UNL     1      34.018  22.613  12.549  0.00  0.00    +0.102 C 
ATOM      2  C   UNL     1      35.307  22.796  13.363  0.00  0.00    +0.033 C 
ENDROOT
BRANCH   1   9
ATOM      3  N   UNL     1      35.141  21.802   6.308  0.00  0.00    -0.299 N 
ATOM      4  C   UNL     1      34.532  23.091   6.640  0.00  0.00    +0.127 C 
ATOM      5  C   UNL     1      33.377  22.937   7.635  0.00  0.00    +0.129 C 
ATOM      6  N   UNL     1      33.872  22.298   8.851  0.00  0.00    -0.275 N 
ATOM      7  C   UNL     1      33.638  22.884  10.088  0.00  0.00    +0.303 C 
ATOM      8  O   UNL     1      32.989  23.912  10.229  0.00  0.00    -0.253 OA
ATOM      9  N   UNL     1      34.226  22.238  11.147  0.00  0.00    -0.293 N 
ATOM     10  C   UNL     1      34.617  21.057   8.634  0.00  0.00    +0.205 C 
ATOM     11  C   UNL     1      35.087  20.736   7.203  0.00  0.00    +0.233 C 
ATOM     12  O   UNL     1      35.522  19.618   6.927  0.00  0.00    -0.274 OA
ATOM     13  H   UNL     1      34.344  21.248  11.014  0.00  0.00    +0.151 HD
BRANCH   3  15
ATOM     14  C   UNL     1      35.460  21.230   3.926  0.00  0.00    +0.024 C 
ATOM     15  C   UNL     1      36.104  21.739   5.209  0.00  0.00    +0.104 C 
ENDBRANCH   3  15
ENDBRANCH   1   9
BRANCH   1  16
ATOM     16  C   UNL     1      33.154  21.534  13.192  0.00  0.00    -0.024 A 
ATOM     17  C   UNL     1      33.712  20.684  14.165  0.00  0.00    +0.009 A 
ATOM     18  C   UNL     1      32.978  19.635  14.711  0.00  0.00    +0.049 A 
ATOM     19  C   UNL     1      31.683  19.378  14.263  0.00  0.00    +0.156 A 
ATOM     20  C   UNL     1      31.098  20.256  13.345  0.00  0.00    +0.165 A 
ATOM     21  F   UNL     1      29.837  20.063  12.932  0.00  0.00    -0.202 F 
ATOM     22  C   UNL     1      31.823  21.324  12.807  0.00  0.00    +0.047 A 
BRANCH  19  23
ATOM     23  O   UNL     1      30.947  18.292  14.657  0.00  0.00    -0.489 OA
BRANCH  23  24
ATOM     24  C   UNL     1      31.540  17.029  14.341  0.00  0.00    +0.232 C 
BRANCH  24  25
ATOM     25  C   UNL     1      31.561  16.860  12.857  0.00  0.00    +0.027 C 
ATOM     26  C   UNL     1      31.915  15.528  12.249  0.00  0.00    +0.007 C 
ATOM     27  C   UNL     1      32.865  16.688  12.118  0.00  0.00    +0.007 C 
ENDBRANCH  24  25
ENDBRANCH  23  24
ENDBRANCH  19  23
ENDBRANCH   1  16
TORSDOF 6
ENDMDL
MODEL 8
REMARK VINA RESULT:      -5.6      6.921      9.389
REMARK  Name = ZINC000543478179
REMARK  8 active torsions:
REMARK  status: ('A' for Active; 'I' for Inactive)
REMARK    1  A    between atoms: C_1  and  C_2
REMARK    2  A    between atoms: C_2  and  N_3
REMARK    3  A    between atoms: N_9  and  C_10
REMARK    4  A    between atoms: C_10  and  C_11
REMARK    5  A    between atoms: C_10  and  C_12
REMARK    6  A    between atoms: C_15  and  O_16
REMARK    7  A    between atoms: O_16  and  C_17
REMARK    8  A    between atoms: C_17  and  C_18
REMARK                            x       y       z     vdW  Elec       q    Type
REMARK                         _______ _______ _______ _____ _____    ______ ____
ROOT
ATOM      1  C   UNL     1      33.081  15.333  10.677  0.00  0.00    +0.102 C 
ATOM      2  C   UNL     1      33.976  15.991   9.618  0.00  0.00    +0.033 C 
ENDROOT
BRANCH   1   9
ATOM      3  N   UNL     1      36.081  10.103  12.801  0.00  0.00    -0.299 N 
ATOM      4  C   UNL     1      35.743  10.057  11.378  0.00  0.00    +0.127 C 
ATOM      5  C   UNL     1      34.314  10.542  11.114  0.00  0.00    +0.129 C 
ATOM      6  N   UNL     1      34.169  11.907  11.612  0.00  0.00    -0.275 N 
ATOM      7  C   UNL     1      33.673  12.901  10.779  0.00  0.00    +0.303 C 
ATOM      8  O   UNL     1      33.300  12.689   9.633  0.00  0.00    -0.253 OA
ATOM      9  N   UNL     1      33.665  14.159  11.331  0.00  0.00    -0.293 N 
ATOM     10  C   UNL     1      34.601  12.105  12.997  0.00  0.00    +0.205 C 
ATOM     11  C   UNL     1      35.447  11.000  13.656  0.00  0.00    +0.233 C 
ATOM     12  O   UNL     1      35.651  11.014  14.871  0.00  0.00    -0.274 OA
ATOM     13  H   UNL     1      33.567  14.171  12.331  0.00  0.00    +0.151 HD
BRANCH   3  15
ATOM     14  C   UNL     1      38.544  10.290  12.873  0.00  0.00    +0.024 C 
ATOM     15  C   UNL     1      37.318   9.469  13.254  0.00  0.00    +0.104 C 
ENDBRANCH   3  15
ENDBRANCH   1   9
BRANCH   1  16
ATOM     16  C   UNL     1      32.742  16.346  11.765  0.00  0.00    -0.024 A 
ATOM     17  C   UNL     1      33.422  17.578  11.804  0.00  0.00    +0.009 A 
ATOM     18  C   UNL     1      33.200  18.490  12.831  0.00  0.00    +0.049 A 
ATOM     19  C   UNL     1      32.327  18.175  13.872  0.00  0.00    +0.156 A 
ATOM     20  C   UNL     1      31.600  16.983  13.807  0.00  0.00    +0.165 A 
ATOM     21  F   UNL     1      30.717  16.675  14.769  0.00  0.00    -0.202 F 
ATOM     22  C   UNL     1      31.803  16.070  12.767  0.00  0.00    +0.047 A 
BRANCH  19  23
ATOM     23  O   UNL     1      32.154  18.963  14.979  0.00  0.00    -0.489 OA
BRANCH  23  24
ATOM     24  C   UNL     1      32.620  20.307  14.828  0.00  0.00    +0.232 C 
BRANCH  24  25
ATOM     25  C   UNL     1      31.581  21.243  15.353  0.00  0.00    +0.027 C 
ATOM     26  C   UNL     1      30.118  20.925  15.185  0.00  0.00    +0.007 C 
ATOM     27  C   UNL     1      30.732  22.061  14.411  0.00  0.00    +0.007 C 
ENDBRANCH  24  25
ENDBRANCH  23  24
ENDBRANCH  19  23
ENDBRANCH   1  16
TORSDOF 6
ENDMDL
MODEL 9
REMARK VINA RESULT:      -5.5      5.103      7.402
REMARK  Name = ZINC000543478179
REMARK  8 active torsions:
REMARK  status: ('A' for Active; 'I' for Inactive)
REMARK    1  A    between atoms: C_1  and  C_2
REMARK    2  A    between atoms: C_2  and  N_3
REMARK    3  A    between atoms: N_9  and  C_10
REMARK    4  A    between atoms: C_10  and  C_11
REMARK    5  A    between atoms: C_10  and  C_12
REMARK    6  A    between atoms: C_15  and  O_16
REMARK    7  A    between atoms: O_16  and  C_17
REMARK    8  A    between atoms: C_17  and  C_18
REMARK                            x       y       z     vdW  Elec       q    Type
REMARK                         _______ _______ _______ _____ _____    ______ ____
ROOT
ATOM      1  C   UNL     1      33.827  18.177  11.022  0.00  0.00    +0.102 C 
ATOM      2  C   UNL     1      35.178  18.878  10.823  0.00  0.00    +0.033 C 
ENDROOT
BRANCH   1   9
ATOM      3  N   UNL     1      34.656  11.963  12.273  0.00  0.00    -0.299 N 
ATOM      4  C   UNL     1      34.425  12.260  10.858  0.00  0.00    +0.127 C 
ATOM      5  C   UNL     1      33.277  13.255  10.662  0.00  0.00    +0.129 C 
ATOM      6  N   UNL     1      33.583  14.489  11.381  0.00  0.00    -0.275 N 
ATOM      7  C   UNL     1      33.525  15.709  10.721  0.00  0.00    +0.303 C 
ATOM      8  O   UNL     1      33.184  15.821   9.551  0.00  0.00    -0.253 OA
ATOM      9  N   UNL     1      33.917  16.787  11.476  0.00  0.00    -0.293 N 
ATOM     10  C   UNL     1      33.957  14.306  12.784  0.00  0.00    +0.205 C 
ATOM     11  C   UNL     1      34.315  12.886  13.259  0.00  0.00    +0.233 C 
ATOM     12  O   UNL     1      34.425  12.641  14.461  0.00  0.00    -0.274 OA
ATOM     13  H   UNL     1      33.758  16.680  12.463  0.00  0.00    +0.151 HD
BRANCH   3  15
ATOM     14  C   UNL     1      37.008  11.207  12.300  0.00  0.00    +0.024 C 
ATOM     15  C   UNL     1      35.559  10.870  12.627  0.00  0.00    +0.104 C 
ENDBRANCH   3  15
ENDBRANCH   1   9
BRANCH   1  16
ATOM     16  C   UNL     1      32.997  18.944  12.046  0.00  0.00    -0.024 A 
ATOM     17  C   UNL     1      32.287  18.238  13.035  0.00  0.00    +0.009 A 
ATOM     18  C   UNL     1      31.453  18.898  13.933  0.00  0.00    +0.049 A 
ATOM     19  C   UNL     1      31.270  20.278  13.834  0.00  0.00    +0.156 A 
ATOM     20  C   UNL     1      32.021  20.994  12.898  0.00  0.00    +0.165 A 
ATOM     21  F   UNL     1      31.902  22.327  12.812  0.00  0.00    -0.202 F 
ATOM     22  C   UNL     1      32.876  20.339  12.006  0.00  0.00    +0.047 A 
BRANCH  19  23
ATOM     23  O   UNL     1      30.372  20.978  14.595  0.00  0.00    -0.489 OA
BRANCH  23  24
ATOM     24  C   UNL     1      30.780  21.187  15.951  0.00  0.00    +0.232 C 
BRANCH  24  25
ATOM     25  C   UNL     1      31.243  22.598  16.106  0.00  0.00    +0.027 C 
ATOM     26  C   UNL     1      32.705  22.936  15.975  0.00  0.00    +0.007 C 
ATOM     27  C   UNL     1      32.035  23.021  17.319  0.00  0.00    +0.007 C 
ENDBRANCH  24  25
ENDBRANCH  23  24
ENDBRANCH  19  23
ENDBRANCH   1  16
TORSDOF 6
ENDMDL
