MODEL 1
REMARK VINA RESULT:      -8.0      0.000      0.000
REMARK  Name = ZINC000583127796
REMARK  2 active torsions:
REMARK  status: ('A' for Active; 'I' for Inactive)
REMARK    1  A    between atoms: C_2  and  C_4
REMARK    2  A    between atoms: C_7  and  C_8
REMARK                            x       y       z     vdW  Elec       q    Type
REMARK                         _______ _______ _______ _____ _____    ______ ____
ROOT
ATOM      1  C   UNL     1      29.752  17.978  16.559  0.00  0.00    +0.247 C 
ATOM      2  O   UNL     1      30.329  17.408  17.487  0.00  0.00    -0.270 OA
ATOM      3  N   UNL     1      29.321  19.311  16.635  0.00  0.00    -0.297 N 
ATOM      4  C   UNL     1      28.628  20.067  15.590  0.00  0.00    +0.108 C 
ATOM      5  C   UNL     1      29.326  21.371  15.251  0.00  0.00    +0.020 C 
ATOM      6  C   UNL     1      29.637  22.181  16.496  0.00  0.00    +0.011 C 
ATOM      7  C   UNL     1      30.384  21.367  17.580  0.00  0.00    -0.004 C 
ATOM      8  C   UNL     1      30.500  22.278  18.822  0.00  0.00    +0.020 C 
ATOM      9  C   UNL     1      31.674  21.846  19.672  0.00  0.00    +0.070 C 
ATOM     10  S   UNL     1      32.957  21.440  18.477  0.00  0.00    -0.160 S 
ATOM     11  C   UNL     1      31.818  21.010  17.130  0.00  0.00    +0.077 C 
ATOM     12  C   UNL     1      29.582  20.071  17.873  0.00  0.00    +0.115 C 
ENDROOT
BRANCH   1  16
ATOM     13  C   UNL     1      29.260  15.491  13.110  0.00  0.00    +0.037 A 
ATOM     14  C   UNL     1      30.523  16.012  13.400  0.00  0.00    +0.014 A 
ATOM     15  C   UNL     1      30.675  16.920  14.450  0.00  0.00    +0.014 A 
ATOM     16  C   UNL     1      29.594  17.219  15.281  0.00  0.00    +0.037 A 
ATOM     17  C   UNL     1      28.312  16.772  14.931  0.00  0.00    +0.014 A 
ATOM     18  C   UNL     1      28.144  15.917  13.836  0.00  0.00    +0.014 A 
BRANCH  13  20
ATOM     19  N   UNL     1      29.078  13.167  12.417  0.00  0.00    -0.325 N 
ATOM     20  C   UNL     1      29.074  14.479  12.034  0.00  0.00    +0.242 C 
ATOM     21  O   UNL     1      28.876  14.805  10.876  0.00  0.00    -0.270 OA
ATOM     22  H   UNL     1      28.829  12.496  11.701  0.00  0.00    +0.145 HD
ATOM     23  H   UNL     1      28.953  12.884  13.380  0.00  0.00    +0.145 HD
ENDBRANCH  13  20
ENDBRANCH   1  16
TORSDOF 2
ENDMDL
MODEL 2
REMARK VINA RESULT:      -7.9      0.752      1.292
REMARK  Name = ZINC000583127796
REMARK  2 active torsions:
REMARK  status: ('A' for Active; 'I' for Inactive)
REMARK    1  A    between atoms: C_2  and  C_4
REMARK    2  A    between atoms: C_7  and  C_8
REMARK                            x       y       z     vdW  Elec       q    Type
REMARK                         _______ _______ _______ _____ _____    ______ ____
ROOT
ATOM      1  C   UNL     1      29.260  18.291  16.428  0.00  0.00    +0.247 C 
ATOM      2  O   UNL     1      29.392  17.913  17.594  0.00  0.00    -0.270 OA
ATOM      3  N   UNL     1      29.216  19.646  16.066  0.00  0.00    -0.297 N 
ATOM      4  C   UNL     1      29.059  20.185  14.714  0.00  0.00    +0.108 C 
ATOM      5  C   UNL     1      30.159  21.162  14.344  0.00  0.00    +0.020 C 
ATOM      6  C   UNL     1      30.353  22.222  15.412  0.00  0.00    +0.011 C 
ATOM      7  C   UNL     1      30.533  21.629  16.831  0.00  0.00    -0.004 C 
ATOM      8  C   UNL     1      30.575  22.821  17.811  0.00  0.00    +0.020 C 
ATOM      9  C   UNL     1      31.319  22.429  19.069  0.00  0.00    +0.070 C 
ATOM     10  S   UNL     1      32.699  21.440  18.474  0.00  0.00    -0.160 S 
ATOM     11  C   UNL     1      31.875  20.873  16.960  0.00  0.00    +0.077 C 
ATOM     12  C   UNL     1      29.352  20.666  17.124  0.00  0.00    +0.115 C 
ENDROOT
BRANCH   1  16
ATOM     13  C   UNL     1      29.241  15.552  13.138  0.00  0.00    +0.037 A 
ATOM     14  C   UNL     1      28.034  15.871  13.767  0.00  0.00    +0.014 A 
ATOM     15  C   UNL     1      28.039  16.667  14.914  0.00  0.00    +0.014 A 
ATOM     16  C   UNL     1      29.230  17.238  15.367  0.00  0.00    +0.037 A 
ATOM     17  C   UNL     1      30.446  16.839  14.795  0.00  0.00    +0.014 A 
ATOM     18  C   UNL     1      30.450  15.986  13.687  0.00  0.00    +0.014 A 
BRANCH  13  20
ATOM     19  N   UNL     1      28.749  13.488  11.949  0.00  0.00    -0.325 N 
ATOM     20  C   UNL     1      29.265  14.753  11.882  0.00  0.00    +0.242 C 
ATOM     21  O   UNL     1      29.675  15.220  10.833  0.00  0.00    -0.270 OA
ATOM     22  H   UNL     1      28.658  13.000  11.066  0.00  0.00    +0.145 HD
ATOM     23  H   UNL     1      28.155  13.186  12.709  0.00  0.00    +0.145 HD
ENDBRANCH  13  20
ENDBRANCH   1  16
TORSDOF 2
ENDMDL
MODEL 3
REMARK VINA RESULT:      -7.7      1.314      1.899
REMARK  Name = ZINC000583127796
REMARK  2 active torsions:
REMARK  status: ('A' for Active; 'I' for Inactive)
REMARK    1  A    between atoms: C_2  and  C_4
REMARK    2  A    between atoms: C_7  and  C_8
REMARK                            x       y       z     vdW  Elec       q    Type
REMARK                         _______ _______ _______ _____ _____    ______ ____
ROOT
ATOM      1  C   UNL     1      30.309  18.091  16.225  0.00  0.00    +0.247 C 
ATOM      2  O   UNL     1      31.507  18.333  16.385  0.00  0.00    -0.270 OA
ATOM      3  N   UNL     1      29.294  18.778  16.909  0.00  0.00    -0.297 N 
ATOM      4  C   UNL     1      27.852  18.557  16.786  0.00  0.00    +0.108 C 
ATOM      5  C   UNL     1      27.093  19.827  16.448  0.00  0.00    +0.020 C 
ATOM      6  C   UNL     1      27.466  20.968  17.377  0.00  0.00    +0.011 C 
ATOM      7  C   UNL     1      28.994  21.194  17.479  0.00  0.00    -0.004 C 
ATOM      8  C   UNL     1      29.214  22.279  18.555  0.00  0.00    +0.020 C 
ATOM      9  C   UNL     1      30.533  22.981  18.319  0.00  0.00    +0.070 C 
ATOM     10  S   UNL     1      30.620  23.165  16.531  0.00  0.00    -0.160 S 
ATOM     11  C   UNL     1      29.575  21.730  16.151  0.00  0.00    +0.077 C 
ATOM     12  C   UNL     1      29.674  19.849  17.850  0.00  0.00    +0.115 C 
ENDROOT
BRANCH   1  16
ATOM     13  C   UNL     1      29.372  15.436  13.000  0.00  0.00    +0.037 A 
ATOM     14  C   UNL     1      28.332  15.996  13.746  0.00  0.00    +0.014 A 
ATOM     15  C   UNL     1      28.624  16.767  14.873  0.00  0.00    +0.014 A 
ATOM     16  C   UNL     1      29.948  17.074  15.190  0.00  0.00    +0.037 A 
ATOM     17  C   UNL     1      30.987  16.433  14.500  0.00  0.00    +0.014 A 
ATOM     18  C   UNL     1      30.697  15.604  13.412  0.00  0.00    +0.014 A 
BRANCH  13  20
ATOM     19  N   UNL     1      28.726  13.351  11.928  0.00  0.00    -0.325 N 
ATOM     20  C   UNL     1      29.097  14.657  11.762  0.00  0.00    +0.242 C 
ATOM     21  O   UNL     1      29.148  15.170  10.657  0.00  0.00    -0.270 OA
ATOM     22  H   UNL     1      28.423  12.867  11.091  0.00  0.00    +0.145 HD
ATOM     23  H   UNL     1      28.403  12.989  12.814  0.00  0.00    +0.145 HD
ENDBRANCH  13  20
ENDBRANCH   1  16
TORSDOF 2
ENDMDL
MODEL 4
REMARK VINA RESULT:      -6.7      5.686      7.352
REMARK  Name = ZINC000583127796
REMARK  2 active torsions:
REMARK  status: ('A' for Active; 'I' for Inactive)
REMARK    1  A    between atoms: C_2  and  C_4
REMARK    2  A    between atoms: C_7  and  C_8
REMARK                            x       y       z     vdW  Elec       q    Type
REMARK                         _______ _______ _______ _____ _____    ______ ____
ROOT
ATOM      1  C   UNL     1      32.779  23.022  14.157  0.00  0.00    +0.247 C 
ATOM      2  O   UNL     1      33.542  23.590  14.941  0.00  0.00    -0.270 OA
ATOM      3  N   UNL     1      31.903  21.999  14.552  0.00  0.00    -0.297 N 
ATOM      4  C   UNL     1      30.967  21.269  13.694  0.00  0.00    +0.108 C 
ATOM      5  C   UNL     1      29.543  21.310  14.216  0.00  0.00    +0.020 C 
ATOM      6  C   UNL     1      29.470  20.921  15.681  0.00  0.00    +0.011 C 
ATOM      7  C   UNL     1      30.455  21.717  16.571  0.00  0.00    -0.004 C 
ATOM      8  C   UNL     1      30.362  21.115  17.989  0.00  0.00    +0.020 C 
ATOM      9  C   UNL     1      30.788  22.141  19.016  0.00  0.00    +0.070 C 
ATOM     10  S   UNL     1      30.073  23.682  18.421  0.00  0.00    -0.160 S 
ATOM     11  C   UNL     1      30.051  23.205  16.670  0.00  0.00    +0.077 C 
ATOM     12  C   UNL     1      31.881  21.594  15.971  0.00  0.00    +0.115 C 
ENDROOT
BRANCH   1  16
ATOM     13  C   UNL     1      32.999  24.657  10.207  0.00  0.00    +0.037 A 
ATOM     14  C   UNL     1      31.999  25.104  11.075  0.00  0.00    +0.014 A 
ATOM     15  C   UNL     1      31.840  24.495  12.322  0.00  0.00    +0.014 A 
ATOM     16  C   UNL     1      32.747  23.524  12.749  0.00  0.00    +0.037 A 
ATOM     17  C   UNL     1      33.685  23.011  11.842  0.00  0.00    +0.014 A 
ATOM     18  C   UNL     1      33.802  23.571  10.566  0.00  0.00    +0.014 A 
BRANCH  13  20
ATOM     19  N   UNL     1      32.566  24.802   7.818  0.00  0.00    -0.325 N 
ATOM     20  C   UNL     1      33.230  25.321   8.895  0.00  0.00    +0.242 C 
ATOM     21  O   UNL     1      33.934  26.311   8.793  0.00  0.00    -0.270 OA
ATOM     22  H   UNL     1      32.633  25.333   6.958  0.00  0.00    +0.145 HD
ATOM     23  H   UNL     1      31.774  24.181   7.918  0.00  0.00    +0.145 HD
ENDBRANCH  13  20
ENDBRANCH   1  16
TORSDOF 2
ENDMDL
MODEL 5
REMARK VINA RESULT:      -6.7      1.888      2.569
REMARK  Name = ZINC000583127796
REMARK  2 active torsions:
REMARK  status: ('A' for Active; 'I' for Inactive)
REMARK    1  A    between atoms: C_2  and  C_4
REMARK    2  A    between atoms: C_7  and  C_8
REMARK                            x       y       z     vdW  Elec       q    Type
REMARK                         _______ _______ _______ _____ _____    ______ ____
ROOT
ATOM      1  C   UNL     1      30.003  19.856  17.190  0.00  0.00    +0.247 C 
ATOM      2  O   UNL     1      30.266  19.696  18.383  0.00  0.00    -0.270 OA
ATOM      3  N   UNL     1      30.286  21.046  16.500  0.00  0.00    -0.297 N 
ATOM      4  C   UNL     1      30.009  21.327  15.090  0.00  0.00    +0.108 C 
ATOM      5  C   UNL     1      31.242  21.780  14.331  0.00  0.00    +0.020 C 
ATOM      6  C   UNL     1      31.965  22.902  15.054  0.00  0.00    +0.011 C 
ATOM      7  C   UNL     1      32.263  22.576  16.538  0.00  0.00    -0.004 C 
ATOM      8  C   UNL     1      32.865  23.853  17.162  0.00  0.00    +0.020 C 
ATOM      9  C   UNL     1      33.713  23.491  18.362  0.00  0.00    +0.070 C 
ATOM     10  S   UNL     1      34.576  21.996  17.856  0.00  0.00    -0.160 S 
ATOM     11  C   UNL     1      33.315  21.453  16.669  0.00  0.00    +0.077 C 
ATOM     12  C   UNL     1      30.941  22.148  17.230  0.00  0.00    +0.115 C 
ENDROOT
BRANCH   1  16
ATOM     13  C   UNL     1      28.432  16.707  14.753  0.00  0.00    +0.037 A 
ATOM     14  C   UNL     1      27.558  17.457  15.544  0.00  0.00    +0.014 A 
ATOM     15  C   UNL     1      28.069  18.406  16.432  0.00  0.00    +0.014 A 
ATOM     16  C   UNL     1      29.436  18.687  16.450  0.00  0.00    +0.037 A 
ATOM     17  C   UNL     1      30.317  17.868  15.729  0.00  0.00    +0.014 A 
ATOM     18  C   UNL     1      29.813  16.869  14.890  0.00  0.00    +0.014 A 
BRANCH  13  20
ATOM     19  N   UNL     1      28.851  15.063  13.011  0.00  0.00    -0.325 N 
ATOM     20  C   UNL     1      27.918  15.728  13.757  0.00  0.00    +0.242 C 
ATOM     21  O   UNL     1      26.726  15.491  13.647  0.00  0.00    -0.270 OA
ATOM     22  H   UNL     1      28.499  14.314  12.426  0.00  0.00    +0.145 HD
ATOM     23  H   UNL     1      29.827  15.026  13.272  0.00  0.00    +0.145 HD
ENDBRANCH  13  20
ENDBRANCH   1  16
TORSDOF 2
ENDMDL
MODEL 6
REMARK VINA RESULT:      -6.7      1.000      1.045
REMARK  Name = ZINC000583127796
REMARK  2 active torsions:
REMARK  status: ('A' for Active; 'I' for Inactive)
REMARK    1  A    between atoms: C_2  and  C_4
REMARK    2  A    between atoms: C_7  and  C_8
REMARK                            x       y       z     vdW  Elec       q    Type
REMARK                         _______ _______ _______ _____ _____    ______ ____
ROOT
ATOM      1  C   UNL     1      30.601  17.899  16.342  0.00  0.00    +0.247 C 
ATOM      2  O   UNL     1      31.446  17.481  17.135  0.00  0.00    -0.270 OA
ATOM      3  N   UNL     1      29.809  19.029  16.598  0.00  0.00    -0.297 N 
ATOM      4  C   UNL     1      28.783  19.596  15.720  0.00  0.00    +0.108 C 
ATOM      5  C   UNL     1      29.009  21.068  15.431  0.00  0.00    +0.020 C 
ATOM      6  C   UNL     1      29.238  21.861  16.705  0.00  0.00    +0.011 C 
ATOM      7  C   UNL     1      30.338  21.254  17.609  0.00  0.00    -0.004 C 
ATOM      8  C   UNL     1      30.353  22.082  18.912  0.00  0.00    +0.020 C 
ATOM      9  C   UNL     1      31.711  21.983  19.572  0.00  0.00    +0.070 C 
ATOM     10  S   UNL     1      32.874  22.060  18.202  0.00  0.00    -0.160 S 
ATOM     11  C   UNL     1      31.736  21.381  16.962  0.00  0.00    +0.077 C 
ATOM     12  C   UNL     1      30.006  19.760  17.865  0.00  0.00    +0.115 C 
ENDROOT
BRANCH   1  16
ATOM     13  C   UNL     1      30.291  15.580  12.757  0.00  0.00    +0.037 A 
ATOM     14  C   UNL     1      31.507  16.193  13.069  0.00  0.00    +0.014 A 
ATOM     15  C   UNL     1      31.590  17.049  14.169  0.00  0.00    +0.014 A 
ATOM     16  C   UNL     1      30.496  17.203  15.022  0.00  0.00    +0.037 A 
ATOM     17  C   UNL     1      29.254  16.667  14.654  0.00  0.00    +0.014 A 
ATOM     18  C   UNL     1      29.151  15.865  13.513  0.00  0.00    +0.014 A 
BRANCH  13  20
ATOM     19  N   UNL     1      29.075  14.727  10.832  0.00  0.00    -0.325 N 
ATOM     20  C   UNL     1      30.183  14.620  11.625  0.00  0.00    +0.242 C 
ATOM     21  O   UNL     1      31.065  13.812  11.383  0.00  0.00    -0.270 OA
ATOM     22  H   UNL     1      29.070  14.154   9.997  0.00  0.00    +0.145 HD
ATOM     23  H   UNL     1      28.486  15.549  10.832  0.00  0.00    +0.145 HD
ENDBRANCH  13  20
ENDBRANCH   1  16
TORSDOF 2
ENDMDL
MODEL 7
REMARK VINA RESULT:      -6.5      2.430      3.316
REMARK  Name = ZINC000583127796
REMARK  2 active torsions:
REMARK  status: ('A' for Active; 'I' for Inactive)
REMARK    1  A    between atoms: C_2  and  C_4
REMARK    2  A    between atoms: C_7  and  C_8
REMARK                            x       y       z     vdW  Elec       q    Type
REMARK                         _______ _______ _______ _____ _____    ______ ____
ROOT
ATOM      1  C   UNL     1      31.551  18.176  14.799  0.00  0.00    +0.247 C 
ATOM      2  O   UNL     1      31.685  19.302  14.316  0.00  0.00    -0.270 OA
ATOM      3  N   UNL     1      31.260  17.956  16.154  0.00  0.00    -0.297 N 
ATOM      4  C   UNL     1      31.087  16.661  16.813  0.00  0.00    +0.108 C 
ATOM      5  C   UNL     1      29.767  16.554  17.554  0.00  0.00    +0.020 C 
ATOM      6  C   UNL     1      29.536  17.746  18.465  0.00  0.00    +0.011 C 
ATOM      7  C   UNL     1      29.709  19.105  17.744  0.00  0.00    -0.004 C 
ATOM      8  C   UNL     1      29.584  20.202  18.823  0.00  0.00    +0.020 C 
ATOM      9  C   UNL     1      29.145  21.503  18.188  0.00  0.00    +0.070 C 
ATOM     10  S   UNL     1      27.917  21.007  16.970  0.00  0.00    -0.160 S 
ATOM     11  C   UNL     1      28.587  19.341  16.708  0.00  0.00    +0.077 C 
ATOM     12  C   UNL     1      31.092  19.124  17.040  0.00  0.00    +0.115 C 
ENDROOT
BRANCH   1  16
ATOM     13  C   UNL     1      31.672  14.631  12.401  0.00  0.00    +0.037 A 
ATOM     14  C   UNL     1      32.868  15.277  12.724  0.00  0.00    +0.014 A 
ATOM     15  C   UNL     1      32.836  16.497  13.402  0.00  0.00    +0.014 A 
ATOM     16  C   UNL     1      31.623  17.015  13.858  0.00  0.00    +0.037 A 
ATOM     17  C   UNL     1      30.422  16.418  13.450  0.00  0.00    +0.014 A 
ATOM     18  C   UNL     1      30.448  15.231  12.710  0.00  0.00    +0.014 A 
BRANCH  13  20
ATOM     19  N   UNL     1      30.674  12.437  12.079  0.00  0.00    -0.325 N 
ATOM     20  C   UNL     1      31.673  13.303  11.729  0.00  0.00    +0.242 C 
ATOM     21  O   UNL     1      32.491  13.020  10.870  0.00  0.00    -0.270 OA
ATOM     22  H   UNL     1      30.612  11.588  11.530  0.00  0.00    +0.145 HD
ATOM     23  H   UNL     1      29.838  12.740  12.559  0.00  0.00    +0.145 HD
ENDBRANCH  13  20
ENDBRANCH   1  16
TORSDOF 2
ENDMDL
MODEL 8
REMARK VINA RESULT:      -6.5      3.205      7.553
REMARK  Name = ZINC000583127796
REMARK  2 active torsions:
REMARK  status: ('A' for Active; 'I' for Inactive)
REMARK    1  A    between atoms: C_2  and  C_4
REMARK    2  A    between atoms: C_7  and  C_8
REMARK                            x       y       z     vdW  Elec       q    Type
REMARK                         _______ _______ _______ _____ _____    ______ ____
ROOT
ATOM      1  C   UNL     1      30.353  20.401  15.780  0.00  0.00    +0.247 C 
ATOM      2  O   UNL     1      30.446  20.641  14.575  0.00  0.00    -0.270 OA
ATOM      3  N   UNL     1      29.509  19.406  16.297  0.00  0.00    -0.297 N 
ATOM      4  C   UNL     1      29.332  19.054  17.707  0.00  0.00    +0.108 C 
ATOM      5  C   UNL     1      29.563  17.579  17.974  0.00  0.00    +0.020 C 
ATOM      6  C   UNL     1      28.775  16.704  17.017  0.00  0.00    +0.011 C 
ATOM      7  C   UNL     1      28.990  17.083  15.531  0.00  0.00    -0.004 C 
ATOM      8  C   UNL     1      28.025  16.207  14.703  0.00  0.00    +0.020 C 
ATOM      9  C   UNL     1      28.549  16.054  13.292  0.00  0.00    +0.070 C 
ATOM     10  S   UNL     1      30.324  15.847  13.501  0.00  0.00    -0.160 S 
ATOM     11  C   UNL     1      30.428  16.757  15.067  0.00  0.00    +0.077 C 
ATOM     12  C   UNL     1      28.708  18.599  15.356  0.00  0.00    +0.115 C 
ENDROOT
BRANCH   1  16
ATOM     13  C   UNL     1      32.834  22.331  18.687  0.00  0.00    +0.037 A 
ATOM     14  C   UNL     1      31.649  22.951  18.282  0.00  0.00    +0.014 A 
ATOM     15  C   UNL     1      30.892  22.393  17.250  0.00  0.00    +0.014 A 
ATOM     16  C   UNL     1      31.253  21.162  16.701  0.00  0.00    +0.037 A 
ATOM     17  C   UNL     1      32.489  20.593  17.039  0.00  0.00    +0.014 A 
ATOM     18  C   UNL     1      33.285  21.186  18.024  0.00  0.00    +0.014 A 
BRANCH  13  20
ATOM     19  N   UNL     1      33.225  22.524  21.079  0.00  0.00    -0.325 N 
ATOM     20  C   UNL     1      33.634  22.869  19.821  0.00  0.00    +0.242 C 
ATOM     21  O   UNL     1      34.636  23.540  19.637  0.00  0.00    -0.270 OA
ATOM     22  H   UNL     1      33.845  22.792  21.835  0.00  0.00    +0.145 HD
ATOM     23  H   UNL     1      32.591  21.756  21.251  0.00  0.00    +0.145 HD
ENDBRANCH  13  20
ENDBRANCH   1  16
TORSDOF 2
ENDMDL
MODEL 9
REMARK VINA RESULT:      -6.5      3.788      8.014
REMARK  Name = ZINC000583127796
REMARK  2 active torsions:
REMARK  status: ('A' for Active; 'I' for Inactive)
REMARK    1  A    between atoms: C_2  and  C_4
REMARK    2  A    between atoms: C_7  and  C_8
REMARK                            x       y       z     vdW  Elec       q    Type
REMARK                         _______ _______ _______ _____ _____    ______ ____
ROOT
ATOM      1  C   UNL     1      31.973  20.722  16.913  0.00  0.00    +0.247 C 
ATOM      2  O   UNL     1      32.650  19.746  16.583  0.00  0.00    -0.270 OA
ATOM      3  N   UNL     1      30.613  20.850  16.594  0.00  0.00    -0.297 N 
ATOM      4  C   UNL     1      29.734  21.969  16.940  0.00  0.00    +0.108 C 
ATOM      5  C   UNL     1      28.484  21.524  17.675  0.00  0.00    +0.020 C 
ATOM      6  C   UNL     1      27.781  20.389  16.953  0.00  0.00    +0.011 C 
ATOM      7  C   UNL     1      28.725  19.210  16.612  0.00  0.00    -0.004 C 
ATOM      8  C   UNL     1      27.905  18.212  15.766  0.00  0.00    +0.020 C 
ATOM      9  C   UNL     1      28.495  16.824  15.889  0.00  0.00    +0.070 C 
ATOM     10  S   UNL     1      28.946  16.689  17.625  0.00  0.00    -0.160 S 
ATOM     11  C   UNL     1      29.187  18.469  17.887  0.00  0.00    +0.077 C 
ATOM     12  C   UNL     1      29.956  19.761  15.845  0.00  0.00    +0.115 C 
ENDROOT
BRANCH   1  16
ATOM     13  C   UNL     1      34.202  23.523  19.261  0.00  0.00    +0.037 A 
ATOM     14  C   UNL     1      33.412  22.569  19.907  0.00  0.00    +0.014 A 
ATOM     15  C   UNL     1      32.588  21.728  19.156  0.00  0.00    +0.014 A 
ATOM     16  C   UNL     1      32.637  21.760  17.761  0.00  0.00    +0.037 A 
ATOM     17  C   UNL     1      33.354  22.779  17.120  0.00  0.00    +0.014 A 
ATOM     18  C   UNL     1      34.128  23.669  17.873  0.00  0.00    +0.014 A 
BRANCH  13  20
ATOM     19  N   UNL     1      35.590  23.909  21.220  0.00  0.00    -0.325 N 
ATOM     20  C   UNL     1      35.133  24.397  20.027  0.00  0.00    +0.242 C 
ATOM     21  O   UNL     1      35.511  25.470  19.589  0.00  0.00    -0.270 OA
ATOM     22  H   UNL     1      36.314  24.454  21.673  0.00  0.00    +0.145 HD
ATOM     23  H   UNL     1      35.525  22.931  21.466  0.00  0.00    +0.145 HD
ENDBRANCH  13  20
ENDBRANCH   1  16
TORSDOF 2
ENDMDL
