MODEL 1
REMARK VINA RESULT:      -6.1      0.000      0.000
REMARK  Name = ZINC001228612316
REMARK  5 active torsions:
REMARK  status: ('A' for Active; 'I' for Inactive)
REMARK    1  A    between atoms: C_2  and  C_4
REMARK    2  A    between atoms: C_8  and  O_9
REMARK    3  A    between atoms: O_9  and  C_10
REMARK    4  A    between atoms: C_10  and  C_11
REMARK    5  A    between atoms: C_10  and  C_17
REMARK                            x       y       z     vdW  Elec       q    Type
REMARK                         _______ _______ _______ _____ _____    ______ ____
ROOT
ATOM      1  C   UNL     1      29.381  21.829  16.635  0.00  0.00    +0.040 A 
ATOM      2  C   UNL     1      30.255  20.739  16.645  0.00  0.00    +0.013 A 
ATOM      3  C   UNL     1      31.322  20.702  15.744  0.00  0.00    +0.004 A 
ATOM      4  C   UNL     1      31.519  21.757  14.846  0.00  0.00    +0.046 A 
ATOM      5  C   UNL     1      30.652  22.852  14.839  0.00  0.00    +0.122 A 
ATOM      6  C   UNL     1      29.571  22.864  15.714  0.00  0.00    +0.058 A 
ENDROOT
BRANCH   1   8
ATOM      7  N   UNL     1      28.186  23.074  18.355  0.00  0.00    -0.325 N 
ATOM      8  C   UNL     1      28.235  21.959  17.569  0.00  0.00    +0.242 C 
ATOM      9  O   UNL     1      27.329  21.135  17.594  0.00  0.00    -0.270 OA
ATOM     10  H   UNL     1      27.326  23.208  18.872  0.00  0.00    +0.145 HD
ATOM     11  H   UNL     1      28.750  23.890  18.168  0.00  0.00    +0.145 HD
ENDBRANCH   1   8
BRANCH   5  12
ATOM     12  O   UNL     1      30.935  23.836  13.932  0.00  0.00    -0.484 OA
BRANCH  12  13
ATOM     13  C   UNL     1      32.319  24.174  13.721  0.00  0.00    +0.208 C 
BRANCH  13  14
ATOM     14  C   UNL     1      32.575  24.290  12.233  0.00  0.00    +0.011 A 
ATOM     15  C   UNL     1      31.969  25.314  11.493  0.00  0.00    +0.010 A 
ATOM     16  C   UNL     1      32.198  25.418  10.127  0.00  0.00    +0.020 A 
ATOM     17  C   UNL     1      33.034  24.487   9.536  0.00  0.00    +0.111 A 
ATOM     18  N   UNL     1      33.635  23.482  10.208  0.00  0.00    -0.263 NA
ATOM     19  C   UNL     1      33.390  23.404  11.538  0.00  0.00    +0.118 A 
ENDBRANCH  13  14
BRANCH  13  20
ATOM     20  C   UNL     1      32.632  25.483  14.413  0.00  0.00    +0.034 C 
ATOM     21  C   UNL     1      34.027  26.071  14.426  0.00  0.00    +0.008 C 
ATOM     22  C   UNL     1      33.451  25.508  15.688  0.00  0.00    +0.008 C 
ENDBRANCH  13  20
ENDBRANCH  12  13
ENDBRANCH   5  12
TORSDOF 5
ENDMDL
MODEL 2
REMARK VINA RESULT:      -6.0      2.901      6.058
REMARK  Name = ZINC001228612316
REMARK  5 active torsions:
REMARK  status: ('A' for Active; 'I' for Inactive)
REMARK    1  A    between atoms: C_2  and  C_4
REMARK    2  A    between atoms: C_8  and  O_9
REMARK    3  A    between atoms: O_9  and  C_10
REMARK    4  A    between atoms: C_10  and  C_11
REMARK    5  A    between atoms: C_10  and  C_17
REMARK                            x       y       z     vdW  Elec       q    Type
REMARK                         _______ _______ _______ _____ _____    ______ ____
ROOT
ATOM      1  C   UNL     1      31.834  25.679  13.618  0.00  0.00    +0.040 A 
ATOM      2  C   UNL     1      32.977  26.439  13.880  0.00  0.00    +0.013 A 
ATOM      3  C   UNL     1      33.877  26.014  14.860  0.00  0.00    +0.004 A 
ATOM      4  C   UNL     1      33.638  24.830  15.567  0.00  0.00    +0.046 A 
ATOM      5  C   UNL     1      32.501  24.064  15.301  0.00  0.00    +0.122 A 
ATOM      6  C   UNL     1      31.591  24.512  14.348  0.00  0.00    +0.058 A 
ENDROOT
BRANCH   1   8
ATOM      7  N   UNL     1      29.596  26.422  13.004  0.00  0.00    -0.325 N 
ATOM      8  C   UNL     1      30.837  26.045  12.580  0.00  0.00    +0.242 C 
ATOM      9  O   UNL     1      31.128  26.072  11.390  0.00  0.00    -0.270 OA
ATOM     10  H   UNL     1      28.987  26.804  12.290  0.00  0.00    +0.145 HD
ATOM     11  H   UNL     1      29.409  26.677  13.963  0.00  0.00    +0.145 HD
ENDBRANCH   1   8
BRANCH   5  12
ATOM     12  O   UNL     1      32.363  22.919  16.037  0.00  0.00    -0.484 OA
BRANCH  12  13
ATOM     13  C   UNL     1      31.204  22.101  15.790  0.00  0.00    +0.208 C 
BRANCH  13  14
ATOM     14  C   UNL     1      31.645  20.662  15.625  0.00  0.00    +0.011 A 
ATOM     15  C   UNL     1      31.405  19.986  14.421  0.00  0.00    +0.010 A 
ATOM     16  C   UNL     1      31.803  18.664  14.271  0.00  0.00    +0.020 A 
ATOM     17  C   UNL     1      32.436  18.051  15.338  0.00  0.00    +0.111 A 
ATOM     18  N   UNL     1      32.683  18.661  16.517  0.00  0.00    -0.263 NA
ATOM     19  C   UNL     1      32.280  19.949  16.635  0.00  0.00    +0.118 A 
ENDBRANCH  13  14
BRANCH  13  20
ATOM     20  C   UNL     1      30.238  22.227  16.948  0.00  0.00    +0.034 C 
ATOM     21  C   UNL     1      28.893  21.531  16.953  0.00  0.00    +0.008 C 
ATOM     22  C   UNL     1      28.954  23.020  16.803  0.00  0.00    +0.008 C 
ENDBRANCH  13  20
ENDBRANCH  12  13
ENDBRANCH   5  12
TORSDOF 5
ENDMDL
MODEL 3
REMARK VINA RESULT:      -5.9      2.648      6.473
REMARK  Name = ZINC001228612316
REMARK  5 active torsions:
REMARK  status: ('A' for Active; 'I' for Inactive)
REMARK    1  A    between atoms: C_2  and  C_4
REMARK    2  A    between atoms: C_8  and  O_9
REMARK    3  A    between atoms: O_9  and  C_10
REMARK    4  A    between atoms: C_10  and  C_11
REMARK    5  A    between atoms: C_10  and  C_17
REMARK                            x       y       z     vdW  Elec       q    Type
REMARK                         _______ _______ _______ _____ _____    ______ ____
ROOT
ATOM      1  C   UNL     1      32.310  25.032  11.324  0.00  0.00    +0.040 A 
ATOM      2  C   UNL     1      31.297  25.941  11.638  0.00  0.00    +0.013 A 
ATOM      3  C   UNL     1      30.648  25.850  12.872  0.00  0.00    +0.004 A 
ATOM      4  C   UNL     1      31.019  24.862  13.789  0.00  0.00    +0.046 A 
ATOM      5  C   UNL     1      32.038  23.957  13.481  0.00  0.00    +0.122 A 
ATOM      6  C   UNL     1      32.655  24.031  12.237  0.00  0.00    +0.058 A 
ENDROOT
BRANCH   1   8
ATOM      7  N   UNL     1      34.056  26.000   9.926  0.00  0.00    -0.325 N 
ATOM      8  C   UNL     1      33.065  25.069  10.046  0.00  0.00    +0.242 C 
ATOM      9  O   UNL     1      32.859  24.255   9.153  0.00  0.00    -0.270 OA
ATOM     10  H   UNL     1      34.647  25.907   9.109  0.00  0.00    +0.145 HD
ATOM     11  H   UNL     1      34.435  26.489  10.724  0.00  0.00    +0.145 HD
ENDBRANCH   1   8
BRANCH   5  12
ATOM     12  O   UNL     1      32.335  23.035  14.448  0.00  0.00    -0.484 OA
BRANCH  12  13
ATOM     13  C   UNL     1      31.359  22.011  14.717  0.00  0.00    +0.208 C 
BRANCH  13  14
ATOM     14  C   UNL     1      32.027  20.656  14.607  0.00  0.00    +0.011 A 
ATOM     15  C   UNL     1      31.353  19.587  14.001  0.00  0.00    +0.010 A 
ATOM     16  C   UNL     1      31.962  18.342  13.906  0.00  0.00    +0.020 A 
ATOM     17  C   UNL     1      33.238  18.202  14.422  0.00  0.00    +0.111 A 
ATOM     18  N   UNL     1      33.922  19.201  15.018  0.00  0.00    -0.263 NA
ATOM     19  C   UNL     1      33.302  20.404  15.100  0.00  0.00    +0.118 A 
ENDBRANCH  13  14
BRANCH  13  20
ATOM     20  C   UNL     1      30.789  22.206  16.104  0.00  0.00    +0.034 C 
ATOM     21  C   UNL     1      29.800  21.233  16.712  0.00  0.00    +0.008 C 
ATOM     22  C   UNL     1      29.336  22.596  16.297  0.00  0.00    +0.008 C 
ENDBRANCH  13  20
ENDBRANCH  12  13
ENDBRANCH   5  12
TORSDOF 5
ENDMDL
MODEL 4
REMARK VINA RESULT:      -5.8      2.059      6.786
REMARK  Name = ZINC001228612316
REMARK  5 active torsions:
REMARK  status: ('A' for Active; 'I' for Inactive)
REMARK    1  A    between atoms: C_2  and  C_4
REMARK    2  A    between atoms: C_8  and  O_9
REMARK    3  A    between atoms: O_9  and  C_10
REMARK    4  A    between atoms: C_10  and  C_11
REMARK    5  A    between atoms: C_10  and  C_17
REMARK                            x       y       z     vdW  Elec       q    Type
REMARK                         _______ _______ _______ _____ _____    ______ ____
ROOT
ATOM      1  C   UNL     1      32.671  25.102  11.621  0.00  0.00    +0.040 A 
ATOM      2  C   UNL     1      32.158  26.401  11.664  0.00  0.00    +0.013 A 
ATOM      3  C   UNL     1      31.042  26.676  12.459  0.00  0.00    +0.004 A 
ATOM      4  C   UNL     1      30.451  25.658  13.215  0.00  0.00    +0.046 A 
ATOM      5  C   UNL     1      30.967  24.360  13.181  0.00  0.00    +0.122 A 
ATOM      6  C   UNL     1      32.055  24.087  12.359  0.00  0.00    +0.058 A 
ENDROOT
BRANCH   1   8
ATOM      7  N   UNL     1      34.254  25.583   9.832  0.00  0.00    -0.325 N 
ATOM      8  C   UNL     1      33.863  24.727  10.821  0.00  0.00    +0.242 C 
ATOM      9  O   UNL     1      34.516  23.721  11.073  0.00  0.00    -0.270 OA
ATOM     10  H   UNL     1      35.148  25.377   9.403  0.00  0.00    +0.145 HD
ATOM     11  H   UNL     1      33.919  26.534   9.780  0.00  0.00    +0.145 HD
ENDBRANCH   1   8
BRANCH   5  12
ATOM     12  O   UNL     1      30.326  23.439  13.963  0.00  0.00    -0.484 OA
BRANCH  12  13
ATOM     13  C   UNL     1      31.116  22.706  14.918  0.00  0.00    +0.208 C 
BRANCH  13  14
ATOM     14  C   UNL     1      31.124  23.461  16.231  0.00  0.00    +0.011 A 
ATOM     15  C   UNL     1      32.333  23.919  16.771  0.00  0.00    +0.010 A 
ATOM     16  C   UNL     1      32.342  24.606  17.979  0.00  0.00    +0.020 A 
ATOM     17  C   UNL     1      31.133  24.817  18.615  0.00  0.00    +0.111 A 
ATOM     18  N   UNL     1      29.945  24.389  18.135  0.00  0.00    -0.263 NA
ATOM     19  C   UNL     1      29.968  23.719  16.957  0.00  0.00    +0.118 A 
ENDBRANCH  13  14
BRANCH  13  20
ATOM     20  C   UNL     1      30.529  21.325  15.108  0.00  0.00    +0.034 C 
ATOM     21  C   UNL     1      31.080  20.350  16.127  0.00  0.00    +0.008 C 
ATOM     22  C   UNL     1      31.293  20.091  14.668  0.00  0.00    +0.008 C 
ENDBRANCH  13  20
ENDBRANCH  12  13
ENDBRANCH   5  12
TORSDOF 5
ENDMDL
MODEL 5
REMARK VINA RESULT:      -5.7      4.092      5.988
REMARK  Name = ZINC001228612316
REMARK  5 active torsions:
REMARK  status: ('A' for Active; 'I' for Inactive)
REMARK    1  A    between atoms: C_2  and  C_4
REMARK    2  A    between atoms: C_8  and  O_9
REMARK    3  A    between atoms: O_9  and  C_10
REMARK    4  A    between atoms: C_10  and  C_11
REMARK    5  A    between atoms: C_10  and  C_17
REMARK                            x       y       z     vdW  Elec       q    Type
REMARK                         _______ _______ _______ _____ _____    ______ ____
ROOT
ATOM      1  C   UNL     1      31.872  26.133  12.250  0.00  0.00    +0.040 A 
ATOM      2  C   UNL     1      32.393  27.376  12.619  0.00  0.00    +0.013 A 
ATOM      3  C   UNL     1      33.513  27.879  11.952  0.00  0.00    +0.004 A 
ATOM      4  C   UNL     1      34.099  27.147  10.914  0.00  0.00    +0.046 A 
ATOM      5  C   UNL     1      33.575  25.908  10.537  0.00  0.00    +0.122 A 
ATOM      6  C   UNL     1      32.483  25.397  11.230  0.00  0.00    +0.058 A 
ENDROOT
BRANCH   1   8
ATOM      7  N   UNL     1      29.597  26.345  13.098  0.00  0.00    -0.325 N 
ATOM      8  C   UNL     1      30.675  25.533  12.891  0.00  0.00    +0.242 C 
ATOM      9  O   UNL     1      30.623  24.340  13.166  0.00  0.00    -0.270 OA
ATOM     10  H   UNL     1      28.750  25.879  13.399  0.00  0.00    +0.145 HD
ATOM     11  H   UNL     1      29.501  27.239  12.640  0.00  0.00    +0.145 HD
ENDBRANCH   1   8
BRANCH   5  12
ATOM     12  O   UNL     1      34.213  25.275   9.506  0.00  0.00    -0.484 OA
BRANCH  12  13
ATOM     13  C   UNL     1      34.779  23.977   9.765  0.00  0.00    +0.208 C 
BRANCH  13  14
ATOM     14  C   UNL     1      35.341  23.419   8.474  0.00  0.00    +0.011 A 
ATOM     15  C   UNL     1      35.290  22.042   8.222  0.00  0.00    +0.010 A 
ATOM     16  C   UNL     1      35.811  21.528   7.041  0.00  0.00    +0.020 A 
ATOM     17  C   UNL     1      36.371  22.414   6.139  0.00  0.00    +0.111 A 
ATOM     18  N   UNL     1      36.446  23.747   6.341  0.00  0.00    -0.263 NA
ATOM     19  C   UNL     1      35.933  24.219   7.504  0.00  0.00    +0.118 A 
ENDBRANCH  13  14
BRANCH  13  20
ATOM     20  C   UNL     1      35.871  24.099  10.805  0.00  0.00    +0.034 C 
ATOM     21  C   UNL     1      36.664  22.901  11.284  0.00  0.00    +0.008 C 
ATOM     22  C   UNL     1      35.675  23.547  12.204  0.00  0.00    +0.008 C 
ENDBRANCH  13  20
ENDBRANCH  12  13
ENDBRANCH   5  12
TORSDOF 5
ENDMDL
MODEL 6
REMARK VINA RESULT:      -5.7      2.032      2.533
REMARK  Name = ZINC001228612316
REMARK  5 active torsions:
REMARK  status: ('A' for Active; 'I' for Inactive)
REMARK    1  A    between atoms: C_2  and  C_4
REMARK    2  A    between atoms: C_8  and  O_9
REMARK    3  A    between atoms: O_9  and  C_10
REMARK    4  A    between atoms: C_10  and  C_11
REMARK    5  A    between atoms: C_10  and  C_17
REMARK                            x       y       z     vdW  Elec       q    Type
REMARK                         _______ _______ _______ _____ _____    ______ ____
ROOT
ATOM      1  C   UNL     1      31.176  20.453  15.731  0.00  0.00    +0.040 A 
ATOM      2  C   UNL     1      30.169  20.666  16.676  0.00  0.00    +0.013 A 
ATOM      3  C   UNL     1      29.476  21.879  16.683  0.00  0.00    +0.004 A 
ATOM      4  C   UNL     1      29.783  22.868  15.743  0.00  0.00    +0.046 A 
ATOM      5  C   UNL     1      30.783  22.655  14.791  0.00  0.00    +0.122 A 
ATOM      6  C   UNL     1      31.493  21.459  14.813  0.00  0.00    +0.058 A 
ENDROOT
BRANCH   1   8
ATOM      7  N   UNL     1      33.100  19.205  14.907  0.00  0.00    -0.325 N 
ATOM      8  C   UNL     1      31.947  19.188  15.638  0.00  0.00    +0.242 C 
ATOM      9  O   UNL     1      31.605  18.180  16.245  0.00  0.00    -0.270 OA
ATOM     10  H   UNL     1      33.677  18.376  14.981  0.00  0.00    +0.145 HD
ATOM     11  H   UNL     1      33.550  20.065  14.632  0.00  0.00    +0.145 HD
ENDBRANCH   1   8
BRANCH   5  12
ATOM     12  O   UNL     1      31.000  23.677  13.909  0.00  0.00    -0.484 OA
BRANCH  12  13
ATOM     13  C   UNL     1      32.361  24.098  13.696  0.00  0.00    +0.208 C 
BRANCH  13  14
ATOM     14  C   UNL     1      32.599  24.251  12.208  0.00  0.00    +0.011 A 
ATOM     15  C   UNL     1      31.970  25.281  11.497  0.00  0.00    +0.010 A 
ATOM     16  C   UNL     1      32.183  25.419  10.131  0.00  0.00    +0.020 A 
ATOM     17  C   UNL     1      33.027  24.515   9.511  0.00  0.00    +0.111 A 
ATOM     18  N   UNL     1      33.651  23.505  10.155  0.00  0.00    -0.263 NA
ATOM     19  C   UNL     1      33.421  23.394  11.486  0.00  0.00    +0.118 A 
ENDBRANCH  13  14
BRANCH  13  20
ATOM     20  C   UNL     1      32.603  25.412  14.405  0.00  0.00    +0.034 C 
ATOM     21  C   UNL     1      33.970  26.061  14.452  0.00  0.00    +0.008 C 
ATOM     22  C   UNL     1      33.395  25.460  15.697  0.00  0.00    +0.008 C 
ENDBRANCH  13  20
ENDBRANCH  12  13
ENDBRANCH   5  12
TORSDOF 5
ENDMDL
MODEL 7
REMARK VINA RESULT:      -5.7      1.953      6.524
REMARK  Name = ZINC001228612316
REMARK  5 active torsions:
REMARK  status: ('A' for Active; 'I' for Inactive)
REMARK    1  A    between atoms: C_2  and  C_4
REMARK    2  A    between atoms: C_8  and  O_9
REMARK    3  A    between atoms: O_9  and  C_10
REMARK    4  A    between atoms: C_10  and  C_11
REMARK    5  A    between atoms: C_10  and  C_17
REMARK                            x       y       z     vdW  Elec       q    Type
REMARK                         _______ _______ _______ _____ _____    ______ ____
ROOT
ATOM      1  C   UNL     1      32.425  24.520  10.915  0.00  0.00    +0.040 A 
ATOM      2  C   UNL     1      31.743  25.734  11.030  0.00  0.00    +0.013 A 
ATOM      3  C   UNL     1      31.379  26.202  12.296  0.00  0.00    +0.004 A 
ATOM      4  C   UNL     1      31.707  25.465  13.438  0.00  0.00    +0.046 A 
ATOM      5  C   UNL     1      32.397  24.255  13.327  0.00  0.00    +0.122 A 
ATOM      6  C   UNL     1      32.723  23.777  12.062  0.00  0.00    +0.058 A 
ENDROOT
BRANCH   1   8
ATOM      7  N   UNL     1      33.292  24.837   8.660  0.00  0.00    -0.325 N 
ATOM      8  C   UNL     1      32.868  23.958   9.614  0.00  0.00    +0.242 C 
ATOM      9  O   UNL     1      32.915  22.749   9.418  0.00  0.00    -0.270 OA
ATOM     10  H   UNL     1      33.723  24.421   7.843  0.00  0.00    +0.145 HD
ATOM     11  H   UNL     1      33.528  25.794   8.876  0.00  0.00    +0.145 HD
ENDBRANCH   1   8
BRANCH   5  12
ATOM     12  O   UNL     1      32.679  23.614  14.502  0.00  0.00    -0.484 OA
BRANCH  12  13
ATOM     13  C   UNL     1      32.086  24.134  15.706  0.00  0.00    +0.208 C 
BRANCH  13  14
ATOM     14  C   UNL     1      30.998  23.187  16.166  0.00  0.00    +0.011 A 
ATOM     15  C   UNL     1      31.231  21.805  16.189  0.00  0.00    +0.010 A 
ATOM     16  C   UNL     1      30.232  20.935  16.604  0.00  0.00    +0.020 A 
ATOM     17  C   UNL     1      29.018  21.475  16.989  0.00  0.00    +0.111 A 
ATOM     18  N   UNL     1      28.747  22.798  16.979  0.00  0.00    -0.263 NA
ATOM     19  C   UNL     1      29.740  23.623  16.565  0.00  0.00    +0.118 A 
ENDBRANCH  13  14
BRANCH  13  20
ATOM     20  C   UNL     1      33.148  24.275  16.775  0.00  0.00    +0.034 C 
ATOM     21  C   UNL     1      32.913  25.069  18.043  0.00  0.00    +0.008 C 
ATOM     22  C   UNL     1      33.849  25.600  17.001  0.00  0.00    +0.008 C 
ENDBRANCH  13  20
ENDBRANCH  12  13
ENDBRANCH   5  12
TORSDOF 5
ENDMDL
MODEL 8
REMARK VINA RESULT:      -5.7      3.160      4.951
REMARK  Name = ZINC001228612316
REMARK  5 active torsions:
REMARK  status: ('A' for Active; 'I' for Inactive)
REMARK    1  A    between atoms: C_2  and  C_4
REMARK    2  A    between atoms: C_8  and  O_9
REMARK    3  A    between atoms: O_9  and  C_10
REMARK    4  A    between atoms: C_10  and  C_11
REMARK    5  A    between atoms: C_10  and  C_17
REMARK                            x       y       z     vdW  Elec       q    Type
REMARK                         _______ _______ _______ _____ _____    ______ ____
ROOT
ATOM      1  C   UNL     1      32.906  18.445  16.081  0.00  0.00    +0.040 A 
ATOM      2  C   UNL     1      33.206  17.776  14.892  0.00  0.00    +0.013 A 
ATOM      3  C   UNL     1      32.602  18.184  13.700  0.00  0.00    +0.004 A 
ATOM      4  C   UNL     1      31.711  19.262  13.699  0.00  0.00    +0.046 A 
ATOM      5  C   UNL     1      31.416  19.939  14.884  0.00  0.00    +0.122 A 
ATOM      6  C   UNL     1      31.993  19.504  16.073  0.00  0.00    +0.058 A 
ENDROOT
BRANCH   1   8
ATOM      7  N   UNL     1      33.978  19.115  18.165  0.00  0.00    -0.325 N 
ATOM      8  C   UNL     1      33.517  18.092  17.388  0.00  0.00    +0.242 C 
ATOM      9  O   UNL     1      33.550  16.935  17.790  0.00  0.00    -0.270 OA
ATOM     10  H   UNL     1      34.253  18.860  19.106  0.00  0.00    +0.145 HD
ATOM     11  H   UNL     1      33.720  20.076  17.998  0.00  0.00    +0.145 HD
ENDBRANCH   1   8
BRANCH   5  12
ATOM     12  O   UNL     1      30.541  20.985  14.777  0.00  0.00    -0.484 OA
BRANCH  12  13
ATOM     13  C   UNL     1      30.589  22.004  15.793  0.00  0.00    +0.208 C 
BRANCH  13  14
ATOM     14  C   UNL     1      31.313  23.214  15.242  0.00  0.00    +0.011 A 
ATOM     15  C   UNL     1      32.374  23.785  15.957  0.00  0.00    +0.010 A 
ATOM     16  C   UNL     1      33.035  24.899  15.455  0.00  0.00    +0.020 A 
ATOM     17  C   UNL     1      32.613  25.414  14.242  0.00  0.00    +0.111 A 
ATOM     18  N   UNL     1      31.593  24.900  13.522  0.00  0.00    -0.263 NA
ATOM     19  C   UNL     1      30.965  23.816  14.038  0.00  0.00    +0.118 A 
ENDBRANCH  13  14
BRANCH  13  20
ATOM     20  C   UNL     1      29.181  22.375  16.205  0.00  0.00    +0.034 C 
ATOM     21  C   UNL     1      28.873  22.985  17.557  0.00  0.00    +0.008 C 
ATOM     22  C   UNL     1      28.450  21.578  17.268  0.00  0.00    +0.008 C 
ENDBRANCH  13  20
ENDBRANCH  12  13
ENDBRANCH   5  12
TORSDOF 5
ENDMDL
MODEL 9
REMARK VINA RESULT:      -5.6      4.926      7.851
REMARK  Name = ZINC001228612316
REMARK  5 active torsions:
REMARK  status: ('A' for Active; 'I' for Inactive)
REMARK    1  A    between atoms: C_2  and  C_4
REMARK    2  A    between atoms: C_8  and  O_9
REMARK    3  A    between atoms: O_9  and  C_10
REMARK    4  A    between atoms: C_10  and  C_11
REMARK    5  A    between atoms: C_10  and  C_17
REMARK                            x       y       z     vdW  Elec       q    Type
REMARK                         _______ _______ _______ _____ _____    ______ ____
ROOT
ATOM      1  C   UNL     1      35.303  23.108   7.845  0.00  0.00    +0.040 A 
ATOM      2  C   UNL     1      34.931  21.876   8.389  0.00  0.00    +0.013 A 
ATOM      3  C   UNL     1      33.961  21.832   9.394  0.00  0.00    +0.004 A 
ATOM      4  C   UNL     1      33.361  23.013   9.844  0.00  0.00    +0.046 A 
ATOM      5  C   UNL     1      33.725  24.245   9.295  0.00  0.00    +0.122 A 
ATOM      6  C   UNL     1      34.717  24.285   8.321  0.00  0.00    +0.058 A 
ENDROOT
BRANCH   1   8
ATOM      7  N   UNL     1      36.292  22.312   5.765  0.00  0.00    -0.325 N 
ATOM      8  C   UNL     1      36.308  23.246   6.761  0.00  0.00    +0.242 C 
ATOM      9  O   UNL     1      37.082  24.194   6.718  0.00  0.00    -0.270 OA
ATOM     10  H   UNL     1      36.886  22.511   4.969  0.00  0.00    +0.145 HD
ATOM     11  H   UNL     1      35.508  21.693   5.619  0.00  0.00    +0.145 HD
ENDBRANCH   1   8
BRANCH   5  12
ATOM     12  O   UNL     1      33.074  25.340   9.794  0.00  0.00    -0.484 OA
BRANCH  12  13
ATOM     13  C   UNL     1      32.910  25.427  11.222  0.00  0.00    +0.208 C 
BRANCH  13  14
ATOM     14  C   UNL     1      33.800  26.531  11.752  0.00  0.00    +0.011 A 
ATOM     15  C   UNL     1      34.419  26.396  13.002  0.00  0.00    +0.010 A 
ATOM     16  C   UNL     1      35.231  27.410  13.493  0.00  0.00    +0.020 A 
ATOM     17  C   UNL     1      35.403  28.540  12.712  0.00  0.00    +0.111 A 
ATOM     18  N   UNL     1      34.823  28.715  11.506  0.00  0.00    -0.263 NA
ATOM     19  C   UNL     1      34.034  27.710  11.055  0.00  0.00    +0.118 A 
ENDBRANCH  13  14
BRANCH  13  20
ATOM     20  C   UNL     1      31.461  25.716  11.548  0.00  0.00    +0.034 C 
ATOM     21  C   UNL     1      31.053  26.463  12.801  0.00  0.00    +0.008 C 
ATOM     22  C   UNL     1      30.765  24.997  12.688  0.00  0.00    +0.008 C 
ENDBRANCH  13  20
ENDBRANCH  12  13
ENDBRANCH   5  12
TORSDOF 5
ENDMDL
