MODEL 1
REMARK VINA RESULT:      -5.8      0.000      0.000
REMARK  Name = ZINC001228612316
REMARK  5 active torsions:
REMARK  status: ('A' for Active; 'I' for Inactive)
REMARK    1  A    between atoms: C_2  and  C_4
REMARK    2  A    between atoms: C_8  and  O_9
REMARK    3  A    between atoms: O_9  and  C_10
REMARK    4  A    between atoms: C_10  and  C_11
REMARK    5  A    between atoms: C_10  and  C_17
REMARK                            x       y       z     vdW  Elec       q    Type
REMARK                         _______ _______ _______ _____ _____    ______ ____
ROOT
ATOM      1  C   UNL     1      34.543  24.054  17.549  0.00  0.00    +0.040 A 
ATOM      2  C   UNL     1      35.650  23.441  18.145  0.00  0.00    +0.013 A 
ATOM      3  C   UNL     1      36.184  22.275  17.595  0.00  0.00    +0.004 A 
ATOM      4  C   UNL     1      35.617  21.714  16.448  0.00  0.00    +0.046 A 
ATOM      5  C   UNL     1      34.510  22.314  15.847  0.00  0.00    +0.122 A 
ATOM      6  C   UNL     1      33.978  23.486  16.400  0.00  0.00    +0.058 A 
ENDROOT
BRANCH   1   8
ATOM      7  N   UNL     1      32.812  25.240  18.800  0.00  0.00    -0.325 N 
ATOM      8  C   UNL     1      34.021  25.305  18.163  0.00  0.00    +0.242 C 
ATOM      9  O   UNL     1      34.660  26.350  18.137  0.00  0.00    -0.270 OA
ATOM     10  H   UNL     1      32.527  26.073  19.300  0.00  0.00    +0.145 HD
ATOM     11  H   UNL     1      32.373  24.368  19.053  0.00  0.00    +0.145 HD
ENDBRANCH   1   8
BRANCH   5  12
ATOM     12  O   UNL     1      33.825  21.823  14.769  0.00  0.00    -0.484 OA
BRANCH  12  13
ATOM     13  C   UNL     1      32.572  22.427  14.411  0.00  0.00    +0.208 C 
BRANCH  13  14
ATOM     14  C   UNL     1      32.524  22.900  12.971  0.00  0.00    +0.011 A 
ATOM     15  C   UNL     1      31.467  23.646  12.442  0.00  0.00    +0.010 A 
ATOM     16  C   UNL     1      31.542  24.117  11.133  0.00  0.00    +0.020 A 
ATOM     17  C   UNL     1      32.676  23.828  10.392  0.00  0.00    +0.111 A 
ATOM     18  N   UNL     1      33.712  23.104  10.861  0.00  0.00    -0.263 NA
ATOM     19  C   UNL     1      33.614  22.662  12.133  0.00  0.00    +0.118 A 
ENDBRANCH  13  14
BRANCH  13  20
ATOM     20  C   UNL     1      31.451  21.409  14.591  0.00  0.00    +0.034 C 
ATOM     21  C   UNL     1      30.792  21.223  15.937  0.00  0.00    +0.008 C 
ATOM     22  C   UNL     1      31.625  20.115  15.354  0.00  0.00    +0.008 C 
ENDBRANCH  13  20
ENDBRANCH  12  13
ENDBRANCH   5  12
TORSDOF 5
ENDMDL
MODEL 2
REMARK VINA RESULT:      -5.8      1.808      6.073
REMARK  Name = ZINC001228612316
REMARK  5 active torsions:
REMARK  status: ('A' for Active; 'I' for Inactive)
REMARK    1  A    between atoms: C_2  and  C_4
REMARK    2  A    between atoms: C_8  and  O_9
REMARK    3  A    between atoms: O_9  and  C_10
REMARK    4  A    between atoms: C_10  and  C_11
REMARK    5  A    between atoms: C_10  and  C_17
REMARK                            x       y       z     vdW  Elec       q    Type
REMARK                         _______ _______ _______ _____ _____    ______ ____
ROOT
ATOM      1  C   UNL     1      33.268  23.122  11.590  0.00  0.00    +0.040 A 
ATOM      2  C   UNL     1      32.277  23.873  10.949  0.00  0.00    +0.013 A 
ATOM      3  C   UNL     1      31.248  24.452  11.691  0.00  0.00    +0.004 A 
ATOM      4  C   UNL     1      31.201  24.285  13.078  0.00  0.00    +0.046 A 
ATOM      5  C   UNL     1      32.180  23.534  13.728  0.00  0.00    +0.122 A 
ATOM      6  C   UNL     1      33.214  22.956  12.979  0.00  0.00    +0.058 A 
ENDROOT
BRANCH   1   8
ATOM      7  N   UNL     1      34.108  21.340  10.145  0.00  0.00    -0.325 N 
ATOM      8  C   UNL     1      34.354  22.540  10.756  0.00  0.00    +0.242 C 
ATOM      9  O   UNL     1      35.418  23.123  10.585  0.00  0.00    -0.270 OA
ATOM     10  H   UNL     1      34.817  21.016   9.500  0.00  0.00    +0.145 HD
ATOM     11  H   UNL     1      33.182  20.949  10.060  0.00  0.00    +0.145 HD
ENDBRANCH   1   8
BRANCH   5  12
ATOM     12  O   UNL     1      32.202  23.239  15.064  0.00  0.00    -0.484 OA
BRANCH  12  13
ATOM     13  C   UNL     1      33.266  22.419  15.575  0.00  0.00    +0.208 C 
BRANCH  13  14
ATOM     14  C   UNL     1      34.080  23.099  16.659  0.00  0.00    +0.011 A 
ATOM     15  C   UNL     1      33.690  24.289  17.279  0.00  0.00    +0.010 A 
ATOM     16  C   UNL     1      34.450  24.801  18.328  0.00  0.00    +0.020 A 
ATOM     17  C   UNL     1      35.579  24.103  18.727  0.00  0.00    +0.111 A 
ATOM     18  N   UNL     1      35.994  22.958  18.149  0.00  0.00    -0.263 NA
ATOM     19  C   UNL     1      35.237  22.484  17.136  0.00  0.00    +0.118 A 
ENDBRANCH  13  14
BRANCH  13  20
ATOM     20  C   UNL     1      32.677  21.149  16.180  0.00  0.00    +0.034 C 
ATOM     21  C   UNL     1      33.247  19.796  15.828  0.00  0.00    +0.008 C 
ATOM     22  C   UNL     1      31.856  20.158  15.385  0.00  0.00    +0.008 C 
ENDBRANCH  13  20
ENDBRANCH  12  13
ENDBRANCH   5  12
TORSDOF 5
ENDMDL
MODEL 3
REMARK VINA RESULT:      -5.8     25.297     28.000
REMARK  Name = ZINC001228612316
REMARK  5 active torsions:
REMARK  status: ('A' for Active; 'I' for Inactive)
REMARK    1  A    between atoms: C_2  and  C_4
REMARK    2  A    between atoms: C_8  and  O_9
REMARK    3  A    between atoms: O_9  and  C_10
REMARK    4  A    between atoms: C_10  and  C_11
REMARK    5  A    between atoms: C_10  and  C_17
REMARK                            x       y       z     vdW  Elec       q    Type
REMARK                         _______ _______ _______ _____ _____    ______ ____
ROOT
ATOM      1  C   UNL     1      20.690   5.400  27.596  0.00  0.00    +0.040 A 
ATOM      2  C   UNL     1      21.208   4.793  26.446  0.00  0.00    +0.013 A 
ATOM      3  C   UNL     1      20.433   3.882  25.728  0.00  0.00    +0.004 A 
ATOM      4  C   UNL     1      19.137   3.572  26.150  0.00  0.00    +0.046 A 
ATOM      5  C   UNL     1      18.612   4.168  27.297  0.00  0.00    +0.122 A 
ATOM      6  C   UNL     1      19.392   5.084  28.015  0.00  0.00    +0.058 A 
ENDROOT
BRANCH   1   8
ATOM      7  N   UNL     1      21.296   6.580  29.647  0.00  0.00    -0.325 N 
ATOM      8  C   UNL     1      21.549   6.378  28.317  0.00  0.00    +0.242 C 
ATOM      9  O   UNL     1      22.474   6.957  27.760  0.00  0.00    -0.270 OA
ATOM     10  H   UNL     1      21.957   7.167  30.141  0.00  0.00    +0.145 HD
ATOM     11  H   UNL     1      20.717   5.962  30.194  0.00  0.00    +0.145 HD
ENDBRANCH   1   8
BRANCH   5  12
ATOM     12  O   UNL     1      17.391   3.893  27.850  0.00  0.00    -0.484 OA
BRANCH  12  13
ATOM     13  C   UNL     1      17.257   3.917  29.280  0.00  0.00    +0.208 C 
BRANCH  13  14
ATOM     14  C   UNL     1      15.965   4.555  29.751  0.00  0.00    +0.011 A 
ATOM     15  C   UNL     1      15.919   5.741  30.489  0.00  0.00    +0.010 A 
ATOM     16  C   UNL     1      14.687   6.309  30.807  0.00  0.00    +0.020 A 
ATOM     17  C   UNL     1      13.536   5.672  30.373  0.00  0.00    +0.111 A 
ATOM     18  N   UNL     1      13.536   4.522  29.668  0.00  0.00    -0.263 NA
ATOM     19  C   UNL     1      14.744   3.995  29.373  0.00  0.00    +0.118 A 
ENDBRANCH  13  14
BRANCH  13  20
ATOM     20  C   UNL     1      17.276   2.487  29.812  0.00  0.00    +0.034 C 
ATOM     21  C   UNL     1      17.332   2.222  31.297  0.00  0.00    +0.008 C 
ATOM     22  C   UNL     1      18.502   1.851  30.429  0.00  0.00    +0.008 C 
ENDBRANCH  13  20
ENDBRANCH  12  13
ENDBRANCH   5  12
TORSDOF 5
ENDMDL
MODEL 4
REMARK VINA RESULT:      -5.8      3.412      6.168
REMARK  Name = ZINC001228612316
REMARK  5 active torsions:
REMARK  status: ('A' for Active; 'I' for Inactive)
REMARK    1  A    between atoms: C_2  and  C_4
REMARK    2  A    between atoms: C_8  and  O_9
REMARK    3  A    between atoms: O_9  and  C_10
REMARK    4  A    between atoms: C_10  and  C_11
REMARK    5  A    between atoms: C_10  and  C_17
REMARK                            x       y       z     vdW  Elec       q    Type
REMARK                         _______ _______ _______ _____ _____    ______ ____
ROOT
ATOM      1  C   UNL     1      33.490  23.464  10.520  0.00  0.00    +0.040 A 
ATOM      2  C   UNL     1      32.259  24.121  10.413  0.00  0.00    +0.013 A 
ATOM      3  C   UNL     1      31.367  24.113  11.486  0.00  0.00    +0.004 A 
ATOM      4  C   UNL     1      31.696  23.450  12.671  0.00  0.00    +0.046 A 
ATOM      5  C   UNL     1      32.919  22.788  12.788  0.00  0.00    +0.122 A 
ATOM      6  C   UNL     1      33.814  22.800  11.710  0.00  0.00    +0.058 A 
ENDROOT
BRANCH   1   8
ATOM      7  N   UNL     1      34.498  24.697   8.668  0.00  0.00    -0.325 N 
ATOM      8  C   UNL     1      34.414  23.516   9.356  0.00  0.00    +0.242 C 
ATOM      9  O   UNL     1      35.107  22.557   9.039  0.00  0.00    -0.270 OA
ATOM     10  H   UNL     1      35.209  24.743   7.949  0.00  0.00    +0.145 HD
ATOM     11  H   UNL     1      34.139  25.567   9.030  0.00  0.00    +0.145 HD
ENDBRANCH   1   8
BRANCH   5  12
ATOM     12  O   UNL     1      33.323  22.047  13.865  0.00  0.00    -0.484 OA
BRANCH  12  13
ATOM     13  C   UNL     1      32.546  20.901  14.249  0.00  0.00    +0.208 C 
BRANCH  13  14
ATOM     14  C   UNL     1      33.311  19.595  14.142  0.00  0.00    +0.011 A 
ATOM     15  C   UNL     1      32.831  18.479  13.451  0.00  0.00    +0.010 A 
ATOM     16  C   UNL     1      33.634  17.348  13.326  0.00  0.00    +0.020 A 
ATOM     17  C   UNL     1      34.897  17.369  13.895  0.00  0.00    +0.111 A 
ATOM     18  N   UNL     1      35.393  18.421  14.578  0.00  0.00    -0.263 NA
ATOM     19  C   UNL     1      34.594  19.505  14.682  0.00  0.00    +0.118 A 
ENDBRANCH  13  14
BRANCH  13  20
ATOM     20  C   UNL     1      32.108  21.052  15.702  0.00  0.00    +0.034 C 
ATOM     21  C   UNL     1      30.692  20.730  16.113  0.00  0.00    +0.008 C 
ATOM     22  C   UNL     1      31.183  22.151  16.175  0.00  0.00    +0.008 C 
ENDBRANCH  13  20
ENDBRANCH  12  13
ENDBRANCH   5  12
TORSDOF 5
ENDMDL
MODEL 5
REMARK VINA RESULT:      -5.7     22.173     24.733
REMARK  Name = ZINC001228612316
REMARK  5 active torsions:
REMARK  status: ('A' for Active; 'I' for Inactive)
REMARK    1  A    between atoms: C_2  and  C_4
REMARK    2  A    between atoms: C_8  and  O_9
REMARK    3  A    between atoms: O_9  and  C_10
REMARK    4  A    between atoms: C_10  and  C_11
REMARK    5  A    between atoms: C_10  and  C_17
REMARK                            x       y       z     vdW  Elec       q    Type
REMARK                         _______ _______ _______ _____ _____    ______ ____
ROOT
ATOM      1  C   UNL     1      20.176   4.632   2.228  0.00  0.00    +0.040 A 
ATOM      2  C   UNL     1      21.561   4.467   2.113  0.00  0.00    +0.013 A 
ATOM      3  C   UNL     1      22.408   5.570   2.230  0.00  0.00    +0.004 A 
ATOM      4  C   UNL     1      21.879   6.842   2.464  0.00  0.00    +0.046 A 
ATOM      5  C   UNL     1      20.500   7.019   2.576  0.00  0.00    +0.122 A 
ATOM      6  C   UNL     1      19.652   5.910   2.460  0.00  0.00    +0.058 A 
ENDROOT
BRANCH   1   8
ATOM      7  N   UNL     1      19.679   2.319   2.836  0.00  0.00    -0.325 N 
ATOM      8  C   UNL     1      19.316   3.423   2.113  0.00  0.00    +0.242 C 
ATOM      9  O   UNL     1      18.299   3.418   1.430  0.00  0.00    -0.270 OA
ATOM     10  H   UNL     1      19.024   1.546   2.827  0.00  0.00    +0.145 HD
ATOM     11  H   UNL     1      20.355   2.352   3.584  0.00  0.00    +0.145 HD
ENDBRANCH   1   8
BRANCH   5  12
ATOM     12  O   UNL     1      19.861   8.219   2.731  0.00  0.00    -0.484 OA
BRANCH  12  13
ATOM     13  C   UNL     1      20.500   9.412   2.249  0.00  0.00    +0.208 C 
BRANCH  13  14
ATOM     14  C   UNL     1      20.562   9.490   0.735  0.00  0.00    +0.011 A 
ATOM     15  C   UNL     1      19.453   9.286  -0.090  0.00  0.00    +0.010 A 
ATOM     16  C   UNL     1      19.575   9.463  -1.466  0.00  0.00    +0.020 A 
ATOM     17  C   UNL     1      20.806   9.842  -1.976  0.00  0.00    +0.111 A 
ATOM     18  N   UNL     1      21.903  10.039  -1.216  0.00  0.00    -0.263 NA
ATOM     19  C   UNL     1      21.755   9.862   0.115  0.00  0.00    +0.118 A 
ENDBRANCH  13  14
BRANCH  13  20
ATOM     20  C   UNL     1      19.723  10.632   2.733  0.00  0.00    +0.034 C 
ATOM     21  C   UNL     1      20.075  12.013   2.235  0.00  0.00    +0.008 C 
ATOM     22  C   UNL     1      20.304  11.659   3.679  0.00  0.00    +0.008 C 
ENDBRANCH  13  20
ENDBRANCH  12  13
ENDBRANCH   5  12
TORSDOF 5
ENDMDL
MODEL 6
REMARK VINA RESULT:      -5.6      2.939      5.499
REMARK  Name = ZINC001228612316
REMARK  5 active torsions:
REMARK  status: ('A' for Active; 'I' for Inactive)
REMARK    1  A    between atoms: C_2  and  C_4
REMARK    2  A    between atoms: C_8  and  O_9
REMARK    3  A    between atoms: O_9  and  C_10
REMARK    4  A    between atoms: C_10  and  C_11
REMARK    5  A    between atoms: C_10  and  C_17
REMARK                            x       y       z     vdW  Elec       q    Type
REMARK                         _______ _______ _______ _____ _____    ______ ____
ROOT
ATOM      1  C   UNL     1      32.113  23.267  14.117  0.00  0.00    +0.040 A 
ATOM      2  C   UNL     1      31.167  24.201  13.681  0.00  0.00    +0.013 A 
ATOM      3  C   UNL     1      31.079  24.529  12.328  0.00  0.00    +0.004 A 
ATOM      4  C   UNL     1      31.934  23.926  11.401  0.00  0.00    +0.046 A 
ATOM      5  C   UNL     1      32.884  22.996  11.824  0.00  0.00    +0.122 A 
ATOM      6  C   UNL     1      32.968  22.668  13.183  0.00  0.00    +0.058 A 
ENDROOT
BRANCH   1   8
ATOM      7  N   UNL     1      30.964  22.899  16.241  0.00  0.00    -0.325 N 
ATOM      8  C   UNL     1      32.155  22.939  15.567  0.00  0.00    +0.242 C 
ATOM      9  O   UNL     1      33.207  22.675  16.138  0.00  0.00    -0.270 OA
ATOM     10  H   UNL     1      31.006  22.571  17.198  0.00  0.00    +0.145 HD
ATOM     11  H   UNL     1      30.072  22.871  15.773  0.00  0.00    +0.145 HD
ENDBRANCH   1   8
BRANCH   5  12
ATOM     12  O   UNL     1      33.820  22.395  11.027  0.00  0.00    -0.484 OA
BRANCH  12  13
ATOM     13  C   UNL     1      34.155  23.005   9.770  0.00  0.00    +0.208 C 
BRANCH  13  14
ATOM     14  C   UNL     1      35.292  24.004   9.873  0.00  0.00    +0.011 A 
ATOM     15  C   UNL     1      35.172  25.345   9.496  0.00  0.00    +0.010 A 
ATOM     16  C   UNL     1      36.237  26.218   9.705  0.00  0.00    +0.020 A 
ATOM     17  C   UNL     1      37.392  25.722  10.289  0.00  0.00    +0.111 A 
ATOM     18  N   UNL     1      37.551  24.435  10.657  0.00  0.00    -0.263 NA
ATOM     19  C   UNL     1      36.502  23.611  10.445  0.00  0.00    +0.118 A 
ENDBRANCH  13  14
BRANCH  13  20
ATOM     20  C   UNL     1      34.589  21.925   8.785  0.00  0.00    +0.034 C 
ATOM     21  C   UNL     1      34.612  22.205   7.301  0.00  0.00    +0.008 C 
ATOM     22  C   UNL     1      33.626  21.216   7.860  0.00  0.00    +0.008 C 
ENDBRANCH  13  20
ENDBRANCH  12  13
ENDBRANCH   5  12
TORSDOF 5
ENDMDL
MODEL 7
REMARK VINA RESULT:      -5.6      3.172      5.874
REMARK  Name = ZINC001228612316
REMARK  5 active torsions:
REMARK  status: ('A' for Active; 'I' for Inactive)
REMARK    1  A    between atoms: C_2  and  C_4
REMARK    2  A    between atoms: C_8  and  O_9
REMARK    3  A    between atoms: O_9  and  C_10
REMARK    4  A    between atoms: C_10  and  C_11
REMARK    5  A    between atoms: C_10  and  C_17
REMARK                            x       y       z     vdW  Elec       q    Type
REMARK                         _______ _______ _______ _____ _____    ______ ____
ROOT
ATOM      1  C   UNL     1      35.964  25.940  10.921  0.00  0.00    +0.040 A 
ATOM      2  C   UNL     1      35.873  25.865   9.527  0.00  0.00    +0.013 A 
ATOM      3  C   UNL     1      35.337  24.728   8.922  0.00  0.00    +0.004 A 
ATOM      4  C   UNL     1      34.889  23.660   9.703  0.00  0.00    +0.046 A 
ATOM      5  C   UNL     1      34.979  23.721  11.094  0.00  0.00    +0.122 A 
ATOM      6  C   UNL     1      35.516  24.865  11.699  0.00  0.00    +0.058 A 
ENDROOT
BRANCH   1   8
ATOM      7  N   UNL     1      36.238  28.368  10.901  0.00  0.00    -0.325 N 
ATOM      8  C   UNL     1      36.527  27.181  11.520  0.00  0.00    +0.242 C 
ATOM      9  O   UNL     1      37.192  27.157  12.548  0.00  0.00    -0.270 OA
ATOM     10  H   UNL     1      36.540  29.205  11.383  0.00  0.00    +0.145 HD
ATOM     11  H   UNL     1      35.511  28.461  10.209  0.00  0.00    +0.145 HD
ENDBRANCH   1   8
BRANCH   5  12
ATOM     12  O   UNL     1      34.644  22.716  11.959  0.00  0.00    -0.484 OA
BRANCH  12  13
ATOM     13  C   UNL     1      33.254  22.410  12.161  0.00  0.00    +0.208 C 
BRANCH  13  14
ATOM     14  C   UNL     1      32.989  21.642  13.441  0.00  0.00    +0.011 A 
ATOM     15  C   UNL     1      32.266  20.446  13.483  0.00  0.00    +0.010 A 
ATOM     16  C   UNL     1      32.143  19.757  14.687  0.00  0.00    +0.020 A 
ATOM     17  C   UNL     1      32.750  20.284  15.815  0.00  0.00    +0.111 A 
ATOM     18  N   UNL     1      33.448  21.438  15.819  0.00  0.00    -0.263 NA
ATOM     19  C   UNL     1      33.552  22.085  14.638  0.00  0.00    +0.118 A 
ENDBRANCH  13  14
BRANCH  13  20
ATOM     20  C   UNL     1      32.458  23.709  12.239  0.00  0.00    +0.034 C 
ATOM     21  C   UNL     1      30.962  23.681  12.437  0.00  0.00    +0.008 C 
ATOM     22  C   UNL     1      31.534  24.179  11.138  0.00  0.00    +0.008 C 
ENDBRANCH  13  20
ENDBRANCH  12  13
ENDBRANCH   5  12
TORSDOF 5
ENDMDL
MODEL 8
REMARK VINA RESULT:      -5.6      2.582      6.247
REMARK  Name = ZINC001228612316
REMARK  5 active torsions:
REMARK  status: ('A' for Active; 'I' for Inactive)
REMARK    1  A    between atoms: C_2  and  C_4
REMARK    2  A    between atoms: C_8  and  O_9
REMARK    3  A    between atoms: O_9  and  C_10
REMARK    4  A    between atoms: C_10  and  C_11
REMARK    5  A    between atoms: C_10  and  C_17
REMARK                            x       y       z     vdW  Elec       q    Type
REMARK                         _______ _______ _______ _____ _____    ______ ____
ROOT
ATOM      1  C   UNL     1      33.178  23.485  11.457  0.00  0.00    +0.040 A 
ATOM      2  C   UNL     1      31.912  24.066  11.317  0.00  0.00    +0.013 A 
ATOM      3  C   UNL     1      31.047  24.129  12.409  0.00  0.00    +0.004 A 
ATOM      4  C   UNL     1      31.438  23.613  13.648  0.00  0.00    +0.046 A 
ATOM      5  C   UNL     1      32.695  23.028  13.799  0.00  0.00    +0.122 A 
ATOM      6  C   UNL     1      33.563  22.969  12.701  0.00  0.00    +0.058 A 
ENDROOT
BRANCH   1   8
ATOM      7  N   UNL     1      33.860  24.400   9.297  0.00  0.00    -0.325 N 
ATOM      8  C   UNL     1      34.071  23.458  10.268  0.00  0.00    +0.242 C 
ATOM      9  O   UNL     1      34.988  22.652  10.168  0.00  0.00    -0.270 OA
ATOM     10  H   UNL     1      34.543  24.431   8.551  0.00  0.00    +0.145 HD
ATOM     11  H   UNL     1      33.287  25.217   9.444  0.00  0.00    +0.145 HD
ENDBRANCH   1   8
BRANCH   5  12
ATOM     12  O   UNL     1      33.162  22.426  14.935  0.00  0.00    -0.484 OA
BRANCH  12  13
ATOM     13  C   UNL     1      33.635  21.072  14.858  0.00  0.00    +0.208 C 
BRANCH  13  14
ATOM     14  C   UNL     1      34.328  20.605  16.124  0.00  0.00    +0.011 A 
ATOM     15  C   UNL     1      33.860  19.549  16.910  0.00  0.00    +0.010 A 
ATOM     16  C   UNL     1      34.604  19.125  18.010  0.00  0.00    +0.020 A 
ATOM     17  C   UNL     1      35.797  19.771  18.287  0.00  0.00    +0.111 A 
ATOM     18  N   UNL     1      36.278  20.800  17.560  0.00  0.00    -0.263 NA
ATOM     19  C   UNL     1      35.538  21.189  16.500  0.00  0.00    +0.118 A 
ENDBRANCH  13  14
BRANCH  13  20
ATOM     20  C   UNL     1      32.453  20.138  14.618  0.00  0.00    +0.034 C 
ATOM     21  C   UNL     1      32.671  18.757  14.048  0.00  0.00    +0.008 C 
ATOM     22  C   UNL     1      31.941  19.792  13.238  0.00  0.00    +0.008 C 
ENDBRANCH  13  20
ENDBRANCH  12  13
ENDBRANCH   5  12
TORSDOF 5
ENDMDL
MODEL 9
REMARK VINA RESULT:      -5.6      5.285      6.989
REMARK  Name = ZINC001228612316
REMARK  5 active torsions:
REMARK  status: ('A' for Active; 'I' for Inactive)
REMARK    1  A    between atoms: C_2  and  C_4
REMARK    2  A    between atoms: C_8  and  O_9
REMARK    3  A    between atoms: O_9  and  C_10
REMARK    4  A    between atoms: C_10  and  C_11
REMARK    5  A    between atoms: C_10  and  C_17
REMARK                            x       y       z     vdW  Elec       q    Type
REMARK                         _______ _______ _______ _____ _____    ______ ____
ROOT
ATOM      1  C   UNL     1      32.219  20.317  15.640  0.00  0.00    +0.040 A 
ATOM      2  C   UNL     1      33.337  20.405  16.476  0.00  0.00    +0.013 A 
ATOM      3  C   UNL     1      34.451  19.598  16.241  0.00  0.00    +0.004 A 
ATOM      4  C   UNL     1      34.456  18.700  15.170  0.00  0.00    +0.046 A 
ATOM      5  C   UNL     1      33.345  18.600  14.332  0.00  0.00    +0.122 A 
ATOM      6  C   UNL     1      32.229  19.413  14.570  0.00  0.00    +0.058 A 
ENDROOT
BRANCH   1   8
ATOM      7  N   UNL     1      31.136  22.500  15.469  0.00  0.00    -0.325 N 
ATOM      8  C   UNL     1      31.063  21.211  15.921  0.00  0.00    +0.242 C 
ATOM      9  O   UNL     1      30.063  20.807  16.502  0.00  0.00    -0.270 OA
ATOM     10  H   UNL     1      30.299  23.058  15.577  0.00  0.00    +0.145 HD
ATOM     11  H   UNL     1      31.818  22.804  14.790  0.00  0.00    +0.145 HD
ENDBRANCH   1   8
BRANCH   5  12
ATOM     12  O   UNL     1      33.202  17.713  13.301  0.00  0.00    -0.484 OA
BRANCH  12  13
ATOM     13  C   UNL     1      34.293  16.831  12.989  0.00  0.00    +0.208 C 
BRANCH  13  14
ATOM     14  C   UNL     1      33.884  15.373  12.918  0.00  0.00    +0.011 A 
ATOM     15  C   UNL     1      32.799  14.916  12.165  0.00  0.00    +0.010 A 
ATOM     16  C   UNL     1      32.544  13.548  12.082  0.00  0.00    +0.020 A 
ATOM     17  C   UNL     1      33.387  12.678  12.755  0.00  0.00    +0.111 A 
ATOM     18  N   UNL     1      34.437  13.079  13.499  0.00  0.00    -0.263 NA
ATOM     19  C   UNL     1      34.662  14.409  13.561  0.00  0.00    +0.118 A 
ENDBRANCH  13  14
BRANCH  13  20
ATOM     20  C   UNL     1      34.872  17.206  11.629  0.00  0.00    +0.034 C 
ATOM     21  C   UNL     1      36.195  16.637  11.175  0.00  0.00    +0.008 C 
ATOM     22  C   UNL     1      36.074  18.109  11.463  0.00  0.00    +0.008 C 
ENDBRANCH  13  20
ENDBRANCH  12  13
ENDBRANCH   5  12
TORSDOF 5
ENDMDL
