MODEL 1
REMARK VINA RESULT:      -6.7      0.000      0.000
REMARK  Name = ZINC000826139982
REMARK  4 active torsions:
REMARK  status: ('A' for Active; 'I' for Inactive)
REMARK    1  A    between atoms: C_2  and  C_4
REMARK    2  A    between atoms: C_8  and  C_10
REMARK    3  A    between atoms: C_14  and  S_15
REMARK    4  A    between atoms: S_15  and  C_16
REMARK                            x       y       z     vdW  Elec       q    Type
REMARK                         _______ _______ _______ _____ _____    ______ ____
ROOT
ATOM      1  C   UNL     1      31.789  23.499  13.565  0.00  0.00    +0.093 C 
ATOM      2  C   UNL     1      31.783  22.027  13.152  0.00  0.00    +0.033 C 
ATOM      3  C   UNL     1      30.349  21.619  13.454  0.00  0.00    +0.109 C 
ATOM      4  N   UNL     1      30.112  22.256  14.741  0.00  0.00    -0.297 N 
ATOM      5  C   UNL     1      29.263  21.921  15.789  0.00  0.00    +0.247 C 
ATOM      6  O   UNL     1      29.118  22.680  16.751  0.00  0.00    -0.270 OA
ATOM      7  C   UNL     1      30.848  23.523  14.779  0.00  0.00    +0.120 C 
ENDROOT
BRANCH   5   8
ATOM      8  C   UNL     1      28.475  20.651  15.792  0.00  0.00    +0.038 A 
ATOM      9  C   UNL     1      27.184  20.545  16.309  0.00  0.00    +0.013 A 
ATOM     10  C   UNL     1      26.533  19.311  16.366  0.00  0.00    +0.002 A 
ATOM     11  C   UNL     1      27.112  18.192  15.777  0.00  0.00    +0.015 A 
ATOM     12  C   UNL     1      28.326  18.312  15.094  0.00  0.00    +0.017 A 
ATOM     13  C   UNL     1      29.022  19.529  15.142  0.00  0.00    +0.028 A 
BRANCH  12  14
ATOM     14  S   UNL     1      29.001  16.937  14.185  0.00  0.00    -0.016 S 
BRANCH  14  15
ATOM     15  C   UNL     1      30.770  17.284  14.285  0.00  0.00    +0.448 C 
ATOM     16  F   UNL     1      31.128  18.485  13.771  0.00  0.00    -0.160 F 
ATOM     17  F   UNL     1      31.196  17.261  15.571  0.00  0.00    -0.160 F 
ATOM     18  F   UNL     1      31.480  16.343  13.614  0.00  0.00    -0.160 F 
ENDBRANCH  14  15
ENDBRANCH  12  14
ENDBRANCH   5   8
BRANCH   1  20
ATOM     19  N   UNL     1      30.214  25.136  12.652  0.00  0.00    -0.329 N 
ATOM     20  C   UNL     1      31.317  24.375  12.415  0.00  0.00    +0.215 C 
ATOM     21  O   UNL     1      31.892  24.457  11.334  0.00  0.00    -0.276 OA
ATOM     22  H   UNL     1      29.950  25.786  11.922  0.00  0.00    +0.145 HD
ATOM     23  H   UNL     1      29.791  25.236  13.563  0.00  0.00    +0.145 HD
ENDBRANCH   1  20
TORSDOF 4
ENDMDL
MODEL 2
REMARK VINA RESULT:      -6.7      4.075      5.763
REMARK  Name = ZINC000826139982
REMARK  4 active torsions:
REMARK  status: ('A' for Active; 'I' for Inactive)
REMARK    1  A    between atoms: C_2  and  C_4
REMARK    2  A    between atoms: C_8  and  C_10
REMARK    3  A    between atoms: C_14  and  S_15
REMARK    4  A    between atoms: S_15  and  C_16
REMARK                            x       y       z     vdW  Elec       q    Type
REMARK                         _______ _______ _______ _____ _____    ______ ____
ROOT
ATOM      1  C   UNL     1      32.839  16.715  12.707  0.00  0.00    +0.093 C 
ATOM      2  C   UNL     1      32.779  18.083  13.387  0.00  0.00    +0.033 C 
ATOM      3  C   UNL     1      31.753  17.847  14.485  0.00  0.00    +0.109 C 
ATOM      4  N   UNL     1      30.733  17.073  13.792  0.00  0.00    -0.297 N 
ATOM      5  C   UNL     1      29.366  16.952  14.010  0.00  0.00    +0.247 C 
ATOM      6  O   UNL     1      28.697  16.130  13.379  0.00  0.00    -0.270 OA
ATOM      7  C   UNL     1      31.389  16.218  12.799  0.00  0.00    +0.120 C 
ENDROOT
BRANCH   5   8
ATOM      8  C   UNL     1      28.651  17.786  15.023  0.00  0.00    +0.038 A 
ATOM      9  C   UNL     1      27.978  17.255  16.123  0.00  0.00    +0.013 A 
ATOM     10  C   UNL     1      27.251  18.078  16.986  0.00  0.00    +0.002 A 
ATOM     11  C   UNL     1      27.307  19.460  16.838  0.00  0.00    +0.015 A 
ATOM     12  C   UNL     1      28.121  20.025  15.853  0.00  0.00    +0.017 A 
ATOM     13  C   UNL     1      28.755  19.187  14.923  0.00  0.00    +0.028 A 
BRANCH  12  14
ATOM     14  S   UNL     1      28.346  21.789  15.755  0.00  0.00    -0.016 S 
BRANCH  14  15
ATOM     15  C   UNL     1      29.856  21.897  14.771  0.00  0.00    +0.448 C 
ATOM     16  F   UNL     1      30.836  21.051  15.169  0.00  0.00    -0.160 F 
ATOM     17  F   UNL     1      29.605  21.627  13.467  0.00  0.00    -0.160 F 
ATOM     18  F   UNL     1      30.373  23.150  14.826  0.00  0.00    -0.160 F 
ENDBRANCH  14  15
ENDBRANCH  12  14
ENDBRANCH   5   8
BRANCH   1  20
ATOM     19  N   UNL     1      34.945  16.420  13.922  0.00  0.00    -0.329 N 
ATOM     20  C   UNL     1      33.836  15.813  13.418  0.00  0.00    +0.215 C 
ATOM     21  O   UNL     1      33.670  14.609  13.591  0.00  0.00    -0.276 OA
ATOM     22  H   UNL     1      35.564  15.840  14.473  0.00  0.00    +0.145 HD
ATOM     23  H   UNL     1      35.064  17.422  13.955  0.00  0.00    +0.145 HD
ENDBRANCH   1  20
TORSDOF 4
ENDMDL
MODEL 3
REMARK VINA RESULT:      -6.5      4.697      6.045
REMARK  Name = ZINC000826139982
REMARK  4 active torsions:
REMARK  status: ('A' for Active; 'I' for Inactive)
REMARK    1  A    between atoms: C_2  and  C_4
REMARK    2  A    between atoms: C_8  and  C_10
REMARK    3  A    between atoms: C_14  and  S_15
REMARK    4  A    between atoms: S_15  and  C_16
REMARK                            x       y       z     vdW  Elec       q    Type
REMARK                         _______ _______ _______ _____ _____    ______ ____
ROOT
ATOM      1  C   UNL     1      32.292  22.727  21.965  0.00  0.00    +0.093 C 
ATOM      2  C   UNL     1      32.598  21.655  20.919  0.00  0.00    +0.033 C 
ATOM      3  C   UNL     1      32.009  22.267  19.657  0.00  0.00    +0.109 C 
ATOM      4  N   UNL     1      30.746  22.807  20.137  0.00  0.00    -0.297 N 
ATOM      5  C   UNL     1      29.539  23.035  19.488  0.00  0.00    +0.247 C 
ATOM      6  O   UNL     1      28.619  23.630  20.056  0.00  0.00    -0.270 OA
ATOM      7  C   UNL     1      30.930  23.273  21.514  0.00  0.00    +0.120 C 
ENDROOT
BRANCH   5   8
ATOM      8  C   UNL     1      29.305  22.598  18.078  0.00  0.00    +0.038 A 
ATOM      9  C   UNL     1      30.152  22.921  17.019  0.00  0.00    +0.013 A 
ATOM     10  C   UNL     1      29.832  22.560  15.708  0.00  0.00    +0.002 A 
ATOM     11  C   UNL     1      28.730  21.748  15.460  0.00  0.00    +0.015 A 
ATOM     12  C   UNL     1      27.968  21.261  16.526  0.00  0.00    +0.017 A 
ATOM     13  C   UNL     1      28.231  21.722  17.825  0.00  0.00    +0.028 A 
BRANCH  12  14
ATOM     14  S   UNL     1      26.662  20.083  16.250  0.00  0.00    -0.016 S 
BRANCH  14  15
ATOM     15  C   UNL     1      27.597  18.544  16.119  0.00  0.00    +0.448 C 
ATOM     16  F   UNL     1      28.869  18.706  15.682  0.00  0.00    -0.160 F 
ATOM     17  F   UNL     1      27.668  17.916  17.318  0.00  0.00    -0.160 F 
ATOM     18  F   UNL     1      26.992  17.689  15.257  0.00  0.00    -0.160 F 
ENDBRANCH  14  15
ENDBRANCH  12  14
ENDBRANCH   5   8
BRANCH   1  20
ATOM     19  N   UNL     1      34.652  23.327  22.225  0.00  0.00    -0.329 N 
ATOM     20  C   UNL     1      33.391  23.779  21.984  0.00  0.00    +0.215 C 
ATOM     21  O   UNL     1      33.204  24.970  21.757  0.00  0.00    -0.276 OA
ATOM     22  H   UNL     1      35.396  24.008  22.149  0.00  0.00    +0.145 HD
ATOM     23  H   UNL     1      34.895  22.347  22.261  0.00  0.00    +0.145 HD
ENDBRANCH   1  20
TORSDOF 4
ENDMDL
MODEL 4
REMARK VINA RESULT:      -6.5      3.260      5.241
REMARK  Name = ZINC000826139982
REMARK  4 active torsions:
REMARK  status: ('A' for Active; 'I' for Inactive)
REMARK    1  A    between atoms: C_2  and  C_4
REMARK    2  A    between atoms: C_8  and  C_10
REMARK    3  A    between atoms: C_14  and  S_15
REMARK    4  A    between atoms: S_15  and  C_16
REMARK                            x       y       z     vdW  Elec       q    Type
REMARK                         _______ _______ _______ _____ _____    ______ ____
ROOT
ATOM      1  C   UNL     1      33.793  23.847   8.902  0.00  0.00    +0.093 C 
ATOM      2  C   UNL     1      34.682  23.245   9.990  0.00  0.00    +0.033 C 
ATOM      3  C   UNL     1      33.658  22.781  11.015  0.00  0.00    +0.109 C 
ATOM      4  N   UNL     1      32.724  23.898  11.046  0.00  0.00    -0.297 N 
ATOM      5  C   UNL     1      31.886  24.366  12.049  0.00  0.00    +0.247 C 
ATOM      6  O   UNL     1      31.068  25.262  11.822  0.00  0.00    -0.270 OA
ATOM      7  C   UNL     1      32.642  24.476   9.702  0.00  0.00    +0.120 C 
ENDROOT
BRANCH   5   8
ATOM      8  C   UNL     1      31.915  23.799  13.432  0.00  0.00    +0.038 A 
ATOM      9  C   UNL     1      32.997  23.938  14.301  0.00  0.00    +0.013 A 
ATOM     10  C   UNL     1      33.002  23.308  15.547  0.00  0.00    +0.002 A 
ATOM     11  C   UNL     1      31.862  22.648  15.997  0.00  0.00    +0.015 A 
ATOM     12  C   UNL     1      30.702  22.651  15.218  0.00  0.00    +0.017 A 
ATOM     13  C   UNL     1      30.745  23.187  13.923  0.00  0.00    +0.028 A 
BRANCH  12  14
ATOM     14  S   UNL     1      29.181  21.966  15.844  0.00  0.00    -0.016 S 
BRANCH  14  15
ATOM     15  C   UNL     1      29.048  20.453  14.867  0.00  0.00    +0.448 C 
ATOM     16  F   UNL     1      28.165  19.553  15.363  0.00  0.00    -0.160 F 
ATOM     17  F   UNL     1      28.662  20.728  13.599  0.00  0.00    -0.160 F 
ATOM     18  F   UNL     1      30.247  19.825  14.792  0.00  0.00    -0.160 F 
ENDBRANCH  14  15
ENDBRANCH  12  14
ENDBRANCH   5   8
BRANCH   1  20
ATOM     19  N   UNL     1      32.002  22.515   7.896  0.00  0.00    -0.329 N 
ATOM     20  C   UNL     1      33.339  22.768   7.931  0.00  0.00    +0.215 C 
ATOM     21  O   UNL     1      34.092  22.167   7.172  0.00  0.00    -0.276 OA
ATOM     22  H   UNL     1      31.686  21.864   7.189  0.00  0.00    +0.145 HD
ATOM     23  H   UNL     1      31.315  23.081   8.373  0.00  0.00    +0.145 HD
ENDBRANCH   1  20
TORSDOF 4
ENDMDL
MODEL 5
REMARK VINA RESULT:      -6.4      2.477      3.430
REMARK  Name = ZINC000826139982
REMARK  4 active torsions:
REMARK  status: ('A' for Active; 'I' for Inactive)
REMARK    1  A    between atoms: C_2  and  C_4
REMARK    2  A    between atoms: C_8  and  C_10
REMARK    3  A    between atoms: C_14  and  S_15
REMARK    4  A    between atoms: S_15  and  C_16
REMARK                            x       y       z     vdW  Elec       q    Type
REMARK                         _______ _______ _______ _____ _____    ______ ____
ROOT
ATOM      1  C   UNL     1      32.674  24.108  12.635  0.00  0.00    +0.093 C 
ATOM      2  C   UNL     1      33.487  22.954  12.049  0.00  0.00    +0.033 C 
ATOM      3  C   UNL     1      32.742  21.739  12.580  0.00  0.00    +0.109 C 
ATOM      4  N   UNL     1      32.473  22.121  13.959  0.00  0.00    -0.297 N 
ATOM      5  C   UNL     1      32.296  21.357  15.106  0.00  0.00    +0.247 C 
ATOM      6  O   UNL     1      31.942  21.882  16.165  0.00  0.00    -0.270 OA
ATOM      7  C   UNL     1      32.243  23.568  14.007  0.00  0.00    +0.120 C 
ENDROOT
BRANCH   5   8
ATOM      8  C   UNL     1      32.498  19.876  15.108  0.00  0.00    +0.038 A 
ATOM      9  C   UNL     1      33.462  19.230  15.881  0.00  0.00    +0.013 A 
ATOM     10  C   UNL     1      33.664  17.852  15.772  0.00  0.00    +0.002 A 
ATOM     11  C   UNL     1      32.806  17.084  14.991  0.00  0.00    +0.015 A 
ATOM     12  C   UNL     1      31.720  17.686  14.348  0.00  0.00    +0.017 A 
ATOM     13  C   UNL     1      31.596  19.083  14.373  0.00  0.00    +0.028 A 
BRANCH  12  14
ATOM     14  S   UNL     1      30.511  16.702  13.487  0.00  0.00    -0.016 S 
BRANCH  14  15
ATOM     15  C   UNL     1      29.058  16.933  14.535  0.00  0.00    +0.448 C 
ATOM     16  F   UNL     1      29.288  16.717  15.852  0.00  0.00    -0.160 F 
ATOM     17  F   UNL     1      28.572  18.191  14.419  0.00  0.00    -0.160 F 
ATOM     18  F   UNL     1      28.065  16.086  14.166  0.00  0.00    -0.160 F 
ENDBRANCH  14  15
ENDBRANCH  12  14
ENDBRANCH   5   8
BRANCH   1  20
ATOM     19  N   UNL     1      30.268  24.409  12.291  0.00  0.00    -0.329 N 
ATOM     20  C   UNL     1      31.505  24.449  11.724  0.00  0.00    +0.215 C 
ATOM     21  O   UNL     1      31.626  24.791  10.551  0.00  0.00    -0.276 OA
ATOM     22  H   UNL     1      29.498  24.722  11.714  0.00  0.00    +0.145 HD
ATOM     23  H   UNL     1      30.113  24.294  13.282  0.00  0.00    +0.145 HD
ENDBRANCH   1  20
TORSDOF 4
ENDMDL
MODEL 6
REMARK VINA RESULT:      -6.3      1.931      2.428
REMARK  Name = ZINC000826139982
REMARK  4 active torsions:
REMARK  status: ('A' for Active; 'I' for Inactive)
REMARK    1  A    between atoms: C_2  and  C_4
REMARK    2  A    between atoms: C_8  and  C_10
REMARK    3  A    between atoms: C_14  and  S_15
REMARK    4  A    between atoms: S_15  and  C_16
REMARK                            x       y       z     vdW  Elec       q    Type
REMARK                         _______ _______ _______ _____ _____    ______ ____
ROOT
ATOM      1  C   UNL     1      32.840  23.876  12.578  0.00  0.00    +0.093 C 
ATOM      2  C   UNL     1      33.421  22.476  12.387  0.00  0.00    +0.033 C 
ATOM      3  C   UNL     1      32.184  21.599  12.512  0.00  0.00    +0.109 C 
ATOM      4  N   UNL     1      31.490  22.206  13.639  0.00  0.00    -0.297 N 
ATOM      5  C   UNL     1      30.617  21.668  14.576  0.00  0.00    +0.247 C 
ATOM      6  O   UNL     1      30.031  22.396  15.383  0.00  0.00    -0.270 OA
ATOM      7  C   UNL     1      31.725  23.652  13.610  0.00  0.00    +0.120 C 
ENDROOT
BRANCH   5   8
ATOM      8  C   UNL     1      30.327  20.203  14.638  0.00  0.00    +0.038 A 
ATOM      9  C   UNL     1      29.038  19.673  14.693  0.00  0.00    +0.013 A 
ATOM     10  C   UNL     1      28.833  18.299  14.841  0.00  0.00    +0.002 A 
ATOM     11  C   UNL     1      29.916  17.426  14.794  0.00  0.00    +0.015 A 
ATOM     12  C   UNL     1      31.201  17.921  14.558  0.00  0.00    +0.017 A 
ATOM     13  C   UNL     1      31.408  19.308  14.525  0.00  0.00    +0.028 A 
BRANCH  12  14
ATOM     14  S   UNL     1      32.575  16.813  14.319  0.00  0.00    -0.016 S 
BRANCH  14  15
ATOM     15  C   UNL     1      32.246  16.196  12.654  0.00  0.00    +0.448 C 
ATOM     16  F   UNL     1      30.992  15.714  12.483  0.00  0.00    -0.160 F 
ATOM     17  F   UNL     1      32.424  17.172  11.732  0.00  0.00    -0.160 F 
ATOM     18  F   UNL     1      33.100  15.190  12.340  0.00  0.00    -0.160 F 
ENDBRANCH  14  15
ENDBRANCH  12  14
ENDBRANCH   5   8
BRANCH   1  20
ATOM     19  N   UNL     1      31.018  24.759  11.200  0.00  0.00    -0.329 N 
ATOM     20  C   UNL     1      32.337  24.428  11.253  0.00  0.00    +0.215 C 
ATOM     21  O   UNL     1      33.053  24.622  10.275  0.00  0.00    -0.276 OA
ATOM     22  H   UNL     1      30.701  25.209  10.352  0.00  0.00    +0.145 HD
ATOM     23  H   UNL     1      30.415  24.775  12.010  0.00  0.00    +0.145 HD
ENDBRANCH   1  20
TORSDOF 4
ENDMDL
MODEL 7
REMARK VINA RESULT:      -6.3      4.588      6.868
REMARK  Name = ZINC000826139982
REMARK  4 active torsions:
REMARK  status: ('A' for Active; 'I' for Inactive)
REMARK    1  A    between atoms: C_2  and  C_4
REMARK    2  A    between atoms: C_8  and  C_10
REMARK    3  A    between atoms: C_14  and  S_15
REMARK    4  A    between atoms: S_15  and  C_16
REMARK                            x       y       z     vdW  Elec       q    Type
REMARK                         _______ _______ _______ _____ _____    ______ ____
ROOT
ATOM      1  C   UNL     1      35.590  22.566   7.477  0.00  0.00    +0.093 C 
ATOM      2  C   UNL     1      34.454  21.691   8.005  0.00  0.00    +0.033 C 
ATOM      3  C   UNL     1      33.517  22.721   8.617  0.00  0.00    +0.109 C 
ATOM      4  N   UNL     1      34.444  23.610   9.303  0.00  0.00    -0.297 N 
ATOM      5  C   UNL     1      34.283  24.420  10.421  0.00  0.00    +0.247 C 
ATOM      6  O   UNL     1      35.171  25.205  10.765  0.00  0.00    -0.270 OA
ATOM      7  C   UNL     1      35.684  23.683   8.526  0.00  0.00    +0.120 C 
ENDROOT
BRANCH   5   8
ATOM      8  C   UNL     1      33.032  24.399  11.238  0.00  0.00    +0.038 A 
ATOM      9  C   UNL     1      31.845  25.019  10.848  0.00  0.00    +0.013 A 
ATOM     10  C   UNL     1      30.735  25.042  11.696  0.00  0.00    +0.002 A 
ATOM     11  C   UNL     1      30.756  24.322  12.886  0.00  0.00    +0.015 A 
ATOM     12  C   UNL     1      31.870  23.545  13.213  0.00  0.00    +0.017 A 
ATOM     13  C   UNL     1      33.018  23.620  12.411  0.00  0.00    +0.028 A 
BRANCH  12  14
ATOM     14  S   UNL     1      31.852  22.480  14.640  0.00  0.00    -0.016 S 
BRANCH  14  15
ATOM     15  C   UNL     1      31.094  20.989  13.958  0.00  0.00    +0.448 C 
ATOM     16  F   UNL     1      31.082  19.936  14.811  0.00  0.00    -0.160 F 
ATOM     17  F   UNL     1      29.809  21.221  13.599  0.00  0.00    -0.160 F 
ATOM     18  F   UNL     1      31.753  20.585  12.844  0.00  0.00    -0.160 F 
ENDBRANCH  14  15
ENDBRANCH  12  14
ENDBRANCH   5   8
BRANCH   1  20
ATOM     19  N   UNL     1      34.744  24.327   6.000  0.00  0.00    -0.329 N 
ATOM     20  C   UNL     1      35.264  23.072   6.080  0.00  0.00    +0.215 C 
ATOM     21  O   UNL     1      35.482  22.438   5.052  0.00  0.00    -0.276 OA
ATOM     22  H   UNL     1      34.611  24.701   5.070  0.00  0.00    +0.145 HD
ATOM     23  H   UNL     1      34.690  24.958   6.787  0.00  0.00    +0.145 HD
ENDBRANCH   1  20
TORSDOF 4
ENDMDL
MODEL 8
REMARK VINA RESULT:      -6.2      4.778      6.382
REMARK  Name = ZINC000826139982
REMARK  4 active torsions:
REMARK  status: ('A' for Active; 'I' for Inactive)
REMARK    1  A    between atoms: C_2  and  C_4
REMARK    2  A    between atoms: C_8  and  C_10
REMARK    3  A    between atoms: C_14  and  S_15
REMARK    4  A    between atoms: S_15  and  C_16
REMARK                            x       y       z     vdW  Elec       q    Type
REMARK                         _______ _______ _______ _____ _____    ______ ____
ROOT
ATOM      1  C   UNL     1      34.544  16.734  13.765  0.00  0.00    +0.093 C 
ATOM      2  C   UNL     1      34.159  18.021  14.494  0.00  0.00    +0.033 C 
ATOM      3  C   UNL     1      32.814  17.653  15.100  0.00  0.00    +0.109 C 
ATOM      4  N   UNL     1      32.169  16.939  14.007  0.00  0.00    -0.297 N 
ATOM      5  C   UNL     1      30.829  16.772  13.684  0.00  0.00    +0.247 C 
ATOM      6  O   UNL     1      30.489  16.009  12.776  0.00  0.00    -0.270 OA
ATOM      7  C   UNL     1      33.194  16.205  13.260  0.00  0.00    +0.120 C 
ENDROOT
BRANCH   5   8
ATOM      8  C   UNL     1      29.742  17.481  14.426  0.00  0.00    +0.038 A 
ATOM      9  C   UNL     1      28.775  16.828  15.189  0.00  0.00    +0.013 A 
ATOM     10  C   UNL     1      27.731  17.538  15.785  0.00  0.00    +0.002 A 
ATOM     11  C   UNL     1      27.724  18.929  15.742  0.00  0.00    +0.015 A 
ATOM     12  C   UNL     1      28.780  19.614  15.138  0.00  0.00    +0.017 A 
ATOM     13  C   UNL     1      29.762  18.889  14.445  0.00  0.00    +0.028 A 
BRANCH  12  14
ATOM     14  S   UNL     1      28.883  21.390  15.221  0.00  0.00    -0.016 S 
BRANCH  14  15
ATOM     15  C   UNL     1      27.952  21.727  16.731  0.00  0.00    +0.448 C 
ATOM     16  F   UNL     1      26.658  22.066  16.517  0.00  0.00    -0.160 F 
ATOM     17  F   UNL     1      27.947  20.647  17.548  0.00  0.00    -0.160 F 
ATOM     18  F   UNL     1      28.516  22.748  17.423  0.00  0.00    -0.160 F 
ENDBRANCH  14  15
ENDBRANCH  12  14
ENDBRANCH   5   8
BRANCH   1  20
ATOM     19  N   UNL     1      36.525  16.114  15.064  0.00  0.00    -0.329 N 
ATOM     20  C   UNL     1      35.253  15.779  14.713  0.00  0.00    +0.215 C 
ATOM     21  O   UNL     1      34.733  14.778  15.195  0.00  0.00    -0.276 OA
ATOM     22  H   UNL     1      36.967  15.532  15.763  0.00  0.00    +0.145 HD
ATOM     23  H   UNL     1      36.952  17.000  14.833  0.00  0.00    +0.145 HD
ENDBRANCH   1  20
TORSDOF 4
ENDMDL
MODEL 9
REMARK VINA RESULT:      -6.2      4.569      6.204
REMARK  Name = ZINC000826139982
REMARK  4 active torsions:
REMARK  status: ('A' for Active; 'I' for Inactive)
REMARK    1  A    between atoms: C_2  and  C_4
REMARK    2  A    between atoms: C_8  and  C_10
REMARK    3  A    between atoms: C_14  and  S_15
REMARK    4  A    between atoms: S_15  and  C_16
REMARK                            x       y       z     vdW  Elec       q    Type
REMARK                         _______ _______ _______ _____ _____    ______ ____
ROOT
ATOM      1  C   UNL     1      33.995  15.531  11.912  0.00  0.00    +0.093 C 
ATOM      2  C   UNL     1      32.548  15.052  11.798  0.00  0.00    +0.033 C 
ATOM      3  C   UNL     1      31.770  16.293  12.208  0.00  0.00    +0.109 C 
ATOM      4  N   UNL     1      32.535  16.774  13.350  0.00  0.00    -0.297 N 
ATOM      5  C   UNL     1      32.157  17.514  14.463  0.00  0.00    +0.247 C 
ATOM      6  O   UNL     1      33.002  17.932  15.259  0.00  0.00    -0.270 OA
ATOM      7  C   UNL     1      33.952  16.480  13.119  0.00  0.00    +0.120 C 
ENDROOT
BRANCH   5   8
ATOM      8  C   UNL     1      30.728  17.857  14.735  0.00  0.00    +0.038 A 
ATOM      9  C   UNL     1      29.762  16.916  15.089  0.00  0.00    +0.013 A 
ATOM     10  C   UNL     1      28.424  17.285  15.242  0.00  0.00    +0.002 A 
ATOM     11  C   UNL     1      28.061  18.627  15.182  0.00  0.00    +0.015 A 
ATOM     12  C   UNL     1      29.042  19.607  15.008  0.00  0.00    +0.017 A 
ATOM     13  C   UNL     1      30.363  19.217  14.742  0.00  0.00    +0.028 A 
BRANCH  12  14
ATOM     14  S   UNL     1      28.629  21.337  15.101  0.00  0.00    -0.016 S 
BRANCH  14  15
ATOM     15  C   UNL     1      27.724  21.400  16.663  0.00  0.00    +0.448 C 
ATOM     16  F   UNL     1      27.584  20.196  17.268  0.00  0.00    -0.160 F 
ATOM     17  F   UNL     1      28.342  22.218  17.548  0.00  0.00    -0.160 F 
ATOM     18  F   UNL     1      26.474  21.891  16.471  0.00  0.00    -0.160 F 
ENDBRANCH  14  15
ENDBRANCH  12  14
ENDBRANCH   5   8
BRANCH   1  20
ATOM     19  N   UNL     1      35.387  17.173  10.744  0.00  0.00    -0.329 N 
ATOM     20  C   UNL     1      34.433  16.209  10.623  0.00  0.00    +0.215 C 
ATOM     21  O   UNL     1      34.011  15.907   9.511  0.00  0.00    -0.276 OA
ATOM     22  H   UNL     1      35.745  17.562   9.882  0.00  0.00    +0.145 HD
ATOM     23  H   UNL     1      35.887  17.357  11.602  0.00  0.00    +0.145 HD
ENDBRANCH   1  20
TORSDOF 4
ENDMDL
