MODEL 1
REMARK VINA RESULT:      -6.3      0.000      0.000
REMARK  Name = ZINC000560333501
REMARK  5 active torsions:
REMARK  status: ('A' for Active; 'I' for Inactive)
REMARK    1  A    between atoms: C_2  and  C_3
REMARK    2  A    between atoms: C_7  and  C_8
REMARK    3  A    between atoms: C_8  and  C_9
REMARK    4  A    between atoms: N_11  and  C_12
REMARK    5  A    between atoms: C_12  and  C_13
REMARK                            x       y       z     vdW  Elec       q    Type
REMARK                         _______ _______ _______ _____ _____    ______ ____
ROOT
ATOM      1  C   UNL     1      30.735  23.652  16.632  0.00  0.00    +0.217 C 
ATOM      2  O   UNL     1      31.918  23.306  16.606  0.00  0.00    -0.275 OA
ATOM      3  N   UNL     1      30.138  24.387  15.622  0.00  0.00    -0.315 N 
ATOM      4  H   UNL     1      29.126  24.358  15.592  0.00  0.00    +0.149 HD
ENDROOT
BRANCH   1   5
ATOM      5  C   UNL     1      29.847  23.290  17.799  0.00  0.00    +0.131 C 
BRANCH   5  10
ATOM      6  C   UNL     1      26.306  21.931  17.232  0.00  0.00    +0.052 A 
ATOM      7  C   UNL     1      26.587  20.673  16.686  0.00  0.00    +0.019 A 
ATOM      8  C   UNL     1      27.911  20.264  16.528  0.00  0.00    +0.002 A 
ATOM      9  C   UNL     1      28.956  21.104  16.917  0.00  0.00    +0.004 A 
ATOM     10  C   UNL     1      28.694  22.365  17.473  0.00  0.00    -0.037 A 
ATOM     11  C   UNL     1      27.358  22.774  17.619  0.00  0.00    +0.023 A 
BRANCH   6  13
ATOM     12  N   UNL     1      23.846  22.712  17.493  0.00  0.00    -0.191 NA
ATOM     13  C   UNL     1      24.946  22.358  17.376  0.00  0.00    +0.099 C 
ENDBRANCH   6  13
ENDBRANCH   5  10
ENDBRANCH   1   5
BRANCH   3  14
ATOM     14  C   UNL     1      30.825  24.481  14.346  0.00  0.00    +0.108 C 
BRANCH  14  15
ATOM     15  C   UNL     1      30.221  23.675  13.180  0.00  0.00    +0.011 C 
ATOM     16  C   UNL     1      30.224  22.167  13.414  0.00  0.00    +0.033 C 
ATOM     17  C   UNL     1      31.645  21.654  13.591  0.00  0.00    +0.161 C 
ATOM     18  O   UNL     1      32.548  22.112  12.588  0.00  0.00    -0.373 OA
ATOM     19  C   UNL     1      32.470  23.462  12.046  0.00  0.00    +0.070 C 
ATOM     20  C   UNL     1      33.404  24.563  12.658  0.00  0.00    +0.035 C 
ATOM     21  C   UNL     1      34.481  24.152  11.654  0.00  0.00    +0.006 C 
ATOM     22  C   UNL     1      33.352  23.607  10.759  0.00  0.00    +0.035 C 
ATOM     23  C   UNL     1      31.014  23.915  11.878  0.00  0.00    +0.040 C 
ENDBRANCH  14  15
ENDBRANCH   3  14
TORSDOF 5
ENDMDL
MODEL 2
REMARK VINA RESULT:      -6.2      2.524      7.432
REMARK  Name = ZINC000560333501
REMARK  5 active torsions:
REMARK  status: ('A' for Active; 'I' for Inactive)
REMARK    1  A    between atoms: C_2  and  C_3
REMARK    2  A    between atoms: C_7  and  C_8
REMARK    3  A    between atoms: C_8  and  C_9
REMARK    4  A    between atoms: N_11  and  C_12
REMARK    5  A    between atoms: C_12  and  C_13
REMARK                            x       y       z     vdW  Elec       q    Type
REMARK                         _______ _______ _______ _____ _____    ______ ____
ROOT
ATOM      1  C   UNL     1      30.244  24.153  12.501  0.00  0.00    +0.217 C 
ATOM      2  O   UNL     1      29.685  25.171  12.918  0.00  0.00    -0.275 OA
ATOM      3  N   UNL     1      30.252  22.955  13.195  0.00  0.00    -0.315 N 
ATOM      4  H   UNL     1      30.464  22.129  12.649  0.00  0.00    +0.149 HD
ENDROOT
BRANCH   1   5
ATOM      5  C   UNL     1      30.972  24.155  11.177  0.00  0.00    +0.131 C 
BRANCH   5  10
ATOM      6  C   UNL     1      34.058  26.425  11.344  0.00  0.00    +0.052 A 
ATOM      7  C   UNL     1      35.076  25.479  11.504  0.00  0.00    +0.019 A 
ATOM      8  C   UNL     1      34.765  24.120  11.532  0.00  0.00    +0.002 A 
ATOM      9  C   UNL     1      33.440  23.701  11.396  0.00  0.00    +0.004 A 
ATOM     10  C   UNL     1      32.407  24.634  11.228  0.00  0.00    -0.037 A 
ATOM     11  C   UNL     1      32.728  26.002  11.212  0.00  0.00    +0.023 A 
BRANCH   6  13
ATOM     12  N   UNL     1      34.639  28.953  11.320  0.00  0.00    -0.191 NA
ATOM     13  C   UNL     1      34.377  27.822  11.335  0.00  0.00    +0.099 C 
ENDBRANCH   6  13
ENDBRANCH   5  10
ENDBRANCH   1   5
BRANCH   3  14
ATOM     14  C   UNL     1      29.311  22.791  14.288  0.00  0.00    +0.108 C 
BRANCH  14  15
ATOM     15  C   UNL     1      29.560  21.603  15.236  0.00  0.00    +0.011 C 
ATOM     16  C   UNL     1      28.410  21.343  16.205  0.00  0.00    +0.033 C 
ATOM     17  C   UNL     1      28.176  22.554  17.097  0.00  0.00    +0.161 C 
ATOM     18  O   UNL     1      29.365  23.065  17.693  0.00  0.00    -0.373 OA
ATOM     19  C   UNL     1      30.630  23.099  16.971  0.00  0.00    +0.070 C 
ATOM     20  C   UNL     1      31.038  24.429  16.248  0.00  0.00    +0.035 C 
ATOM     21  C   UNL     1      31.694  24.890  17.550  0.00  0.00    +0.006 C 
ATOM     22  C   UNL     1      31.825  23.404  17.937  0.00  0.00    +0.035 C 
ATOM     23  C   UNL     1      30.813  21.847  16.103  0.00  0.00    +0.040 C 
ENDBRANCH  14  15
ENDBRANCH   3  14
TORSDOF 5
ENDMDL
MODEL 3
REMARK VINA RESULT:      -6.1      3.216      7.164
REMARK  Name = ZINC000560333501
REMARK  5 active torsions:
REMARK  status: ('A' for Active; 'I' for Inactive)
REMARK    1  A    between atoms: C_2  and  C_3
REMARK    2  A    between atoms: C_7  and  C_8
REMARK    3  A    between atoms: C_8  and  C_9
REMARK    4  A    between atoms: N_11  and  C_12
REMARK    5  A    between atoms: C_12  and  C_13
REMARK                            x       y       z     vdW  Elec       q    Type
REMARK                         _______ _______ _______ _____ _____    ______ ____
ROOT
ATOM      1  C   UNL     1      29.714  23.927  13.521  0.00  0.00    +0.217 C 
ATOM      2  O   UNL     1      29.398  22.736  13.453  0.00  0.00    -0.275 OA
ATOM      3  N   UNL     1      30.097  24.542  14.700  0.00  0.00    -0.315 N 
ATOM      4  H   UNL     1      30.612  25.409  14.600  0.00  0.00    +0.149 HD
ENDROOT
BRANCH   1   5
ATOM      5  C   UNL     1      29.695  24.805  12.292  0.00  0.00    +0.131 C 
BRANCH   5  10
ATOM      6  C   UNL     1      33.110  26.120  11.148  0.00  0.00    +0.052 A 
ATOM      7  C   UNL     1      33.550  25.060  10.347  0.00  0.00    +0.019 A 
ATOM      8  C   UNL     1      32.735  23.943  10.163  0.00  0.00    +0.002 A 
ATOM      9  C   UNL     1      31.480  23.883  10.772  0.00  0.00    +0.004 A 
ATOM     10  C   UNL     1      31.019  24.939  11.571  0.00  0.00    -0.037 A 
ATOM     11  C   UNL     1      31.851  26.055  11.761  0.00  0.00    +0.023 A 
BRANCH   6  13
ATOM     12  N   UNL     1      34.647  28.176  11.525  0.00  0.00    -0.191 NA
ATOM     13  C   UNL     1      33.957  27.258  11.353  0.00  0.00    +0.099 C 
ENDBRANCH   6  13
ENDBRANCH   5  10
ENDBRANCH   1   5
BRANCH   3  14
ATOM     14  C   UNL     1      30.452  23.700  15.828  0.00  0.00    +0.108 C 
BRANCH  14  15
ATOM     15  C   UNL     1      31.833  23.019  15.769  0.00  0.00    +0.011 C 
ATOM     16  C   UNL     1      31.922  21.747  16.607  0.00  0.00    +0.033 C 
ATOM     17  C   UNL     1      31.663  22.052  18.075  0.00  0.00    +0.161 C 
ATOM     18  O   UNL     1      32.414  23.157  18.572  0.00  0.00    -0.373 OA
ATOM     19  C   UNL     1      32.666  24.339  17.758  0.00  0.00    +0.070 C 
ATOM     20  C   UNL     1      31.714  25.574  17.927  0.00  0.00    +0.035 C 
ATOM     21  C   UNL     1      32.624  26.072  19.050  0.00  0.00    +0.006 C 
ATOM     22  C   UNL     1      33.760  25.251  18.409  0.00  0.00    +0.035 C 
ATOM     23  C   UNL     1      32.934  23.965  16.295  0.00  0.00    +0.040 C 
ENDBRANCH  14  15
ENDBRANCH   3  14
TORSDOF 5
ENDMDL
MODEL 4
REMARK VINA RESULT:      -6.1      2.647      7.785
REMARK  Name = ZINC000560333501
REMARK  5 active torsions:
REMARK  status: ('A' for Active; 'I' for Inactive)
REMARK    1  A    between atoms: C_2  and  C_3
REMARK    2  A    between atoms: C_7  and  C_8
REMARK    3  A    between atoms: C_8  and  C_9
REMARK    4  A    between atoms: N_11  and  C_12
REMARK    5  A    between atoms: C_12  and  C_13
REMARK                            x       y       z     vdW  Elec       q    Type
REMARK                         _______ _______ _______ _____ _____    ______ ____
ROOT
ATOM      1  C   UNL     1      30.277  24.150  12.532  0.00  0.00    +0.217 C 
ATOM      2  O   UNL     1      29.132  23.736  12.732  0.00  0.00    -0.275 OA
ATOM      3  N   UNL     1      31.297  24.033  13.461  0.00  0.00    -0.315 N 
ATOM      4  H   UNL     1      32.238  24.124  13.098  0.00  0.00    +0.149 HD
ENDROOT
BRANCH   1   5
ATOM      5  C   UNL     1      30.640  24.830  11.234  0.00  0.00    +0.131 C 
BRANCH   5  10
ATOM      6  C   UNL     1      33.700  23.316   9.488  0.00  0.00    +0.052 A 
ATOM      7  C   UNL     1      34.663  24.299   9.738  0.00  0.00    +0.019 A 
ATOM      8  C   UNL     1      34.328  25.428  10.484  0.00  0.00    +0.002 A 
ATOM      9  C   UNL     1      33.034  25.576  10.988  0.00  0.00    +0.004 A 
ATOM     10  C   UNL     1      32.057  24.598  10.755  0.00  0.00    -0.037 A 
ATOM     11  C   UNL     1      32.400  23.469   9.992  0.00  0.00    +0.023 A 
BRANCH   6  13
ATOM     12  N   UNL     1      34.309  21.234   8.065  0.00  0.00    -0.191 NA
ATOM     13  C   UNL     1      34.041  22.166   8.704  0.00  0.00    +0.099 C 
ENDBRANCH   6  13
ENDBRANCH   5  10
ENDBRANCH   1   5
BRANCH   3  14
ATOM     14  C   UNL     1      31.112  23.114  14.570  0.00  0.00    +0.108 C 
BRANCH  14  15
ATOM     15  C   UNL     1      30.806  23.745  15.941  0.00  0.00    +0.011 C 
ATOM     16  C   UNL     1      31.706  23.234  17.062  0.00  0.00    +0.033 C 
ATOM     17  C   UNL     1      31.541  21.733  17.242  0.00  0.00    +0.161 C 
ATOM     18  O   UNL     1      30.181  21.311  17.319  0.00  0.00    -0.373 OA
ATOM     19  C   UNL     1      29.142  21.927  16.504  0.00  0.00    +0.070 C 
ATOM     20  C   UNL     1      28.742  21.230  15.158  0.00  0.00    +0.035 C 
ATOM     21  C   UNL     1      27.727  20.393  15.937  0.00  0.00    +0.006 C 
ATOM     22  C   UNL     1      27.715  21.510  16.999  0.00  0.00    +0.035 C 
ATOM     23  C   UNL     1      29.356  23.441  16.374  0.00  0.00    +0.040 C 
ENDBRANCH  14  15
ENDBRANCH   3  14
TORSDOF 5
ENDMDL
MODEL 5
REMARK VINA RESULT:      -6.1      3.964      6.763
REMARK  Name = ZINC000560333501
REMARK  5 active torsions:
REMARK  status: ('A' for Active; 'I' for Inactive)
REMARK    1  A    between atoms: C_2  and  C_3
REMARK    2  A    between atoms: C_7  and  C_8
REMARK    3  A    between atoms: C_8  and  C_9
REMARK    4  A    between atoms: N_11  and  C_12
REMARK    5  A    between atoms: C_12  and  C_13
REMARK                            x       y       z     vdW  Elec       q    Type
REMARK                         _______ _______ _______ _____ _____    ______ ____
ROOT
ATOM      1  C   UNL     1      31.604  24.855  17.915  0.00  0.00    +0.217 C 
ATOM      2  O   UNL     1      32.351  25.148  16.979  0.00  0.00    -0.275 OA
ATOM      3  N   UNL     1      30.369  24.255  17.740  0.00  0.00    -0.315 N 
ATOM      4  H   UNL     1      29.982  23.793  18.553  0.00  0.00    +0.149 HD
ENDROOT
BRANCH   1   5
ATOM      5  C   UNL     1      32.002  25.144  19.344  0.00  0.00    +0.131 C 
BRANCH   5  10
ATOM      6  C   UNL     1      33.985  23.172  21.967  0.00  0.00    +0.052 A 
ATOM      7  C   UNL     1      34.211  21.972  21.284  0.00  0.00    +0.019 A 
ATOM      8  C   UNL     1      33.745  21.817  19.979  0.00  0.00    +0.002 A 
ATOM      9  C   UNL     1      33.058  22.857  19.350  0.00  0.00    +0.004 A 
ATOM     10  C   UNL     1      32.829  24.070  20.016  0.00  0.00    -0.037 A 
ATOM     11  C   UNL     1      33.292  24.214  21.335  0.00  0.00    +0.023 A 
BRANCH   6  13
ATOM     12  N   UNL     1      34.815  23.443  24.410  0.00  0.00    -0.191 NA
ATOM     13  C   UNL     1      34.447  23.324  23.315  0.00  0.00    +0.099 C 
ENDBRANCH   6  13
ENDBRANCH   5  10
ENDBRANCH   1   5
BRANCH   3  14
ATOM     14  C   UNL     1      30.075  23.658  16.449  0.00  0.00    +0.108 C 
BRANCH  14  15
ATOM     15  C   UNL     1      30.628  22.241  16.206  0.00  0.00    +0.011 C 
ATOM     16  C   UNL     1      30.712  21.863  14.730  0.00  0.00    +0.033 C 
ATOM     17  C   UNL     1      29.334  21.895  14.088  0.00  0.00    +0.161 C 
ATOM     18  O   UNL     1      28.338  21.199  14.834  0.00  0.00    -0.373 OA
ATOM     19  C   UNL     1      28.313  21.229  16.291  0.00  0.00    +0.070 C 
ATOM     20  C   UNL     1      27.377  22.269  16.997  0.00  0.00    +0.035 C 
ATOM     21  C   UNL     1      26.248  21.240  16.933  0.00  0.00    +0.006 C 
ATOM     22  C   UNL     1      27.333  20.148  16.862  0.00  0.00    +0.035 C 
ATOM     23  C   UNL     1      29.730  21.179  16.876  0.00  0.00    +0.040 C 
ENDBRANCH  14  15
ENDBRANCH   3  14
TORSDOF 5
ENDMDL
MODEL 6
REMARK VINA RESULT:      -6.1      1.663      2.509
REMARK  Name = ZINC000560333501
REMARK  5 active torsions:
REMARK  status: ('A' for Active; 'I' for Inactive)
REMARK    1  A    between atoms: C_2  and  C_3
REMARK    2  A    between atoms: C_7  and  C_8
REMARK    3  A    between atoms: C_8  and  C_9
REMARK    4  A    between atoms: N_11  and  C_12
REMARK    5  A    between atoms: C_12  and  C_13
REMARK                            x       y       z     vdW  Elec       q    Type
REMARK                         _______ _______ _______ _____ _____    ______ ____
ROOT
ATOM      1  C   UNL     1      30.253  22.494  14.522  0.00  0.00    +0.217 C 
ATOM      2  O   UNL     1      29.434  22.565  13.602  0.00  0.00    -0.275 OA
ATOM      3  N   UNL     1      31.600  22.245  14.320  0.00  0.00    -0.315 N 
ATOM      4  H   UNL     1      32.216  22.501  15.081  0.00  0.00    +0.149 HD
ENDROOT
BRANCH   1   5
ATOM      5  C   UNL     1      29.823  22.676  15.959  0.00  0.00    +0.131 C 
BRANCH   5  10
ATOM      6  C   UNL     1      26.299  21.647  17.065  0.00  0.00    +0.052 A 
ATOM      7  C   UNL     1      26.399  20.252  17.010  0.00  0.00    +0.019 A 
ATOM      8  C   UNL     1      27.604  19.655  16.642  0.00  0.00    +0.002 A 
ATOM      9  C   UNL     1      28.712  20.446  16.333  0.00  0.00    +0.004 A 
ATOM     10  C   UNL     1      28.633  21.845  16.389  0.00  0.00    -0.037 A 
ATOM     11  C   UNL     1      27.412  22.438  16.750  0.00  0.00    +0.023 A 
BRANCH   6  13
ATOM     12  N   UNL     1      24.042  22.747  17.718  0.00  0.00    -0.191 NA
ATOM     13  C   UNL     1      25.054  22.259  17.425  0.00  0.00    +0.099 C 
ENDBRANCH   6  13
ENDBRANCH   5  10
ENDBRANCH   1   5
BRANCH   3  14
ATOM     14  C   UNL     1      32.128  22.389  12.975  0.00  0.00    +0.108 C 
BRANCH  14  15
ATOM     15  C   UNL     1      32.810  23.730  12.645  0.00  0.00    +0.011 C 
ATOM     16  C   UNL     1      31.861  24.765  12.047  0.00  0.00    +0.033 C 
ATOM     17  C   UNL     1      31.269  24.259  10.740  0.00  0.00    +0.161 C 
ATOM     18  O   UNL     1      32.239  23.735   9.837  0.00  0.00    -0.373 OA
ATOM     19  C   UNL     1      33.383  22.964  10.306  0.00  0.00    +0.070 C 
ATOM     20  C   UNL     1      33.282  21.399  10.292  0.00  0.00    +0.035 C 
ATOM     21  C   UNL     1      33.799  21.417   8.853  0.00  0.00    +0.006 C 
ATOM     22  C   UNL     1      34.445  22.779   9.169  0.00  0.00    +0.035 C 
ATOM     23  C   UNL     1      33.942  23.532  11.616  0.00  0.00    +0.040 C 
ENDBRANCH  14  15
ENDBRANCH   3  14
TORSDOF 5
ENDMDL
MODEL 7
REMARK VINA RESULT:      -6.1      3.385      5.504
REMARK  Name = ZINC000560333501
REMARK  5 active torsions:
REMARK  status: ('A' for Active; 'I' for Inactive)
REMARK    1  A    between atoms: C_2  and  C_3
REMARK    2  A    between atoms: C_7  and  C_8
REMARK    3  A    between atoms: C_8  and  C_9
REMARK    4  A    between atoms: N_11  and  C_12
REMARK    5  A    between atoms: C_12  and  C_13
REMARK                            x       y       z     vdW  Elec       q    Type
REMARK                         _______ _______ _______ _____ _____    ______ ____
ROOT
ATOM      1  C   UNL     1      30.465  23.169  17.651  0.00  0.00    +0.217 C 
ATOM      2  O   UNL     1      31.178  22.259  18.081  0.00  0.00    -0.275 OA
ATOM      3  N   UNL     1      30.420  24.430  18.220  0.00  0.00    -0.315 N 
ATOM      4  H   UNL     1      30.051  25.168  17.633  0.00  0.00    +0.149 HD
ENDROOT
BRANCH   1   5
ATOM      5  C   UNL     1      29.574  22.954  16.450  0.00  0.00    +0.131 C 
BRANCH   5  10
ATOM      6  C   UNL     1      25.994  21.813  17.210  0.00  0.00    +0.052 A 
ATOM      7  C   UNL     1      26.091  20.440  16.955  0.00  0.00    +0.019 A 
ATOM      8  C   UNL     1      27.312  19.891  16.565  0.00  0.00    +0.002 A 
ATOM      9  C   UNL     1      28.438  20.706  16.433  0.00  0.00    +0.004 A 
ATOM     10  C   UNL     1      28.361  22.082  16.691  0.00  0.00    -0.037 A 
ATOM     11  C   UNL     1      27.125  22.629  17.073  0.00  0.00    +0.023 A 
BRANCH   6  13
ATOM     12  N   UNL     1      23.716  22.840  17.908  0.00  0.00    -0.191 NA
ATOM     13  C   UNL     1      24.734  22.380  17.591  0.00  0.00    +0.099 C 
ENDBRANCH   6  13
ENDBRANCH   5  10
ENDBRANCH   1   5
BRANCH   3  14
ATOM     14  C   UNL     1      31.473  24.800  19.149  0.00  0.00    +0.108 C 
BRANCH  14  15
ATOM     15  C   UNL     1      32.535  25.786  18.626  0.00  0.00    +0.011 C 
ATOM     16  C   UNL     1      33.436  25.195  17.546  0.00  0.00    +0.033 C 
ATOM     17  C   UNL     1      34.201  23.994  18.083  0.00  0.00    +0.161 C 
ATOM     18  O   UNL     1      34.837  24.234  19.337  0.00  0.00    -0.373 OA
ATOM     19  C   UNL     1      34.208  25.045  20.370  0.00  0.00    +0.070 C 
ATOM     20  C   UNL     1      33.405  24.315  21.503  0.00  0.00    +0.035 C 
ATOM     21  C   UNL     1      34.707  24.196  22.295  0.00  0.00    +0.006 C 
ATOM     22  C   UNL     1      35.228  25.410  21.502  0.00  0.00    +0.035 C 
ATOM     23  C   UNL     1      33.466  26.245  19.767  0.00  0.00    +0.040 C 
ENDBRANCH  14  15
ENDBRANCH   3  14
TORSDOF 5
ENDMDL
MODEL 8
REMARK VINA RESULT:      -6.0      2.545      7.713
REMARK  Name = ZINC000560333501
REMARK  5 active torsions:
REMARK  status: ('A' for Active; 'I' for Inactive)
REMARK    1  A    between atoms: C_2  and  C_3
REMARK    2  A    between atoms: C_7  and  C_8
REMARK    3  A    between atoms: C_8  and  C_9
REMARK    4  A    between atoms: N_11  and  C_12
REMARK    5  A    between atoms: C_12  and  C_13
REMARK                            x       y       z     vdW  Elec       q    Type
REMARK                         _______ _______ _______ _____ _____    ______ ____
ROOT
ATOM      1  C   UNL     1      30.212  24.145  12.567  0.00  0.00    +0.217 C 
ATOM      2  O   UNL     1      29.097  23.662  12.780  0.00  0.00    -0.275 OA
ATOM      3  N   UNL     1      31.251  24.084  13.480  0.00  0.00    -0.315 N 
ATOM      4  H   UNL     1      32.180  24.232  13.104  0.00  0.00    +0.149 HD
ENDROOT
BRANCH   1   5
ATOM      5  C   UNL     1      30.515  24.851  11.267  0.00  0.00    +0.131 C 
BRANCH   5  10
ATOM      6  C   UNL     1      34.189  25.902  10.950  0.00  0.00    +0.052 A 
ATOM      7  C   UNL     1      34.721  24.806  10.261  0.00  0.00    +0.019 A 
ATOM      8  C   UNL     1      33.890  23.752   9.884  0.00  0.00    +0.002 A 
ATOM      9  C   UNL     1      32.528  23.789  10.188  0.00  0.00    +0.004 A 
ATOM     10  C   UNL     1      31.975  24.882  10.871  0.00  0.00    -0.037 A 
ATOM     11  C   UNL     1      32.821  25.935  11.256  0.00  0.00    +0.023 A 
BRANCH   6  13
ATOM     12  N   UNL     1      35.737  27.852  11.678  0.00  0.00    -0.191 NA
ATOM     13  C   UNL     1      35.048  26.976  11.354  0.00  0.00    +0.099 C 
ENDBRANCH   6  13
ENDBRANCH   5  10
ENDBRANCH   1   5
BRANCH   3  14
ATOM     14  C   UNL     1      31.137  23.150  14.586  0.00  0.00    +0.108 C 
BRANCH  14  15
ATOM     15  C   UNL     1      30.841  23.758  15.970  0.00  0.00    +0.011 C 
ATOM     16  C   UNL     1      31.749  23.227  17.076  0.00  0.00    +0.033 C 
ATOM     17  C   UNL     1      31.584  21.722  17.231  0.00  0.00    +0.161 C 
ATOM     18  O   UNL     1      30.224  21.301  17.310  0.00  0.00    -0.373 OA
ATOM     19  C   UNL     1      29.180  21.932  16.514  0.00  0.00    +0.070 C 
ATOM     20  C   UNL     1      28.769  21.259  15.158  0.00  0.00    +0.035 C 
ATOM     21  C   UNL     1      27.760  20.409  15.930  0.00  0.00    +0.006 C 
ATOM     22  C   UNL     1      27.756  21.508  17.010  0.00  0.00    +0.035 C 
ATOM     23  C   UNL     1      29.394  23.447  16.408  0.00  0.00    +0.040 C 
ENDBRANCH  14  15
ENDBRANCH   3  14
TORSDOF 5
ENDMDL
MODEL 9
REMARK VINA RESULT:      -6.0      2.387      7.337
REMARK  Name = ZINC000560333501
REMARK  5 active torsions:
REMARK  status: ('A' for Active; 'I' for Inactive)
REMARK    1  A    between atoms: C_2  and  C_3
REMARK    2  A    between atoms: C_7  and  C_8
REMARK    3  A    between atoms: C_8  and  C_9
REMARK    4  A    between atoms: N_11  and  C_12
REMARK    5  A    between atoms: C_12  and  C_13
REMARK                            x       y       z     vdW  Elec       q    Type
REMARK                         _______ _______ _______ _____ _____    ______ ____
ROOT
ATOM      1  C   UNL     1      29.860  24.588  13.055  0.00  0.00    +0.217 C 
ATOM      2  O   UNL     1      28.839  24.010  12.671  0.00  0.00    -0.275 OA
ATOM      3  N   UNL     1      30.261  24.616  14.379  0.00  0.00    -0.315 N 
ATOM      4  H   UNL     1      31.234  24.844  14.542  0.00  0.00    +0.149 HD
ENDROOT
BRANCH   1   5
ATOM      5  C   UNL     1      30.749  25.319  12.078  0.00  0.00    +0.131 C 
BRANCH   5  10
ATOM      6  C   UNL     1      33.887  23.185  11.524  0.00  0.00    +0.052 A 
ATOM      7  C   UNL     1      33.693  22.764  10.204  0.00  0.00    +0.019 A 
ATOM      8  C   UNL     1      32.569  23.189   9.496  0.00  0.00    +0.002 A 
ATOM      9  C   UNL     1      31.639  24.037  10.100  0.00  0.00    +0.004 A 
ATOM     10  C   UNL     1      31.820  24.476  11.420  0.00  0.00    -0.037 A 
ATOM     11  C   UNL     1      32.949  24.034  12.129  0.00  0.00    +0.023 A 
BRANCH   6  13
ATOM     12  N   UNL     1      35.965  22.371  12.846  0.00  0.00    -0.191 NA
ATOM     13  C   UNL     1      35.032  22.732  12.257  0.00  0.00    +0.099 C 
ENDBRANCH   6  13
ENDBRANCH   5  10
ENDBRANCH   1   5
BRANCH   3  14
ATOM     14  C   UNL     1      29.650  23.675  15.301  0.00  0.00    +0.108 C 
BRANCH  14  15
ATOM     15  C   UNL     1      30.450  22.394  15.606  0.00  0.00    +0.011 C 
ATOM     16  C   UNL     1      30.607  21.471  14.400  0.00  0.00    +0.033 C 
ATOM     17  C   UNL     1      29.247  21.010  13.897  0.00  0.00    +0.161 C 
ATOM     18  O   UNL     1      28.391  20.521  14.926  0.00  0.00    -0.373 OA
ATOM     19  C   UNL     1      28.356  21.133  16.248  0.00  0.00    +0.070 C 
ATOM     20  C   UNL     1      27.244  22.200  16.543  0.00  0.00    +0.035 C 
ATOM     21  C   UNL     1      26.320  21.060  16.974  0.00  0.00    +0.006 C 
ATOM     22  C   UNL     1      27.584  20.230  17.269  0.00  0.00    +0.035 C 
ATOM     23  C   UNL     1      29.756  21.562  16.704  0.00  0.00    +0.040 C 
ENDBRANCH  14  15
ENDBRANCH   3  14
TORSDOF 5
ENDMDL
