MODEL 1
REMARK VINA RESULT:      -7.3      0.000      0.000
REMARK  Name = ZINC000560333501
REMARK  5 active torsions:
REMARK  status: ('A' for Active; 'I' for Inactive)
REMARK    1  A    between atoms: C_2  and  C_3
REMARK    2  A    between atoms: C_7  and  C_8
REMARK    3  A    between atoms: C_8  and  C_9
REMARK    4  A    between atoms: N_11  and  C_12
REMARK    5  A    between atoms: C_12  and  C_13
REMARK                            x       y       z     vdW  Elec       q    Type
REMARK                         _______ _______ _______ _____ _____    ______ ____
ROOT
ATOM      1  C   UNL     1      11.591   6.294  10.821  0.00  0.00    +0.217 C 
ATOM      2  O   UNL     1      12.330   7.175  10.373  0.00  0.00    -0.275 OA
ATOM      3  N   UNL     1      10.881   5.420  10.016  0.00  0.00    -0.315 N 
ATOM      4  H   UNL     1      10.557   4.571  10.463  0.00  0.00    +0.149 HD
ENDROOT
BRANCH   1   5
ATOM      5  C   UNL     1      11.410   6.117  12.310  0.00  0.00    +0.131 C 
BRANCH   5  10
ATOM      6  C   UNL     1      13.301   4.076  14.948  0.00  0.00    +0.052 A 
ATOM      7  C   UNL     1      14.336   3.535  14.176  0.00  0.00    +0.019 A 
ATOM      8  C   UNL     1      14.430   3.851  12.821  0.00  0.00    +0.002 A 
ATOM      9  C   UNL     1      13.497   4.709  12.234  0.00  0.00    +0.004 A 
ATOM     10  C   UNL     1      12.459   5.266  12.993  0.00  0.00    -0.037 A 
ATOM     11  C   UNL     1      12.364   4.934  14.355  0.00  0.00    +0.023 A 
BRANCH   6  13
ATOM     12  N   UNL     1      13.099   3.457  17.459  0.00  0.00    -0.191 NA
ATOM     13  C   UNL     1      13.194   3.735  16.336  0.00  0.00    +0.099 C 
ENDBRANCH   6  13
ENDBRANCH   5  10
ENDBRANCH   1   5
BRANCH   3  14
ATOM     14  C   UNL     1      11.257   5.317   8.618  0.00  0.00    +0.108 C 
BRANCH  14  15
ATOM     15  C   UNL     1      11.774   3.945   8.145  0.00  0.00    +0.011 C 
ATOM     16  C   UNL     1      13.009   3.464   8.900  0.00  0.00    +0.033 C 
ATOM     17  C   UNL     1      14.164   4.438   8.716  0.00  0.00    +0.161 C 
ATOM     18  O   UNL     1      14.391   4.806   7.358  0.00  0.00    -0.373 OA
ATOM     19  C   UNL     1      13.290   5.011   6.426  0.00  0.00    +0.070 C 
ATOM     20  C   UNL     1      12.774   6.474   6.195  0.00  0.00    +0.035 C 
ATOM     21  C   UNL     1      13.823   6.628   5.093  0.00  0.00    +0.006 C 
ATOM     22  C   UNL     1      13.807   5.094   4.949  0.00  0.00    +0.035 C 
ATOM     23  C   UNL     1      12.166   3.991   6.653  0.00  0.00    +0.040 C 
ENDBRANCH  14  15
ENDBRANCH   3  14
TORSDOF 5
ENDMDL
MODEL 2
REMARK VINA RESULT:      -7.3      2.751      4.426
REMARK  Name = ZINC000560333501
REMARK  5 active torsions:
REMARK  status: ('A' for Active; 'I' for Inactive)
REMARK    1  A    between atoms: C_2  and  C_3
REMARK    2  A    between atoms: C_7  and  C_8
REMARK    3  A    between atoms: C_8  and  C_9
REMARK    4  A    between atoms: N_11  and  C_12
REMARK    5  A    between atoms: C_12  and  C_13
REMARK                            x       y       z     vdW  Elec       q    Type
REMARK                         _______ _______ _______ _____ _____    ______ ____
ROOT
ATOM      1  C   UNL     1      14.037   6.795   6.994  0.00  0.00    +0.217 C 
ATOM      2  O   UNL     1      14.778   7.280   6.134  0.00  0.00    -0.275 OA
ATOM      3  N   UNL     1      13.427   5.560   6.858  0.00  0.00    -0.315 N 
ATOM      4  H   UNL     1      13.098   5.133   7.715  0.00  0.00    +0.149 HD
ENDROOT
BRANCH   1   5
ATOM      5  C   UNL     1      13.743   7.542   8.273  0.00  0.00    +0.131 C 
BRANCH   5  10
ATOM      6  C   UNL     1      12.081   5.760  11.235  0.00  0.00    +0.052 A 
ATOM      7  C   UNL     1      13.114   4.912  11.650  0.00  0.00    +0.019 A 
ATOM      8  C   UNL     1      14.342   4.938  10.990  0.00  0.00    +0.002 A 
ATOM      9  C   UNL     1      14.545   5.811   9.919  0.00  0.00    +0.004 A 
ATOM     10  C   UNL     1      13.525   6.673   9.494  0.00  0.00    -0.037 A 
ATOM     11  C   UNL     1      12.287   6.633  10.157  0.00  0.00    +0.023 A 
BRANCH   6  13
ATOM     12  N   UNL     1       9.784   5.692  12.438  0.00  0.00    -0.191 NA
ATOM     13  C   UNL     1      10.813   5.719  11.901  0.00  0.00    +0.099 C 
ENDBRANCH   6  13
ENDBRANCH   5  10
ENDBRANCH   1   5
BRANCH   3  14
ATOM     14  C   UNL     1      13.918   4.663   5.828  0.00  0.00    +0.108 C 
BRANCH  14  15
ATOM     15  C   UNL     1      15.363   4.153   5.994  0.00  0.00    +0.011 C 
ATOM     16  C   UNL     1      15.740   3.057   5.002  0.00  0.00    +0.033 C 
ATOM     17  C   UNL     1      14.841   1.842   5.175  0.00  0.00    +0.161 C 
ATOM     18  O   UNL     1      14.711   1.414   6.529  0.00  0.00    -0.373 OA
ATOM     19  C   UNL     1      14.638   2.367   7.629  0.00  0.00    +0.070 C 
ATOM     20  C   UNL     1      13.222   2.775   8.165  0.00  0.00    +0.035 C 
ATOM     21  C   UNL     1      13.280   1.580   9.117  0.00  0.00    +0.006 C 
ATOM     22  C   UNL     1      14.815   1.650   9.011  0.00  0.00    +0.035 C 
ATOM     23  C   UNL     1      15.576   3.559   7.402  0.00  0.00    +0.040 C 
ENDBRANCH  14  15
ENDBRANCH   3  14
TORSDOF 5
ENDMDL
MODEL 3
REMARK VINA RESULT:      -7.1      3.040      6.107
REMARK  Name = ZINC000560333501
REMARK  5 active torsions:
REMARK  status: ('A' for Active; 'I' for Inactive)
REMARK    1  A    between atoms: C_2  and  C_3
REMARK    2  A    between atoms: C_7  and  C_8
REMARK    3  A    between atoms: C_8  and  C_9
REMARK    4  A    between atoms: N_11  and  C_12
REMARK    5  A    between atoms: C_12  and  C_13
REMARK                            x       y       z     vdW  Elec       q    Type
REMARK                         _______ _______ _______ _____ _____    ______ ____
ROOT
ATOM      1  C   UNL     1      13.521   3.660   6.197  0.00  0.00    +0.217 C 
ATOM      2  O   UNL     1      12.778   2.679   6.102  0.00  0.00    -0.275 OA
ATOM      3  N   UNL     1      13.134   4.847   6.796  0.00  0.00    -0.315 N 
ATOM      4  H   UNL     1      13.885   5.460   7.087  0.00  0.00    +0.149 HD
ENDROOT
BRANCH   1   5
ATOM      5  C   UNL     1      14.928   3.623   5.650  0.00  0.00    +0.131 C 
BRANCH   5  10
ATOM      6  C   UNL     1      17.396   3.897   8.571  0.00  0.00    +0.052 A 
ATOM      7  C   UNL     1      17.888   2.588   8.628  0.00  0.00    +0.019 A 
ATOM      8  C   UNL     1      17.440   1.636   7.713  0.00  0.00    +0.002 A 
ATOM      9  C   UNL     1      16.506   1.987   6.737  0.00  0.00    +0.004 A 
ATOM     10  C   UNL     1      16.007   3.295   6.659  0.00  0.00    -0.037 A 
ATOM     11  C   UNL     1      16.456   4.246   7.592  0.00  0.00    +0.023 A 
BRANCH   6  13
ATOM     12  N   UNL     1      18.210   5.651  10.300  0.00  0.00    -0.191 NA
ATOM     13  C   UNL     1      17.843   4.869   9.524  0.00  0.00    +0.099 C 
ENDBRANCH   6  13
ENDBRANCH   5  10
ENDBRANCH   1   5
BRANCH   3  14
ATOM     14  C   UNL     1      11.940   4.840   7.622  0.00  0.00    +0.108 C 
BRANCH  14  15
ATOM     15  C   UNL     1      11.183   6.176   7.745  0.00  0.00    +0.011 C 
ATOM     16  C   UNL     1      12.044   7.396   7.432  0.00  0.00    +0.033 C 
ATOM     17  C   UNL     1      13.220   7.485   8.393  0.00  0.00    +0.161 C 
ATOM     18  O   UNL     1      12.852   7.341   9.763  0.00  0.00    -0.373 OA
ATOM     19  C   UNL     1      11.814   6.408  10.182  0.00  0.00    +0.070 C 
ATOM     20  C   UNL     1      12.250   4.988  10.686  0.00  0.00    +0.035 C 
ATOM     21  C   UNL     1      12.386   5.572  12.092  0.00  0.00    +0.006 C 
ATOM     22  C   UNL     1      11.388   6.666  11.668  0.00  0.00    +0.035 C 
ATOM     23  C   UNL     1      10.652   6.375   9.181  0.00  0.00    +0.040 C 
ENDBRANCH  14  15
ENDBRANCH   3  14
TORSDOF 5
ENDMDL
MODEL 4
REMARK VINA RESULT:      -7.1      2.767      3.871
REMARK  Name = ZINC000560333501
REMARK  5 active torsions:
REMARK  status: ('A' for Active; 'I' for Inactive)
REMARK    1  A    between atoms: C_2  and  C_3
REMARK    2  A    between atoms: C_7  and  C_8
REMARK    3  A    between atoms: C_8  and  C_9
REMARK    4  A    between atoms: N_11  and  C_12
REMARK    5  A    between atoms: C_12  and  C_13
REMARK                            x       y       z     vdW  Elec       q    Type
REMARK                         _______ _______ _______ _____ _____    ______ ____
ROOT
ATOM      1  C   UNL     1      13.614   6.846   7.034  0.00  0.00    +0.217 C 
ATOM      2  O   UNL     1      14.348   7.244   6.126  0.00  0.00    -0.275 OA
ATOM      3  N   UNL     1      12.834   5.706   6.932  0.00  0.00    -0.315 N 
ATOM      4  H   UNL     1      12.515   5.310   7.808  0.00  0.00    +0.149 HD
ENDROOT
BRANCH   1   5
ATOM      5  C   UNL     1      13.518   7.599   8.339  0.00  0.00    +0.131 C 
BRANCH   5  10
ATOM      6  C   UNL     1      11.860   5.842  11.317  0.00  0.00    +0.052 A 
ATOM      7  C   UNL     1      12.894   4.999  11.739  0.00  0.00    +0.019 A 
ATOM      8  C   UNL     1      14.122   5.021  11.079  0.00  0.00    +0.002 A 
ATOM      9  C   UNL     1      14.323   5.885  10.000  0.00  0.00    +0.004 A 
ATOM     10  C   UNL     1      13.301   6.741   9.568  0.00  0.00    -0.037 A 
ATOM     11  C   UNL     1      12.064   6.706  10.232  0.00  0.00    +0.023 A 
BRANCH   6  13
ATOM     12  N   UNL     1       9.561   5.773  12.517  0.00  0.00    -0.191 NA
ATOM     13  C   UNL     1      10.592   5.804  11.984  0.00  0.00    +0.099 C 
ENDBRANCH   6  13
ENDBRANCH   5  10
ENDBRANCH   1   5
BRANCH   3  14
ATOM     14  C   UNL     1      13.124   4.771   5.860  0.00  0.00    +0.108 C 
BRANCH  14  15
ATOM     15  C   UNL     1      13.443   3.324   6.278  0.00  0.00    +0.011 C 
ATOM     16  C   UNL     1      14.427   3.228   7.441  0.00  0.00    +0.033 C 
ATOM     17  C   UNL     1      15.758   3.865   7.073  0.00  0.00    +0.161 C 
ATOM     18  O   UNL     1      16.269   3.437   5.812  0.00  0.00    -0.373 OA
ATOM     19  C   UNL     1      15.392   3.197   4.673  0.00  0.00    +0.070 C 
ATOM     20  C   UNL     1      15.205   4.348   3.624  0.00  0.00    +0.035 C 
ATOM     21  C   UNL     1      16.429   3.814   2.879  0.00  0.00    +0.006 C 
ATOM     22  C   UNL     1      16.149   2.445   3.526  0.00  0.00    +0.035 C 
ATOM     23  C   UNL     1      14.075   2.541   5.108  0.00  0.00    +0.040 C 
ENDBRANCH  14  15
ENDBRANCH   3  14
TORSDOF 5
ENDMDL
MODEL 5
REMARK VINA RESULT:      -6.9      2.717      4.399
REMARK  Name = ZINC000560333501
REMARK  5 active torsions:
REMARK  status: ('A' for Active; 'I' for Inactive)
REMARK    1  A    between atoms: C_2  and  C_3
REMARK    2  A    between atoms: C_7  and  C_8
REMARK    3  A    between atoms: C_8  and  C_9
REMARK    4  A    between atoms: N_11  and  C_12
REMARK    5  A    between atoms: C_12  and  C_13
REMARK                            x       y       z     vdW  Elec       q    Type
REMARK                         _______ _______ _______ _____ _____    ______ ____
ROOT
ATOM      1  C   UNL     1      14.880   4.269   9.969  0.00  0.00    +0.217 C 
ATOM      2  O   UNL     1      14.819   3.170   9.412  0.00  0.00    -0.275 OA
ATOM      3  N   UNL     1      15.348   5.411   9.342  0.00  0.00    -0.315 N 
ATOM      4  H   UNL     1      15.081   6.290   9.767  0.00  0.00    +0.149 HD
ENDROOT
BRANCH   1   5
ATOM      5  C   UNL     1      14.440   4.436  11.404  0.00  0.00    +0.131 C 
BRANCH   5  10
ATOM      6  C   UNL     1      10.937   5.825  10.695  0.00  0.00    +0.052 A 
ATOM      7  C   UNL     1      10.422   5.925  11.993  0.00  0.00    +0.019 A 
ATOM      8  C   UNL     1      11.213   5.568  13.084  0.00  0.00    +0.002 A 
ATOM      9  C   UNL     1      12.519   5.116  12.886  0.00  0.00    +0.004 A 
ATOM     10  C   UNL     1      13.054   5.016  11.594  0.00  0.00    -0.037 A 
ATOM     11  C   UNL     1      12.247   5.367  10.499  0.00  0.00    +0.023 A 
BRANCH   6  13
ATOM     12  N   UNL     1       9.449   6.462   8.668  0.00  0.00    -0.191 NA
ATOM     13  C   UNL     1      10.116   6.173   9.573  0.00  0.00    +0.099 C 
ENDBRANCH   6  13
ENDBRANCH   5  10
ENDBRANCH   1   5
BRANCH   3  14
ATOM     14  C   UNL     1      15.470   5.397   7.895  0.00  0.00    +0.108 C 
BRANCH  14  15
ATOM     15  C   UNL     1      14.695   6.487   7.130  0.00  0.00    +0.011 C 
ATOM     16  C   UNL     1      13.181   6.378   7.282  0.00  0.00    +0.033 C 
ATOM     17  C   UNL     1      12.681   5.046   6.743  0.00  0.00    +0.161 C 
ATOM     18  O   UNL     1      13.183   4.728   5.447  0.00  0.00    -0.373 OA
ATOM     19  C   UNL     1      14.550   5.049   5.056  0.00  0.00    +0.070 C 
ATOM     20  C   UNL     1      15.643   3.932   5.187  0.00  0.00    +0.035 C 
ATOM     21  C   UNL     1      15.279   3.465   3.778  0.00  0.00    +0.006 C 
ATOM     22  C   UNL     1      14.749   4.887   3.510  0.00  0.00    +0.035 C 
ATOM     23  C   UNL     1      14.988   6.408   5.617  0.00  0.00    +0.040 C 
ENDBRANCH  14  15
ENDBRANCH   3  14
TORSDOF 5
ENDMDL
MODEL 6
REMARK VINA RESULT:      -6.9      3.341      5.130
REMARK  Name = ZINC000560333501
REMARK  5 active torsions:
REMARK  status: ('A' for Active; 'I' for Inactive)
REMARK    1  A    between atoms: C_2  and  C_3
REMARK    2  A    between atoms: C_7  and  C_8
REMARK    3  A    between atoms: C_8  and  C_9
REMARK    4  A    between atoms: N_11  and  C_12
REMARK    5  A    between atoms: C_12  and  C_13
REMARK                            x       y       z     vdW  Elec       q    Type
REMARK                         _______ _______ _______ _____ _____    ______ ____
ROOT
ATOM      1  C   UNL     1      15.005   2.377   7.940  0.00  0.00    +0.217 C 
ATOM      2  O   UNL     1      15.291   1.386   7.263  0.00  0.00    -0.275 OA
ATOM      3  N   UNL     1      15.370   3.665   7.588  0.00  0.00    -0.315 N 
ATOM      4  H   UNL     1      14.845   4.410   8.030  0.00  0.00    +0.149 HD
ENDROOT
BRANCH   1   5
ATOM      5  C   UNL     1      14.225   2.238   9.225  0.00  0.00    +0.131 C 
BRANCH   5  10
ATOM      6  C   UNL     1      11.472   4.904   9.344  0.00  0.00    +0.052 A 
ATOM      7  C   UNL     1      11.827   5.603  10.504  0.00  0.00    +0.019 A 
ATOM      8  C   UNL     1      12.961   5.227  11.222  0.00  0.00    +0.002 A 
ATOM      9  C   UNL     1      13.745   4.157  10.785  0.00  0.00    +0.004 A 
ATOM     10  C   UNL     1      13.409   3.450   9.623  0.00  0.00    -0.037 A 
ATOM     11  C   UNL     1      12.259   3.829   8.910  0.00  0.00    +0.023 A 
BRANCH   6  13
ATOM     12  N   UNL     1       9.340   5.590   8.034  0.00  0.00    -0.191 NA
ATOM     13  C   UNL     1      10.295   5.280   8.617  0.00  0.00    +0.099 C 
ENDBRANCH   6  13
ENDBRANCH   5  10
ENDBRANCH   1   5
BRANCH   3  14
ATOM     14  C   UNL     1      15.820   3.903   6.228  0.00  0.00    +0.108 C 
BRANCH  14  15
ATOM     15  C   UNL     1      14.729   3.937   5.141  0.00  0.00    +0.011 C 
ATOM     16  C   UNL     1      15.175   4.621   3.851  0.00  0.00    +0.033 C 
ATOM     17  C   UNL     1      15.554   6.071   4.116  0.00  0.00    +0.161 C 
ATOM     18  O   UNL     1      14.584   6.787   4.876  0.00  0.00    -0.373 OA
ATOM     19  C   UNL     1      13.851   6.159   5.967  0.00  0.00    +0.070 C 
ATOM     20  C   UNL     1      14.384   6.353   7.430  0.00  0.00    +0.035 C 
ATOM     21  C   UNL     1      13.552   7.633   7.520  0.00  0.00    +0.006 C 
ATOM     22  C   UNL     1      12.644   7.047   6.423  0.00  0.00    +0.035 C 
ATOM     23  C   UNL     1      13.486   4.706   5.634  0.00  0.00    +0.040 C 
ENDBRANCH  14  15
ENDBRANCH   3  14
TORSDOF 5
ENDMDL
MODEL 7
REMARK VINA RESULT:      -6.8      3.195      5.407
REMARK  Name = ZINC000560333501
REMARK  5 active torsions:
REMARK  status: ('A' for Active; 'I' for Inactive)
REMARK    1  A    between atoms: C_2  and  C_3
REMARK    2  A    between atoms: C_7  and  C_8
REMARK    3  A    between atoms: C_8  and  C_9
REMARK    4  A    between atoms: N_11  and  C_12
REMARK    5  A    between atoms: C_12  and  C_13
REMARK                            x       y       z     vdW  Elec       q    Type
REMARK                         _______ _______ _______ _____ _____    ______ ____
ROOT
ATOM      1  C   UNL     1      14.072   6.496   6.318  0.00  0.00    +0.217 C 
ATOM      2  O   UNL     1      15.120   6.995   5.902  0.00  0.00    -0.275 OA
ATOM      3  N   UNL     1      13.944   5.153   6.631  0.00  0.00    -0.315 N 
ATOM      4  H   UNL     1      13.166   4.911   7.231  0.00  0.00    +0.149 HD
ENDROOT
BRANCH   1   5
ATOM      5  C   UNL     1      12.835   7.340   6.511  0.00  0.00    +0.131 C 
BRANCH   5  10
ATOM      6  C   UNL     1      11.253   6.366   9.865  0.00  0.00    +0.052 A 
ATOM      7  C   UNL     1       9.951   6.046   9.464  0.00  0.00    +0.019 A 
ATOM      8  C   UNL     1       9.601   6.123   8.116  0.00  0.00    +0.002 A 
ATOM      9  C   UNL     1      10.547   6.514   7.167  0.00  0.00    +0.004 A 
ATOM     10  C   UNL     1      11.858   6.831   7.549  0.00  0.00    -0.037 A 
ATOM     11  C   UNL     1      12.200   6.762   8.910  0.00  0.00    +0.023 A 
BRANCH   6  13
ATOM     12  N   UNL     1      11.887   6.252  12.379  0.00  0.00    -0.191 NA
ATOM     13  C   UNL     1      11.607   6.306  11.253  0.00  0.00    +0.099 C 
ENDBRANCH   6  13
ENDBRANCH   5  10
ENDBRANCH   1   5
BRANCH   3  14
ATOM     14  C   UNL     1      15.155   4.368   6.785  0.00  0.00    +0.108 C 
BRANCH  14  15
ATOM     15  C   UNL     1      15.860   4.453   8.152  0.00  0.00    +0.011 C 
ATOM     16  C   UNL     1      17.216   3.753   8.184  0.00  0.00    +0.033 C 
ATOM     17  C   UNL     1      17.063   2.271   7.879  0.00  0.00    +0.161 C 
ATOM     18  O   UNL     1      16.036   1.633   8.634  0.00  0.00    -0.373 OA
ATOM     19  C   UNL     1      14.781   2.307   8.940  0.00  0.00    +0.070 C 
ATOM     20  C   UNL     1      13.547   2.038   8.009  0.00  0.00    +0.035 C 
ATOM     21  C   UNL     1      13.194   0.839   8.888  0.00  0.00    +0.006 C 
ATOM     22  C   UNL     1      13.970   1.525  10.029  0.00  0.00    +0.035 C 
ATOM     23  C   UNL     1      15.003   3.792   9.252  0.00  0.00    +0.040 C 
ENDBRANCH  14  15
ENDBRANCH   3  14
TORSDOF 5
ENDMDL
MODEL 8
REMARK VINA RESULT:      -6.8      3.422      6.077
REMARK  Name = ZINC000560333501
REMARK  5 active torsions:
REMARK  status: ('A' for Active; 'I' for Inactive)
REMARK    1  A    between atoms: C_2  and  C_3
REMARK    2  A    between atoms: C_7  and  C_8
REMARK    3  A    between atoms: C_8  and  C_9
REMARK    4  A    between atoms: N_11  and  C_12
REMARK    5  A    between atoms: C_12  and  C_13
REMARK                            x       y       z     vdW  Elec       q    Type
REMARK                         _______ _______ _______ _____ _____    ______ ____
ROOT
ATOM      1  C   UNL     1      13.786   4.251   5.435  0.00  0.00    +0.217 C 
ATOM      2  O   UNL     1      12.807   4.033   4.716  0.00  0.00    -0.275 OA
ATOM      3  N   UNL     1      13.765   5.141   6.494  0.00  0.00    -0.315 N 
ATOM      4  H   UNL     1      14.497   5.026   7.184  0.00  0.00    +0.149 HD
ENDROOT
BRANCH   1   5
ATOM      5  C   UNL     1      15.098   3.543   5.191  0.00  0.00    +0.131 C 
BRANCH   5  10
ATOM      6  C   UNL     1      17.232   2.496   8.200  0.00  0.00    +0.052 A 
ATOM      7  C   UNL     1      16.516   1.386   8.661  0.00  0.00    +0.019 A 
ATOM      8  C   UNL     1      15.368   0.970   7.987  0.00  0.00    +0.002 A 
ATOM      9  C   UNL     1      14.935   1.655   6.851  0.00  0.00    +0.004 A 
ATOM     10  C   UNL     1      15.643   2.765   6.369  0.00  0.00    -0.037 A 
ATOM     11  C   UNL     1      16.792   3.185   7.061  0.00  0.00    +0.023 A 
BRANCH   6  13
ATOM     12  N   UNL     1      19.350   3.289   9.470  0.00  0.00    -0.191 NA
ATOM     13  C   UNL     1      18.400   2.935   8.905  0.00  0.00    +0.099 C 
ENDBRANCH   6  13
ENDBRANCH   5  10
ENDBRANCH   1   5
BRANCH   3  14
ATOM     14  C   UNL     1      12.475   5.595   6.982  0.00  0.00    +0.108 C 
BRANCH  14  15
ATOM     15  C   UNL     1      11.590   4.538   7.667  0.00  0.00    +0.011 C 
ATOM     16  C   UNL     1      10.486   5.136   8.535  0.00  0.00    +0.033 C 
ATOM     17  C   UNL     1      11.079   5.980   9.653  0.00  0.00    +0.161 C 
ATOM     18  O   UNL     1      12.125   5.327  10.370  0.00  0.00    -0.373 OA
ATOM     19  C   UNL     1      13.092   4.469   9.699  0.00  0.00    +0.070 C 
ATOM     20  C   UNL     1      14.470   5.090   9.279  0.00  0.00    +0.035 C 
ATOM     21  C   UNL     1      15.011   4.729  10.662  0.00  0.00    +0.006 C 
ATOM     22  C   UNL     1      13.925   3.639  10.734  0.00  0.00    +0.035 C 
ATOM     23  C   UNL     1      12.431   3.635   8.594  0.00  0.00    +0.040 C 
ENDBRANCH  14  15
ENDBRANCH   3  14
TORSDOF 5
ENDMDL
MODEL 9
REMARK VINA RESULT:      -6.8      3.414      5.259
REMARK  Name = ZINC000560333501
REMARK  5 active torsions:
REMARK  status: ('A' for Active; 'I' for Inactive)
REMARK    1  A    between atoms: C_2  and  C_3
REMARK    2  A    between atoms: C_7  and  C_8
REMARK    3  A    between atoms: C_8  and  C_9
REMARK    4  A    between atoms: N_11  and  C_12
REMARK    5  A    between atoms: C_12  and  C_13
REMARK                            x       y       z     vdW  Elec       q    Type
REMARK                         _______ _______ _______ _____ _____    ______ ____
ROOT
ATOM      1  C   UNL     1      14.723   6.531   7.336  0.00  0.00    +0.217 C 
ATOM      2  O   UNL     1      15.458   5.843   8.048  0.00  0.00    -0.275 OA
ATOM      3  N   UNL     1      14.727   6.463   5.954  0.00  0.00    -0.315 N 
ATOM      4  H   UNL     1      13.904   6.829   5.490  0.00  0.00    +0.149 HD
ENDROOT
BRANCH   1   5
ATOM      5  C   UNL     1      13.754   7.516   7.947  0.00  0.00    +0.131 C 
BRANCH   5  10
ATOM      6  C   UNL     1      10.733   6.203   9.909  0.00  0.00    +0.052 A 
ATOM      7  C   UNL     1       9.781   6.088   8.889  0.00  0.00    +0.019 A 
ATOM      8  C   UNL     1      10.127   6.411   7.577  0.00  0.00    +0.002 A 
ATOM      9  C   UNL     1      11.420   6.843   7.278  0.00  0.00    +0.004 A 
ATOM     10  C   UNL     1      12.389   6.957   8.285  0.00  0.00    -0.037 A 
ATOM     11  C   UNL     1      12.030   6.641   9.606  0.00  0.00    +0.023 A 
BRANCH   6  13
ATOM     12  N   UNL     1      10.086   5.634  12.356  0.00  0.00    -0.191 NA
ATOM     13  C   UNL     1      10.371   5.890  11.260  0.00  0.00    +0.099 C 
ENDBRANCH   6  13
ENDBRANCH   5  10
ENDBRANCH   1   5
BRANCH   3  14
ATOM     14  C   UNL     1      15.377   5.326   5.326  0.00  0.00    +0.108 C 
BRANCH  14  15
ATOM     15  C   UNL     1      14.535   4.526   4.315  0.00  0.00    +0.011 C 
ATOM     16  C   UNL     1      13.096   4.293   4.767  0.00  0.00    +0.033 C 
ATOM     17  C   UNL     1      13.063   3.502   6.065  0.00  0.00    +0.161 C 
ATOM     18  O   UNL     1      13.886   2.338   6.048  0.00  0.00    -0.373 OA
ATOM     19  C   UNL     1      15.182   2.328   5.383  0.00  0.00    +0.070 C 
ATOM     20  C   UNL     1      16.464   2.591   6.247  0.00  0.00    +0.035 C 
ATOM     21  C   UNL     1      16.528   1.092   6.539  0.00  0.00    +0.006 C 
ATOM     22  C   UNL     1      15.733   0.868   5.239  0.00  0.00    +0.035 C 
ATOM     23  C   UNL     1      15.147   3.129   4.075  0.00  0.00    +0.040 C 
ENDBRANCH  14  15
ENDBRANCH   3  14
TORSDOF 5
ENDMDL
