MODEL 1
REMARK VINA RESULT:      -6.7      0.000      0.000
REMARK  Name = ZINC000826139982
REMARK  4 active torsions:
REMARK  status: ('A' for Active; 'I' for Inactive)
REMARK    1  A    between atoms: C_2  and  C_4
REMARK    2  A    between atoms: C_8  and  C_10
REMARK    3  A    between atoms: C_14  and  S_15
REMARK    4  A    between atoms: S_15  and  C_16
REMARK                            x       y       z     vdW  Elec       q    Type
REMARK                         _______ _______ _______ _____ _____    ______ ____
ROOT
ATOM      1  C   UNL     1      30.987  21.276  15.382  0.00  0.00    +0.093 C 
ATOM      2  C   UNL     1      32.192  20.991  16.285  0.00  0.00    +0.033 C 
ATOM      3  C   UNL     1      33.274  21.963  15.834  0.00  0.00    +0.109 C 
ATOM      4  N   UNL     1      32.966  22.218  14.442  0.00  0.00    -0.297 N 
ATOM      5  C   UNL     1      33.949  22.605  13.540  0.00  0.00    +0.247 C 
ATOM      6  O   UNL     1      35.133  22.666  13.867  0.00  0.00    -0.270 OA
ATOM      7  C   UNL     1      31.527  22.137  14.247  0.00  0.00    +0.120 C 
ENDROOT
BRANCH   5   8
ATOM      8  C   UNL     1      33.609  22.891  12.107  0.00  0.00    +0.038 A 
ATOM      9  C   UNL     1      33.347  24.175  11.618  0.00  0.00    +0.013 A 
ATOM     10  C   UNL     1      32.915  24.370  10.307  0.00  0.00    +0.002 A 
ATOM     11  C   UNL     1      32.841  23.290   9.434  0.00  0.00    +0.015 A 
ATOM     12  C   UNL     1      33.231  22.017   9.859  0.00  0.00    +0.017 A 
ATOM     13  C   UNL     1      33.578  21.816  11.203  0.00  0.00    +0.028 A 
BRANCH  12  14
ATOM     14  S   UNL     1      33.251  20.645   8.723  0.00  0.00    -0.016 S 
BRANCH  14  15
ATOM     15  C   UNL     1      34.700  21.041   7.721  0.00  0.00    +0.448 C 
ATOM     16  F   UNL     1      34.594  22.203   7.034  0.00  0.00    -0.160 F 
ATOM     17  F   UNL     1      35.809  21.136   8.493  0.00  0.00    -0.160 F 
ATOM     18  F   UNL     1      34.930  20.064   6.810  0.00  0.00    -0.160 F 
ENDBRANCH  14  15
ENDBRANCH  12  14
ENDBRANCH   5   8
BRANCH   1  20
ATOM     19  N   UNL     1      29.755  23.289  15.958  0.00  0.00    -0.329 N 
ATOM     20  C   UNL     1      29.816  21.933  16.088  0.00  0.00    +0.215 C 
ATOM     21  O   UNL     1      29.001  21.346  16.784  0.00  0.00    -0.276 OA
ATOM     22  H   UNL     1      29.030  23.775  16.470  0.00  0.00    +0.145 HD
ATOM     23  H   UNL     1      30.442  23.832  15.455  0.00  0.00    +0.145 HD
ENDBRANCH   1  20
TORSDOF 4
ENDMDL
MODEL 2
REMARK VINA RESULT:      -6.3      3.659      4.116
REMARK  Name = ZINC000826139982
REMARK  4 active torsions:
REMARK  status: ('A' for Active; 'I' for Inactive)
REMARK    1  A    between atoms: C_2  and  C_4
REMARK    2  A    between atoms: C_8  and  C_10
REMARK    3  A    between atoms: C_14  and  S_15
REMARK    4  A    between atoms: S_15  and  C_16
REMARK                            x       y       z     vdW  Elec       q    Type
REMARK                         _______ _______ _______ _____ _____    ______ ____
ROOT
ATOM      1  C   UNL     1      30.268  21.529  14.548  0.00  0.00    +0.093 C 
ATOM      2  C   UNL     1      30.899  20.145  14.736  0.00  0.00    +0.033 C 
ATOM      3  C   UNL     1      32.388  20.342  14.484  0.00  0.00    +0.109 C 
ATOM      4  N   UNL     1      32.450  21.477  13.586  0.00  0.00    -0.297 N 
ATOM      5  C   UNL     1      33.519  21.659  12.717  0.00  0.00    +0.247 C 
ATOM      6  O   UNL     1      34.414  20.821  12.617  0.00  0.00    -0.270 OA
ATOM      7  C   UNL     1      31.340  22.373  13.869  0.00  0.00    +0.120 C 
ENDROOT
BRANCH   5   8
ATOM      8  C   UNL     1      33.581  22.854  11.813  0.00  0.00    +0.038 A 
ATOM      9  C   UNL     1      32.557  23.207  10.929  0.00  0.00    +0.013 A 
ATOM     10  C   UNL     1      32.719  24.255  10.024  0.00  0.00    +0.002 A 
ATOM     11  C   UNL     1      33.870  25.034  10.064  0.00  0.00    +0.015 A 
ATOM     12  C   UNL     1      34.849  24.789  11.031  0.00  0.00    +0.017 A 
ATOM     13  C   UNL     1      34.718  23.678  11.877  0.00  0.00    +0.028 A 
BRANCH  12  14
ATOM     14  S   UNL     1      36.276  25.846  11.170  0.00  0.00    -0.016 S 
BRANCH  14  15
ATOM     15  C   UNL     1      35.861  26.801  12.645  0.00  0.00    +0.448 C 
ATOM     16  F   UNL     1      36.490  27.997  12.722  0.00  0.00    -0.160 F 
ATOM     17  F   UNL     1      34.531  27.048  12.702  0.00  0.00    -0.160 F 
ATOM     18  F   UNL     1      36.187  26.111  13.766  0.00  0.00    -0.160 F 
ENDBRANCH  14  15
ENDBRANCH  12  14
ENDBRANCH   5   8
BRANCH   1  20
ATOM     19  N   UNL     1      30.195  23.445  16.040  0.00  0.00    -0.329 N 
ATOM     20  C   UNL     1      29.766  22.168  15.829  0.00  0.00    +0.215 C 
ATOM     21  O   UNL     1      29.080  21.604  16.668  0.00  0.00    -0.276 OA
ATOM     22  H   UNL     1      29.940  23.884  16.916  0.00  0.00    +0.145 HD
ATOM     23  H   UNL     1      30.821  23.933  15.415  0.00  0.00    +0.145 HD
ENDBRANCH   1  20
TORSDOF 4
ENDMDL
MODEL 3
REMARK VINA RESULT:      -6.1      5.246      7.464
REMARK  Name = ZINC000826139982
REMARK  4 active torsions:
REMARK  status: ('A' for Active; 'I' for Inactive)
REMARK    1  A    between atoms: C_2  and  C_4
REMARK    2  A    between atoms: C_8  and  C_10
REMARK    3  A    between atoms: C_14  and  S_15
REMARK    4  A    between atoms: S_15  and  C_16
REMARK                            x       y       z     vdW  Elec       q    Type
REMARK                         _______ _______ _______ _____ _____    ______ ____
ROOT
ATOM      1  C   UNL     1      34.032  22.559  10.438  0.00  0.00    +0.093 C 
ATOM      2  C   UNL     1      34.843  21.359   9.936  0.00  0.00    +0.033 C 
ATOM      3  C   UNL     1      34.168  20.135  10.538  0.00  0.00    +0.109 C 
ATOM      4  N   UNL     1      33.554  20.628  11.753  0.00  0.00    -0.297 N 
ATOM      5  C   UNL     1      33.303  19.790  12.833  0.00  0.00    +0.247 C 
ATOM      6  O   UNL     1      33.667  18.615  12.832  0.00  0.00    -0.270 OA
ATOM      7  C   UNL     1      33.159  22.015  11.562  0.00  0.00    +0.120 C 
ENDROOT
BRANCH   5   8
ATOM      8  C   UNL     1      32.641  20.312  14.074  0.00  0.00    +0.038 A 
ATOM      9  C   UNL     1      31.261  20.260  14.292  0.00  0.00    +0.013 A 
ATOM     10  C   UNL     1      30.686  20.870  15.407  0.00  0.00    +0.002 A 
ATOM     11  C   UNL     1      31.498  21.450  16.375  0.00  0.00    +0.015 A 
ATOM     12  C   UNL     1      32.890  21.391  16.250  0.00  0.00    +0.017 A 
ATOM     13  C   UNL     1      33.454  20.856  15.083  0.00  0.00    +0.028 A 
BRANCH  12  14
ATOM     14  S   UNL     1      33.946  22.027  17.535  0.00  0.00    -0.016 S 
BRANCH  14  15
ATOM     15  C   UNL     1      34.121  20.575  18.594  0.00  0.00    +0.448 C 
ATOM     16  F   UNL     1      33.645  19.432  18.047  0.00  0.00    -0.160 F 
ATOM     17  F   UNL     1      35.422  20.356  18.901  0.00  0.00    -0.160 F 
ATOM     18  F   UNL     1      33.461  20.756  19.765  0.00  0.00    -0.160 F 
ENDBRANCH  14  15
ENDBRANCH  12  14
ENDBRANCH   5   8
BRANCH   1  20
ATOM     19  N   UNL     1      33.442  22.817   8.096  0.00  0.00    -0.329 N 
ATOM     20  C   UNL     1      33.213  23.255   9.367  0.00  0.00    +0.215 C 
ATOM     21  O   UNL     1      32.445  24.183   9.568  0.00  0.00    -0.276 OA
ATOM     22  H   UNL     1      32.968  23.301   7.343  0.00  0.00    +0.145 HD
ATOM     23  H   UNL     1      34.118  22.104   7.865  0.00  0.00    +0.145 HD
ENDBRANCH   1  20
TORSDOF 4
ENDMDL
MODEL 4
REMARK VINA RESULT:      -6.0      4.088      5.646
REMARK  Name = ZINC000826139982
REMARK  4 active torsions:
REMARK  status: ('A' for Active; 'I' for Inactive)
REMARK    1  A    between atoms: C_2  and  C_4
REMARK    2  A    between atoms: C_8  and  C_10
REMARK    3  A    between atoms: C_14  and  S_15
REMARK    4  A    between atoms: S_15  and  C_16
REMARK                            x       y       z     vdW  Elec       q    Type
REMARK                         _______ _______ _______ _____ _____    ______ ____
ROOT
ATOM      1  C   UNL     1      35.817  19.037  17.362  0.00  0.00    +0.093 C 
ATOM      2  C   UNL     1      36.532  20.114  18.186  0.00  0.00    +0.033 C 
ATOM      3  C   UNL     1      35.450  21.116  18.566  0.00  0.00    +0.109 C 
ATOM      4  N   UNL     1      34.468  20.998  17.508  0.00  0.00    -0.297 N 
ATOM      5  C   UNL     1      33.622  22.051  17.181  0.00  0.00    +0.247 C 
ATOM      6  O   UNL     1      33.728  23.152  17.721  0.00  0.00    -0.270 OA
ATOM      7  C   UNL     1      34.458  19.631  17.014  0.00  0.00    +0.120 C 
ENDROOT
BRANCH   5   8
ATOM      8  C   UNL     1      32.592  21.903  16.101  0.00  0.00    +0.038 A 
ATOM      9  C   UNL     1      31.255  21.578  16.350  0.00  0.00    +0.013 A 
ATOM     10  C   UNL     1      30.369  21.331  15.302  0.00  0.00    +0.002 A 
ATOM     11  C   UNL     1      30.783  21.512  13.987  0.00  0.00    +0.015 A 
ATOM     12  C   UNL     1      32.075  21.972  13.716  0.00  0.00    +0.017 A 
ATOM     13  C   UNL     1      32.985  22.130  14.771  0.00  0.00    +0.028 A 
BRANCH  12  14
ATOM     14  S   UNL     1      32.586  22.318  12.045  0.00  0.00    -0.016 S 
BRANCH  14  15
ATOM     15  C   UNL     1      32.416  24.114  11.991  0.00  0.00    +0.448 C 
ATOM     16  F   UNL     1      33.534  24.785  12.353  0.00  0.00    -0.160 F 
ATOM     17  F   UNL     1      32.089  24.531  10.744  0.00  0.00    -0.160 F 
ATOM     18  F   UNL     1      31.424  24.524  12.821  0.00  0.00    -0.160 F 
ENDBRANCH  14  15
ENDBRANCH  12  14
ENDBRANCH   5   8
BRANCH   1  20
ATOM     19  N   UNL     1      36.802  17.301  18.747  0.00  0.00    -0.329 N 
ATOM     20  C   UNL     1      35.692  17.695  18.059  0.00  0.00    +0.215 C 
ATOM     21  O   UNL     1      34.719  16.959  17.987  0.00  0.00    -0.276 OA
ATOM     22  H   UNL     1      36.786  16.380  19.169  0.00  0.00    +0.145 HD
ATOM     23  H   UNL     1      37.657  17.836  18.779  0.00  0.00    +0.145 HD
ENDBRANCH   1  20
TORSDOF 4
ENDMDL
MODEL 5
REMARK VINA RESULT:      -6.0      4.840      7.704
REMARK  Name = ZINC000826139982
REMARK  4 active torsions:
REMARK  status: ('A' for Active; 'I' for Inactive)
REMARK    1  A    between atoms: C_2  and  C_4
REMARK    2  A    between atoms: C_8  and  C_10
REMARK    3  A    between atoms: C_14  and  S_15
REMARK    4  A    between atoms: S_15  and  C_16
REMARK                            x       y       z     vdW  Elec       q    Type
REMARK                         _______ _______ _______ _____ _____    ______ ____
ROOT
ATOM      1  C   UNL     1      36.572  22.450   7.350  0.00  0.00    +0.093 C 
ATOM      2  C   UNL     1      36.485  20.982   6.917  0.00  0.00    +0.033 C 
ATOM      3  C   UNL     1      35.051  20.559   7.209  0.00  0.00    +0.109 C 
ATOM      4  N   UNL     1      34.641  21.421   8.298  0.00  0.00    -0.297 N 
ATOM      5  C   UNL     1      33.647  21.040   9.191  0.00  0.00    +0.247 C 
ATOM      6  O   UNL     1      33.135  19.922   9.143  0.00  0.00    -0.270 OA
ATOM      7  C   UNL     1      35.317  22.702   8.177  0.00  0.00    +0.120 C 
ENDROOT
BRANCH   5   8
ATOM      8  C   UNL     1      33.214  21.956  10.298  0.00  0.00    +0.038 A 
ATOM      9  C   UNL     1      32.747  23.256  10.085  0.00  0.00    +0.013 A 
ATOM     10  C   UNL     1      32.476  24.106  11.156  0.00  0.00    +0.002 A 
ATOM     11  C   UNL     1      32.567  23.630  12.459  0.00  0.00    +0.015 A 
ATOM     12  C   UNL     1      32.898  22.293  12.695  0.00  0.00    +0.017 A 
ATOM     13  C   UNL     1      33.255  21.471  11.617  0.00  0.00    +0.028 A 
BRANCH  12  14
ATOM     14  S   UNL     1      32.908  21.637  14.351  0.00  0.00    -0.016 S 
BRANCH  14  15
ATOM     15  C   UNL     1      31.296  20.826  14.417  0.00  0.00    +0.448 C 
ATOM     16  F   UNL     1      30.322  21.480  13.742  0.00  0.00    -0.160 F 
ATOM     17  F   UNL     1      31.365  19.575  13.903  0.00  0.00    -0.160 F 
ATOM     18  F   UNL     1      30.875  20.707  15.700  0.00  0.00    -0.160 F 
ENDBRANCH  14  15
ENDBRANCH  12  14
ENDBRANCH   5   8
BRANCH   1  20
ATOM     19  N   UNL     1      37.143  24.676   6.562  0.00  0.00    -0.329 N 
ATOM     20  C   UNL     1      36.708  23.434   6.203  0.00  0.00    +0.215 C 
ATOM     21  O   UNL     1      36.402  23.201   5.044  0.00  0.00    -0.276 OA
ATOM     22  H   UNL     1      37.182  25.383   5.839  0.00  0.00    +0.145 HD
ATOM     23  H   UNL     1      37.341  24.944   7.516  0.00  0.00    +0.145 HD
ENDBRANCH   1  20
TORSDOF 4
ENDMDL
MODEL 6
REMARK VINA RESULT:      -6.0      2.691      3.382
REMARK  Name = ZINC000826139982
REMARK  4 active torsions:
REMARK  status: ('A' for Active; 'I' for Inactive)
REMARK    1  A    between atoms: C_2  and  C_4
REMARK    2  A    between atoms: C_8  and  C_10
REMARK    3  A    between atoms: C_14  and  S_15
REMARK    4  A    between atoms: S_15  and  C_16
REMARK                            x       y       z     vdW  Elec       q    Type
REMARK                         _______ _______ _______ _____ _____    ______ ____
ROOT
ATOM      1  C   UNL     1      30.729  21.275  14.790  0.00  0.00    +0.093 C 
ATOM      2  C   UNL     1      31.305  21.079  16.197  0.00  0.00    +0.033 C 
ATOM      3  C   UNL     1      32.805  20.901  15.999  0.00  0.00    +0.109 C 
ATOM      4  N   UNL     1      32.924  20.350  14.665  0.00  0.00    -0.297 N 
ATOM      5  C   UNL     1      34.014  19.572  14.295  0.00  0.00    +0.247 C 
ATOM      6  O   UNL     1      34.880  19.251  15.109  0.00  0.00    -0.270 OA
ATOM      7  C   UNL     1      31.844  20.861  13.836  0.00  0.00    +0.120 C 
ENDROOT
BRANCH   5   8
ATOM      8  C   UNL     1      34.137  19.032  12.901  0.00  0.00    +0.038 A 
ATOM      9  C   UNL     1      33.903  17.694  12.568  0.00  0.00    +0.013 A 
ATOM     10  C   UNL     1      34.152  17.220  11.281  0.00  0.00    +0.002 A 
ATOM     11  C   UNL     1      34.538  18.104  10.279  0.00  0.00    +0.015 A 
ATOM     12  C   UNL     1      34.643  19.471  10.553  0.00  0.00    +0.017 A 
ATOM     13  C   UNL     1      34.478  19.924  11.870  0.00  0.00    +0.028 A 
BRANCH  12  14
ATOM     14  S   UNL     1      35.024  20.631   9.257  0.00  0.00    -0.016 S 
BRANCH  14  15
ATOM     15  C   UNL     1      33.374  21.211   8.809  0.00  0.00    +0.448 C 
ATOM     16  F   UNL     1      32.722  21.847   9.812  0.00  0.00    -0.160 F 
ATOM     17  F   UNL     1      33.432  22.072   7.765  0.00  0.00    -0.160 F 
ATOM     18  F   UNL     1      32.591  20.172   8.426  0.00  0.00    -0.160 F 
ENDBRANCH  14  15
ENDBRANCH  12  14
ENDBRANCH   5   8
BRANCH   1  20
ATOM     19  N   UNL     1      29.883  23.397  15.613  0.00  0.00    -0.329 N 
ATOM     20  C   UNL     1      30.228  22.679  14.507  0.00  0.00    +0.215 C 
ATOM     21  O   UNL     1      30.069  23.152  13.392  0.00  0.00    -0.276 OA
ATOM     22  H   UNL     1      29.478  24.314  15.466  0.00  0.00    +0.145 HD
ATOM     23  H   UNL     1      29.926  23.030  16.553  0.00  0.00    +0.145 HD
ENDBRANCH   1  20
TORSDOF 4
ENDMDL
MODEL 7
REMARK VINA RESULT:      -5.9      4.805      7.126
REMARK  Name = ZINC000826139982
REMARK  4 active torsions:
REMARK  status: ('A' for Active; 'I' for Inactive)
REMARK    1  A    between atoms: C_2  and  C_4
REMARK    2  A    between atoms: C_8  and  C_10
REMARK    3  A    between atoms: C_14  and  S_15
REMARK    4  A    between atoms: S_15  and  C_16
REMARK                            x       y       z     vdW  Elec       q    Type
REMARK                         _______ _______ _______ _____ _____    ______ ____
ROOT
ATOM      1  C   UNL     1      35.771  25.547  11.499  0.00  0.00    +0.093 C 
ATOM      2  C   UNL     1      36.023  24.662  10.274  0.00  0.00    +0.033 C 
ATOM      3  C   UNL     1      34.658  24.109   9.887  0.00  0.00    +0.109 C 
ATOM      4  N   UNL     1      33.914  24.097  11.129  0.00  0.00    -0.297 N 
ATOM      5  C   UNL     1      32.860  23.216  11.336  0.00  0.00    +0.247 C 
ATOM      6  O   UNL     1      32.570  22.355  10.506  0.00  0.00    -0.270 OA
ATOM      7  C   UNL     1      34.364  25.196  11.968  0.00  0.00    +0.120 C 
ENDROOT
BRANCH   5   8
ATOM      8  C   UNL     1      32.081  23.235  12.618  0.00  0.00    +0.038 A 
ATOM      9  C   UNL     1      31.047  24.139  12.879  0.00  0.00    +0.013 A 
ATOM     10  C   UNL     1      30.440  24.195  14.133  0.00  0.00    +0.002 A 
ATOM     11  C   UNL     1      30.788  23.272  15.113  0.00  0.00    +0.015 A 
ATOM     12  C   UNL     1      31.721  22.269  14.831  0.00  0.00    +0.017 A 
ATOM     13  C   UNL     1      32.390  22.277  13.599  0.00  0.00    +0.028 A 
BRANCH  12  14
ATOM     14  S   UNL     1      32.095  21.011  16.035  0.00  0.00    -0.016 S 
BRANCH  14  15
ATOM     15  C   UNL     1      33.324  21.855  17.053  0.00  0.00    +0.448 C 
ATOM     16  F   UNL     1      33.005  23.135  17.355  0.00  0.00    -0.160 F 
ATOM     17  F   UNL     1      33.508  21.204  18.227  0.00  0.00    -0.160 F 
ATOM     18  F   UNL     1      34.525  21.886  16.423  0.00  0.00    -0.160 F 
ENDBRANCH  14  15
ENDBRANCH  12  14
ENDBRANCH   5   8
BRANCH   1  20
ATOM     19  N   UNL     1      35.772  27.826  12.341  0.00  0.00    -0.329 N 
ATOM     20  C   UNL     1      35.933  27.034  11.243  0.00  0.00    +0.215 C 
ATOM     21  O   UNL     1      36.129  27.535  10.147  0.00  0.00    -0.276 OA
ATOM     22  H   UNL     1      35.804  28.828  12.202  0.00  0.00    +0.145 HD
ATOM     23  H   UNL     1      35.538  27.469  13.257  0.00  0.00    +0.145 HD
ENDBRANCH   1  20
TORSDOF 4
ENDMDL
MODEL 8
REMARK VINA RESULT:      -5.9      5.055      5.634
REMARK  Name = ZINC000826139982
REMARK  4 active torsions:
REMARK  status: ('A' for Active; 'I' for Inactive)
REMARK    1  A    between atoms: C_2  and  C_4
REMARK    2  A    between atoms: C_8  and  C_10
REMARK    3  A    between atoms: C_14  and  S_15
REMARK    4  A    between atoms: S_15  and  C_16
REMARK                            x       y       z     vdW  Elec       q    Type
REMARK                         _______ _______ _______ _____ _____    ______ ____
ROOT
ATOM      1  C   UNL     1      30.919  21.010  15.031  0.00  0.00    +0.093 C 
ATOM      2  C   UNL     1      31.657  21.173  16.364  0.00  0.00    +0.033 C 
ATOM      3  C   UNL     1      33.133  20.994  16.034  0.00  0.00    +0.109 C 
ATOM      4  N   UNL     1      33.134  20.143  14.862  0.00  0.00    -0.297 N 
ATOM      5  C   UNL     1      34.218  19.329  14.557  0.00  0.00    +0.247 C 
ATOM      6  O   UNL     1      35.185  19.236  15.313  0.00  0.00    -0.270 OA
ATOM      7  C   UNL     1      31.942  20.411  14.074  0.00  0.00    +0.120 C 
ENDROOT
BRANCH   5   8
ATOM      8  C   UNL     1      34.215  18.474  13.324  0.00  0.00    +0.038 A 
ATOM      9  C   UNL     1      34.136  18.990  12.027  0.00  0.00    +0.013 A 
ATOM     10  C   UNL     1      34.012  18.147  10.924  0.00  0.00    +0.002 A 
ATOM     11  C   UNL     1      34.072  16.768  11.096  0.00  0.00    +0.015 A 
ATOM     12  C   UNL     1      34.290  16.229  12.367  0.00  0.00    +0.017 A 
ATOM     13  C   UNL     1      34.324  17.081  13.480  0.00  0.00    +0.028 A 
BRANCH  12  14
ATOM     14  S   UNL     1      34.483  14.472  12.589  0.00  0.00    -0.016 S 
BRANCH  14  15
ATOM     15  C   UNL     1      32.762  13.930  12.605  0.00  0.00    +0.448 C 
ATOM     16  F   UNL     1      32.577  12.694  13.127  0.00  0.00    -0.160 F 
ATOM     17  F   UNL     1      31.993  14.783  13.323  0.00  0.00    -0.160 F 
ATOM     18  F   UNL     1      32.259  13.904  11.346  0.00  0.00    -0.160 F 
ENDBRANCH  14  15
ENDBRANCH  12  14
ENDBRANCH   5   8
BRANCH   1  20
ATOM     19  N   UNL     1      29.831  23.143  15.438  0.00  0.00    -0.329 N 
ATOM     20  C   UNL     1      30.313  22.291  14.489  0.00  0.00    +0.215 C 
ATOM     21  O   UNL     1      30.186  22.557  13.303  0.00  0.00    -0.276 OA
ATOM     22  H   UNL     1      29.356  23.978  15.118  0.00  0.00    +0.145 HD
ATOM     23  H   UNL     1      29.845  22.942  16.428  0.00  0.00    +0.145 HD
ENDBRANCH   1  20
TORSDOF 4
ENDMDL
MODEL 9
REMARK VINA RESULT:      -5.8      3.146      4.402
REMARK  Name = ZINC000826139982
REMARK  4 active torsions:
REMARK  status: ('A' for Active; 'I' for Inactive)
REMARK    1  A    between atoms: C_2  and  C_4
REMARK    2  A    between atoms: C_8  and  C_10
REMARK    3  A    between atoms: C_14  and  S_15
REMARK    4  A    between atoms: S_15  and  C_16
REMARK                            x       y       z     vdW  Elec       q    Type
REMARK                         _______ _______ _______ _____ _____    ______ ____
ROOT
ATOM      1  C   UNL     1      33.967  21.068  18.511  0.00  0.00    +0.093 C 
ATOM      2  C   UNL     1      33.983  19.549  18.303  0.00  0.00    +0.033 C 
ATOM      3  C   UNL     1      34.086  19.349  16.797  0.00  0.00    +0.109 C 
ATOM      4  N   UNL     1      33.480  20.539  16.237  0.00  0.00    -0.297 N 
ATOM      5  C   UNL     1      32.906  20.536  14.972  0.00  0.00    +0.247 C 
ATOM      6  O   UNL     1      32.814  19.502  14.311  0.00  0.00    -0.270 OA
ATOM      7  C   UNL     1      33.714  21.662  17.131  0.00  0.00    +0.120 C 
ENDROOT
BRANCH   5   8
ATOM      8  C   UNL     1      32.307  21.784  14.396  0.00  0.00    +0.038 A 
ATOM      9  C   UNL     1      31.064  22.294  14.784  0.00  0.00    +0.013 A 
ATOM     10  C   UNL     1      30.499  23.387  14.128  0.00  0.00    +0.002 A 
ATOM     11  C   UNL     1      31.220  24.052  13.142  0.00  0.00    +0.015 A 
ATOM     12  C   UNL     1      32.522  23.648  12.832  0.00  0.00    +0.017 A 
ATOM     13  C   UNL     1      33.046  22.494  13.434  0.00  0.00    +0.028 A 
BRANCH  12  14
ATOM     14  S   UNL     1      33.502  24.557  11.655  0.00  0.00    -0.016 S 
BRANCH  14  15
ATOM     15  C   UNL     1      32.918  23.855  10.098  0.00  0.00    +0.448 C 
ATOM     16  F   UNL     1      32.376  22.620  10.218  0.00  0.00    -0.160 F 
ATOM     17  F   UNL     1      31.976  24.649   9.534  0.00  0.00    -0.160 F 
ATOM     18  F   UNL     1      33.937  23.753   9.209  0.00  0.00    -0.160 F 
ENDBRANCH  14  15
ENDBRANCH  12  14
ENDBRANCH   5   8
BRANCH   1  20
ATOM     19  N   UNL     1      35.099  22.885  19.659  0.00  0.00    -0.329 N 
ATOM     20  C   UNL     1      35.225  21.626  19.151  0.00  0.00    +0.215 C 
ATOM     21  O   UNL     1      36.305  21.057  19.178  0.00  0.00    -0.276 OA
ATOM     22  H   UNL     1      35.932  23.322  20.033  0.00  0.00    +0.145 HD
ATOM     23  H   UNL     1      34.250  23.428  19.600  0.00  0.00    +0.145 HD
ENDBRANCH   1  20
TORSDOF 4
ENDMDL
