MODEL 1
REMARK VINA RESULT:      -6.6      0.000      0.000
REMARK  Name = ZINC000826139982
REMARK  4 active torsions:
REMARK  status: ('A' for Active; 'I' for Inactive)
REMARK    1  A    between atoms: C_2  and  C_4
REMARK    2  A    between atoms: C_8  and  C_10
REMARK    3  A    between atoms: C_14  and  S_15
REMARK    4  A    between atoms: S_15  and  C_16
REMARK                            x       y       z     vdW  Elec       q    Type
REMARK                         _______ _______ _______ _____ _____    ______ ____
ROOT
ATOM      1  C   UNL     1      30.333  22.730  19.277  0.00  0.00    +0.093 C 
ATOM      2  C   UNL     1      28.841  22.906  19.577  0.00  0.00    +0.033 C 
ATOM      3  C   UNL     1      28.152  21.724  18.910  0.00  0.00    +0.109 C 
ATOM      4  N   UNL     1      29.029  21.375  17.811  0.00  0.00    -0.297 N 
ATOM      5  C   UNL     1      28.551  20.734  16.675  0.00  0.00    +0.247 C 
ATOM      6  O   UNL     1      27.350  20.512  16.520  0.00  0.00    -0.270 OA
ATOM      7  C   UNL     1      30.403  21.674  18.181  0.00  0.00    +0.120 C 
ENDROOT
BRANCH   5   8
ATOM      8  C   UNL     1      29.477  20.355  15.557  0.00  0.00    +0.038 A 
ATOM      9  C   UNL     1      29.662  21.133  14.410  0.00  0.00    +0.013 A 
ATOM     10  C   UNL     1      30.439  20.674  13.348  0.00  0.00    +0.002 A 
ATOM     11  C   UNL     1      31.131  19.474  13.464  0.00  0.00    +0.015 A 
ATOM     12  C   UNL     1      31.075  18.744  14.655  0.00  0.00    +0.017 A 
ATOM     13  C   UNL     1      30.220  19.169  15.683  0.00  0.00    +0.028 A 
BRANCH  12  14
ATOM     14  S   UNL     1      32.044  17.264  14.863  0.00  0.00    -0.016 S 
BRANCH  14  15
ATOM     15  C   UNL     1      31.471  16.272  13.468  0.00  0.00    +0.448 C 
ATOM     16  F   UNL     1      31.898  16.715  12.262  0.00  0.00    -0.160 F 
ATOM     17  F   UNL     1      31.884  14.987  13.588  0.00  0.00    -0.160 F 
ATOM     18  F   UNL     1      30.115  16.252  13.422  0.00  0.00    -0.160 F 
ENDBRANCH  14  15
ENDBRANCH  12  14
ENDBRANCH   5   8
BRANCH   1  20
ATOM     19  N   UNL     1      30.746  22.883  21.666  0.00  0.00    -0.329 N 
ATOM     20  C   UNL     1      31.176  22.358  20.483  0.00  0.00    +0.215 C 
ATOM     21  O   UNL     1      32.202  21.697  20.440  0.00  0.00    -0.276 OA
ATOM     22  H   UNL     1      31.318  22.716  22.485  0.00  0.00    +0.145 HD
ATOM     23  H   UNL     1      29.946  23.494  21.747  0.00  0.00    +0.145 HD
ENDBRANCH   1  20
TORSDOF 4
ENDMDL
MODEL 2
REMARK VINA RESULT:      -6.3      3.192      3.825
REMARK  Name = ZINC000826139982
REMARK  4 active torsions:
REMARK  status: ('A' for Active; 'I' for Inactive)
REMARK    1  A    between atoms: C_2  and  C_4
REMARK    2  A    between atoms: C_8  and  C_10
REMARK    3  A    between atoms: C_14  and  S_15
REMARK    4  A    between atoms: S_15  and  C_16
REMARK                            x       y       z     vdW  Elec       q    Type
REMARK                         _______ _______ _______ _____ _____    ______ ____
ROOT
ATOM      1  C   UNL     1      30.432  22.712  19.308  0.00  0.00    +0.093 C 
ATOM      2  C   UNL     1      28.921  22.827  19.540  0.00  0.00    +0.033 C 
ATOM      3  C   UNL     1      28.298  21.713  18.711  0.00  0.00    +0.109 C 
ATOM      4  N   UNL     1      29.243  21.501  17.633  0.00  0.00    -0.297 N 
ATOM      5  C   UNL     1      28.843  20.979  16.409  0.00  0.00    +0.247 C 
ATOM      6  O   UNL     1      27.659  20.754  16.162  0.00  0.00    -0.270 OA
ATOM      7  C   UNL     1      30.587  21.782  18.111  0.00  0.00    +0.120 C 
ENDROOT
BRANCH   5   8
ATOM      8  C   UNL     1      29.838  20.741  15.312  0.00  0.00    +0.038 A 
ATOM      9  C   UNL     1      30.020  19.501  14.691  0.00  0.00    +0.013 A 
ATOM     10  C   UNL     1      31.043  19.304  13.765  0.00  0.00    +0.002 A 
ATOM     11  C   UNL     1      31.834  20.377  13.367  0.00  0.00    +0.015 A 
ATOM     12  C   UNL     1      31.582  21.657  13.869  0.00  0.00    +0.017 A 
ATOM     13  C   UNL     1      30.610  21.827  14.866  0.00  0.00    +0.028 A 
BRANCH  12  14
ATOM     14  S   UNL     1      32.509  23.062  13.285  0.00  0.00    -0.016 S 
BRANCH  14  15
ATOM     15  C   UNL     1      31.525  23.562  11.857  0.00  0.00    +0.448 C 
ATOM     16  F   UNL     1      31.393  24.902  11.720  0.00  0.00    -0.160 F 
ATOM     17  F   UNL     1      32.072  23.098  10.708  0.00  0.00    -0.160 F 
ATOM     18  F   UNL     1      30.273  23.048  11.937  0.00  0.00    -0.160 F 
ENDBRANCH  14  15
ENDBRANCH  12  14
ENDBRANCH   5   8
BRANCH   1  20
ATOM     19  N   UNL     1      30.817  22.751  21.706  0.00  0.00    -0.329 N 
ATOM     20  C   UNL     1      31.215  22.225  20.513  0.00  0.00    +0.215 C 
ATOM     21  O   UNL     1      32.176  21.472  20.463  0.00  0.00    -0.276 OA
ATOM     22  H   UNL     1      31.357  22.507  22.527  0.00  0.00    +0.145 HD
ATOM     23  H   UNL     1      30.077  23.432  21.796  0.00  0.00    +0.145 HD
ENDBRANCH   1  20
TORSDOF 4
ENDMDL
MODEL 3
REMARK VINA RESULT:      -6.3      4.685      6.635
REMARK  Name = ZINC000826139982
REMARK  4 active torsions:
REMARK  status: ('A' for Active; 'I' for Inactive)
REMARK    1  A    between atoms: C_2  and  C_4
REMARK    2  A    between atoms: C_8  and  C_10
REMARK    3  A    between atoms: C_14  and  S_15
REMARK    4  A    between atoms: S_15  and  C_16
REMARK                            x       y       z     vdW  Elec       q    Type
REMARK                         _______ _______ _______ _____ _____    ______ ____
ROOT
ATOM      1  C   UNL     1      31.501  17.290  15.641  0.00  0.00    +0.093 C 
ATOM      2  C   UNL     1      30.867  17.361  14.247  0.00  0.00    +0.033 C 
ATOM      3  C   UNL     1      30.604  18.840  13.996  0.00  0.00    +0.109 C 
ATOM      4  N   UNL     1      30.436  19.400  15.321  0.00  0.00    -0.297 N 
ATOM      5  C   UNL     1      29.688  20.552  15.534  0.00  0.00    +0.247 C 
ATOM      6  O   UNL     1      29.070  21.094  14.618  0.00  0.00    -0.270 OA
ATOM      7  C   UNL     1      31.261  18.660  16.263  0.00  0.00    +0.120 C 
ENDROOT
BRANCH   5   8
ATOM      8  C   UNL     1      29.547  21.135  16.909  0.00  0.00    +0.038 A 
ATOM      9  C   UNL     1      28.373  21.057  17.663  0.00  0.00    +0.013 A 
ATOM     10  C   UNL     1      28.257  21.723  18.883  0.00  0.00    +0.002 A 
ATOM     11  C   UNL     1      29.354  22.391  19.415  0.00  0.00    +0.015 A 
ATOM     12  C   UNL     1      30.581  22.367  18.746  0.00  0.00    +0.017 A 
ATOM     13  C   UNL     1      30.663  21.771  17.479  0.00  0.00    +0.028 A 
BRANCH  12  14
ATOM     14  S   UNL     1      32.025  23.120  19.467  0.00  0.00    -0.016 S 
BRANCH  14  15
ATOM     15  C   UNL     1      32.677  21.755  20.452  0.00  0.00    +0.448 C 
ATOM     16  F   UNL     1      32.907  20.624  19.744  0.00  0.00    -0.160 F 
ATOM     17  F   UNL     1      33.848  22.100  21.039  0.00  0.00    -0.160 F 
ATOM     18  F   UNL     1      31.814  21.429  21.445  0.00  0.00    -0.160 F 
ENDBRANCH  14  15
ENDBRANCH  12  14
ENDBRANCH   5   8
BRANCH   1  20
ATOM     19  N   UNL     1      33.219  15.578  15.774  0.00  0.00    -0.329 N 
ATOM     20  C   UNL     1      32.970  16.912  15.642  0.00  0.00    +0.215 C 
ATOM     21  O   UNL     1      33.896  17.709  15.595  0.00  0.00    -0.276 OA
ATOM     22  H   UNL     1      34.186  15.289  15.850  0.00  0.00    +0.145 HD
ATOM     23  H   UNL     1      32.494  14.884  15.889  0.00  0.00    +0.145 HD
ENDBRANCH   1  20
TORSDOF 4
ENDMDL
MODEL 4
REMARK VINA RESULT:      -6.1      4.738      6.874
REMARK  Name = ZINC000826139982
REMARK  4 active torsions:
REMARK  status: ('A' for Active; 'I' for Inactive)
REMARK    1  A    between atoms: C_2  and  C_4
REMARK    2  A    between atoms: C_8  and  C_10
REMARK    3  A    between atoms: C_14  and  S_15
REMARK    4  A    between atoms: S_15  and  C_16
REMARK                            x       y       z     vdW  Elec       q    Type
REMARK                         _______ _______ _______ _____ _____    ______ ____
ROOT
ATOM      1  C   UNL     1      30.941  17.596  14.420  0.00  0.00    +0.093 C 
ATOM      2  C   UNL     1      31.607  18.446  13.333  0.00  0.00    +0.033 C 
ATOM      3  C   UNL     1      31.655  19.860  13.898  0.00  0.00    +0.109 C 
ATOM      4  N   UNL     1      30.539  19.912  14.819  0.00  0.00    -0.297 N 
ATOM      5  C   UNL     1      29.916  21.112  15.138  0.00  0.00    +0.247 C 
ATOM      6  O   UNL     1      30.232  22.166  14.587  0.00  0.00    -0.270 OA
ATOM      7  C   UNL     1      30.331  18.594  15.396  0.00  0.00    +0.120 C 
ENDROOT
BRANCH   5   8
ATOM      8  C   UNL     1      28.778  21.153  16.115  0.00  0.00    +0.038 A 
ATOM      9  C   UNL     1      27.456  20.851  15.774  0.00  0.00    +0.013 A 
ATOM     10  C   UNL     1      26.420  21.025  16.691  0.00  0.00    +0.002 A 
ATOM     11  C   UNL     1      26.707  21.403  17.997  0.00  0.00    +0.015 A 
ATOM     12  C   UNL     1      28.034  21.576  18.402  0.00  0.00    +0.017 A 
ATOM     13  C   UNL     1      29.061  21.486  17.451  0.00  0.00    +0.028 A 
BRANCH  12  14
ATOM     14  S   UNL     1      28.427  21.949  20.099  0.00  0.00    -0.016 S 
BRANCH  14  15
ATOM     15  C   UNL     1      30.014  22.790  19.914  0.00  0.00    +0.448 C 
ATOM     16  F   UNL     1      31.021  21.985  19.503  0.00  0.00    -0.160 F 
ATOM     17  F   UNL     1      29.922  23.801  19.017  0.00  0.00    -0.160 F 
ATOM     18  F   UNL     1      30.402  23.338  21.092  0.00  0.00    -0.160 F 
ENDBRANCH  14  15
ENDBRANCH  12  14
ENDBRANCH   5   8
BRANCH   1  20
ATOM     19  N   UNL     1      32.737  15.966  14.281  0.00  0.00    -0.329 N 
ATOM     20  C   UNL     1      31.874  16.619  15.110  0.00  0.00    +0.215 C 
ATOM     21  O   UNL     1      31.850  16.355  16.303  0.00  0.00    -0.276 OA
ATOM     22  H   UNL     1      33.330  15.255  14.690  0.00  0.00    +0.145 HD
ATOM     23  H   UNL     1      32.751  16.092  13.279  0.00  0.00    +0.145 HD
ENDBRANCH   1  20
TORSDOF 4
ENDMDL
MODEL 5
REMARK VINA RESULT:      -6.1      5.247      7.329
REMARK  Name = ZINC000826139982
REMARK  4 active torsions:
REMARK  status: ('A' for Active; 'I' for Inactive)
REMARK    1  A    between atoms: C_2  and  C_4
REMARK    2  A    between atoms: C_8  and  C_10
REMARK    3  A    between atoms: C_14  and  S_15
REMARK    4  A    between atoms: S_15  and  C_16
REMARK                            x       y       z     vdW  Elec       q    Type
REMARK                         _______ _______ _______ _____ _____    ______ ____
ROOT
ATOM      1  C   UNL     1      32.303  22.817  12.904  0.00  0.00    +0.093 C 
ATOM      2  C   UNL     1      33.012  21.525  12.479  0.00  0.00    +0.033 C 
ATOM      3  C   UNL     1      32.258  20.402  13.177  0.00  0.00    +0.109 C 
ATOM      4  N   UNL     1      31.706  21.027  14.361  0.00  0.00    -0.297 N 
ATOM      5  C   UNL     1      31.412  20.290  15.502  0.00  0.00    +0.247 C 
ATOM      6  O   UNL     1      31.686  19.093  15.581  0.00  0.00    -0.270 OA
ATOM      7  C   UNL     1      31.413  22.422  14.075  0.00  0.00    +0.120 C 
ENDROOT
BRANCH   5   8
ATOM      8  C   UNL     1      30.814  20.948  16.711  0.00  0.00    +0.038 A 
ATOM      9  C   UNL     1      29.460  20.860  17.046  0.00  0.00    +0.013 A 
ATOM     10  C   UNL     1      28.934  21.592  18.110  0.00  0.00    +0.002 A 
ATOM     11  C   UNL     1      29.780  22.341  18.921  0.00  0.00    +0.015 A 
ATOM     12  C   UNL     1      31.159  22.334  18.691  0.00  0.00    +0.017 A 
ATOM     13  C   UNL     1      31.666  21.668  17.566  0.00  0.00    +0.028 A 
BRANCH  12  14
ATOM     14  S   UNL     1      32.268  23.195  19.786  0.00  0.00    -0.016 S 
BRANCH  14  15
ATOM     15  C   UNL     1      31.960  22.335  21.344  0.00  0.00    +0.448 C 
ATOM     16  F   UNL     1      30.779  22.653  21.925  0.00  0.00    -0.160 F 
ATOM     17  F   UNL     1      31.965  20.993  21.163  0.00  0.00    -0.160 F 
ATOM     18  F   UNL     1      32.932  22.619  22.245  0.00  0.00    -0.160 F 
ENDBRANCH  14  15
ENDBRANCH  12  14
ENDBRANCH   5   8
BRANCH   1  20
ATOM     19  N   UNL     1      30.368  24.103  12.196  0.00  0.00    -0.329 N 
ATOM     20  C   UNL     1      31.520  23.495  11.795  0.00  0.00    +0.215 C 
ATOM     21  O   UNL     1      31.824  23.472  10.612  0.00  0.00    -0.276 OA
ATOM     22  H   UNL     1      29.780  24.508  11.479  0.00  0.00    +0.145 HD
ATOM     23  H   UNL     1      30.033  24.090  13.149  0.00  0.00    +0.145 HD
ENDBRANCH   1  20
TORSDOF 4
ENDMDL
MODEL 6
REMARK VINA RESULT:      -6.1      1.641      2.761
REMARK  Name = ZINC000826139982
REMARK  4 active torsions:
REMARK  status: ('A' for Active; 'I' for Inactive)
REMARK    1  A    between atoms: C_2  and  C_4
REMARK    2  A    between atoms: C_8  and  C_10
REMARK    3  A    between atoms: C_14  and  S_15
REMARK    4  A    between atoms: S_15  and  C_16
REMARK                            x       y       z     vdW  Elec       q    Type
REMARK                         _______ _______ _______ _____ _____    ______ ____
ROOT
ATOM      1  C   UNL     1      27.977  21.851  19.458  0.00  0.00    +0.093 C 
ATOM      2  C   UNL     1      29.070  22.672  20.151  0.00  0.00    +0.033 C 
ATOM      3  C   UNL     1      29.987  23.149  19.033  0.00  0.00    +0.109 C 
ATOM      4  N   UNL     1      29.841  22.144  18.000  0.00  0.00    -0.297 N 
ATOM      5  C   UNL     1      30.846  21.905  17.071  0.00  0.00    +0.247 C 
ATOM      6  O   UNL     1      31.933  22.477  17.139  0.00  0.00    -0.270 OA
ATOM      7  C   UNL     1      28.492  21.602  18.046  0.00  0.00    +0.120 C 
ENDROOT
BRANCH   5   8
ATOM      8  C   UNL     1      30.667  20.880  15.990  0.00  0.00    +0.038 A 
ATOM      9  C   UNL     1      30.089  21.161  14.748  0.00  0.00    +0.013 A 
ATOM     10  C   UNL     1      29.834  20.146  13.828  0.00  0.00    +0.002 A 
ATOM     11  C   UNL     1      30.253  18.847  14.095  0.00  0.00    +0.015 A 
ATOM     12  C   UNL     1      30.958  18.565  15.269  0.00  0.00    +0.017 A 
ATOM     13  C   UNL     1      31.129  19.575  16.228  0.00  0.00    +0.028 A 
BRANCH  12  14
ATOM     14  S   UNL     1      31.600  16.933  15.575  0.00  0.00    -0.016 S 
BRANCH  14  15
ATOM     15  C   UNL     1      31.731  16.287  13.895  0.00  0.00    +0.448 C 
ATOM     16  F   UNL     1      30.537  16.061  13.296  0.00  0.00    -0.160 F 
ATOM     17  F   UNL     1      32.417  17.143  13.101  0.00  0.00    -0.160 F 
ATOM     18  F   UNL     1      32.404  15.110  13.887  0.00  0.00    -0.160 F 
ENDBRANCH  14  15
ENDBRANCH  12  14
ENDBRANCH   5   8
BRANCH   1  20
ATOM     19  N   UNL     1      26.483  23.573  20.297  0.00  0.00    -0.329 N 
ATOM     20  C   UNL     1      26.607  22.504  19.459  0.00  0.00    +0.215 C 
ATOM     21  O   UNL     1      25.642  22.103  18.826  0.00  0.00    -0.276 OA
ATOM     22  H   UNL     1      25.566  23.995  20.381  0.00  0.00    +0.145 HD
ATOM     23  H   UNL     1      27.226  23.901  20.896  0.00  0.00    +0.145 HD
ENDBRANCH   1  20
TORSDOF 4
ENDMDL
MODEL 7
REMARK VINA RESULT:      -6.1      2.268      2.918
REMARK  Name = ZINC000826139982
REMARK  4 active torsions:
REMARK  status: ('A' for Active; 'I' for Inactive)
REMARK    1  A    between atoms: C_2  and  C_4
REMARK    2  A    between atoms: C_8  and  C_10
REMARK    3  A    between atoms: C_14  and  S_15
REMARK    4  A    between atoms: S_15  and  C_16
REMARK                            x       y       z     vdW  Elec       q    Type
REMARK                         _______ _______ _______ _____ _____    ______ ____
ROOT
ATOM      1  C   UNL     1      32.326  21.721  20.677  0.00  0.00    +0.093 C 
ATOM      2  C   UNL     1      33.560  22.563  20.333  0.00  0.00    +0.033 C 
ATOM      3  C   UNL     1      33.319  23.076  18.920  0.00  0.00    +0.109 C 
ATOM      4  N   UNL     1      32.454  22.079  18.323  0.00  0.00    -0.297 N 
ATOM      5  C   UNL     1      32.420  21.876  16.948  0.00  0.00    +0.247 C 
ATOM      6  O   UNL     1      33.182  22.476  16.191  0.00  0.00    -0.270 OA
ATOM      7  C   UNL     1      31.605  21.502  19.352  0.00  0.00    +0.120 C 
ENDROOT
BRANCH   5   8
ATOM      8  C   UNL     1      31.498  20.859  16.343  0.00  0.00    +0.038 A 
ATOM      9  C   UNL     1      30.218  21.162  15.870  0.00  0.00    +0.013 A 
ATOM     10  C   UNL     1      29.357  20.157  15.431  0.00  0.00    +0.002 A 
ATOM     11  C   UNL     1      29.805  18.843  15.361  0.00  0.00    +0.015 A 
ATOM     12  C   UNL     1      31.126  18.533  15.698  0.00  0.00    +0.017 A 
ATOM     13  C   UNL     1      31.955  19.535  16.222  0.00  0.00    +0.028 A 
BRANCH  12  14
ATOM     14  S   UNL     1      31.749  16.876  15.506  0.00  0.00    -0.016 S 
BRANCH  14  15
ATOM     15  C   UNL     1      31.469  16.598  13.744  0.00  0.00    +0.448 C 
ATOM     16  F   UNL     1      30.209  16.205  13.441  0.00  0.00    -0.160 F 
ATOM     17  F   UNL     1      31.715  17.725  13.033  0.00  0.00    -0.160 F 
ATOM     18  F   UNL     1      32.305  15.640  13.274  0.00  0.00    -0.160 F 
ENDBRANCH  14  15
ENDBRANCH  12  14
ENDBRANCH   5   8
BRANCH   1  20
ATOM     19  N   UNL     1      30.432  23.139  21.229  0.00  0.00    -0.329 N 
ATOM     20  C   UNL     1      31.419  22.339  21.725  0.00  0.00    +0.215 C 
ATOM     21  O   UNL     1      31.559  22.211  22.932  0.00  0.00    -0.276 OA
ATOM     22  H   UNL     1      29.847  23.626  21.897  0.00  0.00    +0.145 HD
ATOM     23  H   UNL     1      30.315  23.337  20.246  0.00  0.00    +0.145 HD
ENDBRANCH   1  20
TORSDOF 4
ENDMDL
MODEL 8
REMARK VINA RESULT:      -5.9      5.803      8.001
REMARK  Name = ZINC000826139982
REMARK  4 active torsions:
REMARK  status: ('A' for Active; 'I' for Inactive)
REMARK    1  A    between atoms: C_2  and  C_4
REMARK    2  A    between atoms: C_8  and  C_10
REMARK    3  A    between atoms: C_14  and  S_15
REMARK    4  A    between atoms: S_15  and  C_16
REMARK                            x       y       z     vdW  Elec       q    Type
REMARK                         _______ _______ _______ _____ _____    ______ ____
ROOT
ATOM      1  C   UNL     1      32.580  23.882   9.420  0.00  0.00    +0.093 C 
ATOM      2  C   UNL     1      33.277  25.078  10.077  0.00  0.00    +0.033 C 
ATOM      3  C   UNL     1      33.907  24.530  11.351  0.00  0.00    +0.109 C 
ATOM      4  N   UNL     1      33.069  23.403  11.705  0.00  0.00    -0.297 N 
ATOM      5  C   UNL     1      32.961  22.962  13.018  0.00  0.00    +0.247 C 
ATOM      6  O   UNL     1      33.506  23.562  13.944  0.00  0.00    -0.270 OA
ATOM      7  C   UNL     1      32.540  22.800  10.492  0.00  0.00    +0.120 C 
ENDROOT
BRANCH   5   8
ATOM      8  C   UNL     1      32.111  21.775  13.364  0.00  0.00    +0.038 A 
ATOM      9  C   UNL     1      32.424  20.466  12.988  0.00  0.00    +0.013 A 
ATOM     10  C   UNL     1      31.537  19.417  13.228  0.00  0.00    +0.002 A 
ATOM     11  C   UNL     1      30.369  19.649  13.945  0.00  0.00    +0.015 A 
ATOM     12  C   UNL     1      30.099  20.923  14.454  0.00  0.00    +0.017 A 
ATOM     13  C   UNL     1      30.952  21.988  14.130  0.00  0.00    +0.028 A 
BRANCH  12  14
ATOM     14  S   UNL     1      28.666  21.212  15.470  0.00  0.00    -0.016 S 
BRANCH  14  15
ATOM     15  C   UNL     1      29.413  21.309  17.110  0.00  0.00    +0.448 C 
ATOM     16  F   UNL     1      28.534  21.148  18.128  0.00  0.00    -0.160 F 
ATOM     17  F   UNL     1      30.371  20.363  17.261  0.00  0.00    -0.160 F 
ATOM     18  F   UNL     1      30.010  22.513  17.292  0.00  0.00    -0.160 F 
ENDBRANCH  14  15
ENDBRANCH  12  14
ENDBRANCH   5   8
BRANCH   1  20
ATOM     19  N   UNL     1      32.872  24.069   7.016  0.00  0.00    -0.329 N 
ATOM     20  C   UNL     1      33.239  23.396   8.143  0.00  0.00    +0.215 C 
ATOM     21  O   UNL     1      33.997  22.440   8.069  0.00  0.00    -0.276 OA
ATOM     22  H   UNL     1      33.235  23.733   6.132  0.00  0.00    +0.145 HD
ATOM     23  H   UNL     1      32.195  24.819   7.010  0.00  0.00    +0.145 HD
ENDBRANCH   1  20
TORSDOF 4
ENDMDL
MODEL 9
REMARK VINA RESULT:      -5.9      4.815      6.839
REMARK  Name = ZINC000826139982
REMARK  4 active torsions:
REMARK  status: ('A' for Active; 'I' for Inactive)
REMARK    1  A    between atoms: C_2  and  C_4
REMARK    2  A    between atoms: C_8  and  C_10
REMARK    3  A    between atoms: C_14  and  S_15
REMARK    4  A    between atoms: S_15  and  C_16
REMARK                            x       y       z     vdW  Elec       q    Type
REMARK                         _______ _______ _______ _____ _____    ______ ____
ROOT
ATOM      1  C   UNL     1      28.856  20.988  17.355  0.00  0.00    +0.093 C 
ATOM      2  C   UNL     1      27.888  21.288  18.505  0.00  0.00    +0.033 C 
ATOM      3  C   UNL     1      28.569  22.368  19.336  0.00  0.00    +0.109 C 
ATOM      4  N   UNL     1      29.983  22.157  19.102  0.00  0.00    -0.297 N 
ATOM      5  C   UNL     1      30.939  22.550  20.030  0.00  0.00    +0.247 C 
ATOM      6  O   UNL     1      30.620  23.016  21.124  0.00  0.00    -0.270 OA
ATOM      7  C   UNL     1      30.174  21.638  17.757  0.00  0.00    +0.120 C 
ENDROOT
BRANCH   5   8
ATOM      8  C   UNL     1      32.401  22.350  19.761  0.00  0.00    +0.038 A 
ATOM      9  C   UNL     1      33.029  21.101  19.799  0.00  0.00    +0.013 A 
ATOM     10  C   UNL     1      34.412  20.988  19.663  0.00  0.00    +0.002 A 
ATOM     11  C   UNL     1      35.175  22.115  19.380  0.00  0.00    +0.015 A 
ATOM     12  C   UNL     1      34.554  23.355  19.199  0.00  0.00    +0.017 A 
ATOM     13  C   UNL     1      33.176  23.474  19.426  0.00  0.00    +0.028 A 
BRANCH  12  14
ATOM     14  S   UNL     1      35.502  24.786  18.724  0.00  0.00    -0.016 S 
BRANCH  14  15
ATOM     15  C   UNL     1      34.971  25.005  17.012  0.00  0.00    +0.448 C 
ATOM     16  F   UNL     1      35.779  25.810  16.283  0.00  0.00    -0.160 F 
ATOM     17  F   UNL     1      34.912  23.814  16.369  0.00  0.00    -0.160 F 
ATOM     18  F   UNL     1      33.729  25.546  16.964  0.00  0.00    -0.160 F 
ENDBRANCH  14  15
ENDBRANCH  12  14
ENDBRANCH   5   8
BRANCH   1  20
ATOM     19  N   UNL     1      29.294  22.178  15.283  0.00  0.00    -0.329 N 
ATOM     20  C   UNL     1      28.379  21.461  15.995  0.00  0.00    +0.215 C 
ATOM     21  O   UNL     1      27.252  21.292  15.553  0.00  0.00    -0.276 OA
ATOM     22  H   UNL     1      28.994  22.572  14.400  0.00  0.00    +0.145 HD
ATOM     23  H   UNL     1      30.214  22.408  15.630  0.00  0.00    +0.145 HD
ENDBRANCH   1  20
TORSDOF 4
ENDMDL
