MODEL 1
REMARK VINA RESULT:      -6.7      0.000      0.000
REMARK  Name = ZINC000826139982
REMARK  4 active torsions:
REMARK  status: ('A' for Active; 'I' for Inactive)
REMARK    1  A    between atoms: C_2  and  C_4
REMARK    2  A    between atoms: C_8  and  C_10
REMARK    3  A    between atoms: C_14  and  S_15
REMARK    4  A    between atoms: S_15  and  C_16
REMARK                            x       y       z     vdW  Elec       q    Type
REMARK                         _______ _______ _______ _____ _____    ______ ____
ROOT
ATOM      1  C   UNL     1      32.431  17.065  14.313  0.00  0.00    +0.093 C 
ATOM      2  C   UNL     1      32.100  15.674  13.760  0.00  0.00    +0.033 C 
ATOM      3  C   UNL     1      30.658  15.762  13.281  0.00  0.00    +0.109 C 
ATOM      4  N   UNL     1      30.070  16.795  14.108  0.00  0.00    -0.297 N 
ATOM      5  C   UNL     1      28.706  16.828  14.370  0.00  0.00    +0.247 C 
ATOM      6  O   UNL     1      27.955  15.936  13.977  0.00  0.00    -0.270 OA
ATOM      7  C   UNL     1      31.089  17.775  14.447  0.00  0.00    +0.120 C 
ENDROOT
BRANCH   5   8
ATOM      8  C   UNL     1      28.109  17.921  15.206  0.00  0.00    +0.038 A 
ATOM      9  C   UNL     1      27.029  17.727  16.072  0.00  0.00    +0.013 A 
ATOM     10  C   UNL     1      26.434  18.802  16.732  0.00  0.00    +0.002 A 
ATOM     11  C   UNL     1      26.982  20.075  16.616  0.00  0.00    +0.015 A 
ATOM     12  C   UNL     1      28.147  20.272  15.867  0.00  0.00    +0.017 A 
ATOM     13  C   UNL     1      28.684  19.202  15.136  0.00  0.00    +0.028 A 
BRANCH  12  14
ATOM     14  S   UNL     1      28.926  21.871  15.800  0.00  0.00    -0.016 S 
BRANCH  14  15
ATOM     15  C   UNL     1      29.732  21.936  17.415  0.00  0.00    +0.448 C 
ATOM     16  F   UNL     1      30.386  20.799  17.750  0.00  0.00    -0.160 F 
ATOM     17  F   UNL     1      30.637  22.943  17.462  0.00  0.00    -0.160 F 
ATOM     18  F   UNL     1      28.822  22.171  18.392  0.00  0.00    -0.160 F 
ENDBRANCH  14  15
ENDBRANCH  12  14
ENDBRANCH   5   8
BRANCH   1  20
ATOM     19  N   UNL     1      33.677  17.324  12.244  0.00  0.00    -0.329 N 
ATOM     20  C   UNL     1      33.414  17.857  13.471  0.00  0.00    +0.215 C 
ATOM     21  O   UNL     1      33.999  18.863  13.842  0.00  0.00    -0.276 OA
ATOM     22  H   UNL     1      34.379  17.782  11.677  0.00  0.00    +0.145 HD
ATOM     23  H   UNL     1      33.276  16.457  11.915  0.00  0.00    +0.145 HD
ENDBRANCH   1  20
TORSDOF 4
ENDMDL
MODEL 2
REMARK VINA RESULT:      -6.7      4.452      6.446
REMARK  Name = ZINC000826139982
REMARK  4 active torsions:
REMARK  status: ('A' for Active; 'I' for Inactive)
REMARK    1  A    between atoms: C_2  and  C_4
REMARK    2  A    between atoms: C_8  and  C_10
REMARK    3  A    between atoms: C_14  and  S_15
REMARK    4  A    between atoms: S_15  and  C_16
REMARK                            x       y       z     vdW  Elec       q    Type
REMARK                         _______ _______ _______ _____ _____    ______ ____
ROOT
ATOM      1  C   UNL     1      31.750  22.102  19.685  0.00  0.00    +0.093 C 
ATOM      2  C   UNL     1      32.807  22.550  18.669  0.00  0.00    +0.033 C 
ATOM      3  C   UNL     1      32.023  23.003  17.444  0.00  0.00    +0.109 C 
ATOM      4  N   UNL     1      30.796  22.236  17.504  0.00  0.00    -0.297 N 
ATOM      5  C   UNL     1      30.062  21.948  16.359  0.00  0.00    +0.247 C 
ATOM      6  O   UNL     1      30.469  22.262  15.240  0.00  0.00    -0.270 OA
ATOM      7  C   UNL     1      30.453  21.988  18.895  0.00  0.00    +0.120 C 
ENDROOT
BRANCH   5   8
ATOM      8  C   UNL     1      28.779  21.177  16.441  0.00  0.00    +0.038 A 
ATOM      9  C   UNL     1      27.531  21.774  16.641  0.00  0.00    +0.013 A 
ATOM     10  C   UNL     1      26.386  21.002  16.833  0.00  0.00    +0.002 A 
ATOM     11  C   UNL     1      26.458  19.618  16.722  0.00  0.00    +0.015 A 
ATOM     12  C   UNL     1      27.668  19.003  16.385  0.00  0.00    +0.017 A 
ATOM     13  C   UNL     1      28.830  19.781  16.282  0.00  0.00    +0.028 A 
BRANCH  12  14
ATOM     14  S   UNL     1      27.753  17.243  16.127  0.00  0.00    -0.016 S 
BRANCH  14  15
ATOM     15  C   UNL     1      28.525  17.165  14.497  0.00  0.00    +0.448 C 
ATOM     16  F   UNL     1      28.179  16.074  13.774  0.00  0.00    -0.160 F 
ATOM     17  F   UNL     1      28.200  18.252  13.756  0.00  0.00    -0.160 F 
ATOM     18  F   UNL     1      29.876  17.151  14.610  0.00  0.00    -0.160 F 
ENDBRANCH  14  15
ENDBRANCH  12  14
ENDBRANCH   5   8
BRANCH   1  20
ATOM     19  N   UNL     1      30.342  23.122  21.381  0.00  0.00    -0.329 N 
ATOM     20  C   UNL     1      31.608  23.017  20.886  0.00  0.00    +0.215 C 
ATOM     21  O   UNL     1      32.514  23.680  21.369  0.00  0.00    -0.276 OA
ATOM     22  H   UNL     1      30.190  23.776  22.139  0.00  0.00    +0.145 HD
ATOM     23  H   UNL     1      29.545  22.653  20.976  0.00  0.00    +0.145 HD
ENDBRANCH   1  20
TORSDOF 4
ENDMDL
MODEL 3
REMARK VINA RESULT:      -6.6      6.259      7.804
REMARK  Name = ZINC000826139982
REMARK  4 active torsions:
REMARK  status: ('A' for Active; 'I' for Inactive)
REMARK    1  A    between atoms: C_2  and  C_4
REMARK    2  A    between atoms: C_8  and  C_10
REMARK    3  A    between atoms: C_14  and  S_15
REMARK    4  A    between atoms: S_15  and  C_16
REMARK                            x       y       z     vdW  Elec       q    Type
REMARK                         _______ _______ _______ _____ _____    ______ ____
ROOT
ATOM      1  C   UNL     1      28.882  20.265  14.548  0.00  0.00    +0.093 C 
ATOM      2  C   UNL     1      29.867  19.104  14.720  0.00  0.00    +0.033 C 
ATOM      3  C   UNL     1      31.252  19.730  14.620  0.00  0.00    +0.109 C 
ATOM      4  N   UNL     1      31.053  20.902  13.793  0.00  0.00    -0.297 N 
ATOM      5  C   UNL     1      32.086  21.444  13.039  0.00  0.00    +0.247 C 
ATOM      6  O   UNL     1      33.189  20.901  12.978  0.00  0.00    -0.270 OA
ATOM      7  C   UNL     1      29.715  21.426  14.018  0.00  0.00    +0.120 C 
ENDROOT
BRANCH   5   8
ATOM      8  C   UNL     1      31.871  22.675  12.209  0.00  0.00    +0.038 A 
ATOM      9  C   UNL     1      30.846  23.596  12.448  0.00  0.00    +0.013 A 
ATOM     10  C   UNL     1      30.615  24.657  11.572  0.00  0.00    +0.002 A 
ATOM     11  C   UNL     1      31.476  24.871  10.501  0.00  0.00    +0.015 A 
ATOM     12  C   UNL     1      32.590  24.046  10.321  0.00  0.00    +0.017 A 
ATOM     13  C   UNL     1      32.762  22.930  11.153  0.00  0.00    +0.028 A 
BRANCH  12  14
ATOM     14  S   UNL     1      33.764  24.374   9.023  0.00  0.00    -0.016 S 
BRANCH  14  15
ATOM     15  C   UNL     1      32.982  23.544   7.624  0.00  0.00    +0.448 C 
ATOM     16  F   UNL     1      32.588  22.275   7.885  0.00  0.00    -0.160 F 
ATOM     17  F   UNL     1      31.884  24.223   7.213  0.00  0.00    -0.160 F 
ATOM     18  F   UNL     1      33.831  23.484   6.569  0.00  0.00    -0.160 F 
ENDBRANCH  14  15
ENDBRANCH  12  14
ENDBRANCH   5   8
BRANCH   1  20
ATOM     19  N   UNL     1      28.200  21.952  16.158  0.00  0.00    -0.329 N 
ATOM     20  C   UNL     1      28.123  20.636  15.808  0.00  0.00    +0.215 C 
ATOM     21  O   UNL     1      27.529  19.843  16.523  0.00  0.00    -0.276 OA
ATOM     22  H   UNL     1      27.766  22.229  17.030  0.00  0.00    +0.145 HD
ATOM     23  H   UNL     1      28.737  22.635  15.644  0.00  0.00    +0.145 HD
ENDBRANCH   1  20
TORSDOF 4
ENDMDL
MODEL 4
REMARK VINA RESULT:      -6.5      4.906      7.062
REMARK  Name = ZINC000826139982
REMARK  4 active torsions:
REMARK  status: ('A' for Active; 'I' for Inactive)
REMARK    1  A    between atoms: C_2  and  C_4
REMARK    2  A    between atoms: C_8  and  C_10
REMARK    3  A    between atoms: C_14  and  S_15
REMARK    4  A    between atoms: S_15  and  C_16
REMARK                            x       y       z     vdW  Elec       q    Type
REMARK                         _______ _______ _______ _____ _____    ______ ____
ROOT
ATOM      1  C   UNL     1      27.801  20.904  16.386  0.00  0.00    +0.093 C 
ATOM      2  C   UNL     1      26.471  20.167  16.578  0.00  0.00    +0.033 C 
ATOM      3  C   UNL     1      26.826  18.686  16.572  0.00  0.00    +0.109 C 
ATOM      4  N   UNL     1      28.030  18.612  15.771  0.00  0.00    -0.297 N 
ATOM      5  C   UNL     1      28.381  17.452  15.091  0.00  0.00    +0.247 C 
ATOM      6  O   UNL     1      27.641  16.469  15.074  0.00  0.00    -0.270 OA
ATOM      7  C   UNL     1      28.793  19.838  15.938  0.00  0.00    +0.120 C 
ENDROOT
BRANCH   5   8
ATOM      8  C   UNL     1      29.646  17.383  14.288  0.00  0.00    +0.038 A 
ATOM      9  C   UNL     1      30.178  18.472  13.591  0.00  0.00    +0.013 A 
ATOM     10  C   UNL     1      31.287  18.321  12.760  0.00  0.00    +0.002 A 
ATOM     11  C   UNL     1      31.946  17.098  12.700  0.00  0.00    +0.015 A 
ATOM     12  C   UNL     1      31.518  16.030  13.495  0.00  0.00    +0.017 A 
ATOM     13  C   UNL     1      30.348  16.166  14.257  0.00  0.00    +0.028 A 
BRANCH  12  14
ATOM     14  S   UNL     1      32.417  14.493  13.516  0.00  0.00    -0.016 S 
BRANCH  14  15
ATOM     15  C   UNL     1      31.865  13.744  11.969  0.00  0.00    +0.448 C 
ATOM     16  F   UNL     1      30.554  13.945  11.695  0.00  0.00    -0.160 F 
ATOM     17  F   UNL     1      32.569  14.230  10.919  0.00  0.00    -0.160 F 
ATOM     18  F   UNL     1      32.061  12.402  11.992  0.00  0.00    -0.160 F 
ENDBRANCH  14  15
ENDBRANCH  12  14
ENDBRANCH   5   8
BRANCH   1  20
ATOM     19  N   UNL     1      27.299  22.052  18.467  0.00  0.00    -0.329 N 
ATOM     20  C   UNL     1      28.284  21.654  17.614  0.00  0.00    +0.215 C 
ATOM     21  O   UNL     1      29.448  21.956  17.834  0.00  0.00    -0.276 OA
ATOM     22  H   UNL     1      27.571  22.615  19.264  0.00  0.00    +0.145 HD
ATOM     23  H   UNL     1      26.316  21.891  18.298  0.00  0.00    +0.145 HD
ENDBRANCH   1  20
TORSDOF 4
ENDMDL
MODEL 5
REMARK VINA RESULT:      -6.5      2.479      3.633
REMARK  Name = ZINC000826139982
REMARK  4 active torsions:
REMARK  status: ('A' for Active; 'I' for Inactive)
REMARK    1  A    between atoms: C_2  and  C_4
REMARK    2  A    between atoms: C_8  and  C_10
REMARK    3  A    between atoms: C_14  and  S_15
REMARK    4  A    between atoms: S_15  and  C_16
REMARK                            x       y       z     vdW  Elec       q    Type
REMARK                         _______ _______ _______ _____ _____    ______ ____
ROOT
ATOM      1  C   UNL     1      32.186  14.121  11.637  0.00  0.00    +0.093 C 
ATOM      2  C   UNL     1      33.598  14.164  12.232  0.00  0.00    +0.033 C 
ATOM      3  C   UNL     1      33.415  14.610  13.676  0.00  0.00    +0.109 C 
ATOM      4  N   UNL     1      32.195  15.391  13.656  0.00  0.00    -0.297 N 
ATOM      5  C   UNL     1      31.952  16.384  14.597  0.00  0.00    +0.247 C 
ATOM      6  O   UNL     1      32.798  16.696  15.434  0.00  0.00    -0.270 OA
ATOM      7  C   UNL     1      31.305  14.863  12.635  0.00  0.00    +0.120 C 
ENDROOT
BRANCH   5   8
ATOM      8  C   UNL     1      30.672  17.165  14.578  0.00  0.00    +0.038 A 
ATOM      9  C   UNL     1      29.407  16.576  14.669  0.00  0.00    +0.013 A 
ATOM     10  C   UNL     1      28.248  17.337  14.522  0.00  0.00    +0.002 A 
ATOM     11  C   UNL     1      28.338  18.718  14.388  0.00  0.00    +0.015 A 
ATOM     12  C   UNL     1      29.585  19.347  14.434  0.00  0.00    +0.017 A 
ATOM     13  C   UNL     1      30.748  18.566  14.492  0.00  0.00    +0.028 A 
BRANCH  12  14
ATOM     14  S   UNL     1      29.711  21.123  14.378  0.00  0.00    -0.016 S 
BRANCH  14  15
ATOM     15  C   UNL     1      29.045  21.572  15.995  0.00  0.00    +0.448 C 
ATOM     16  F   UNL     1      29.372  20.708  16.985  0.00  0.00    -0.160 F 
ATOM     17  F   UNL     1      29.485  22.796  16.375  0.00  0.00    -0.160 F 
ATOM     18  F   UNL     1      27.691  21.631  15.953  0.00  0.00    -0.160 F 
ENDBRANCH  14  15
ENDBRANCH  12  14
ENDBRANCH   5   8
BRANCH   1  20
ATOM     19  N   UNL     1      32.619  11.837  10.934  0.00  0.00    -0.329 N 
ATOM     20  C   UNL     1      31.670  12.724  11.348  0.00  0.00    +0.215 C 
ATOM     21  O   UNL     1      30.497  12.387  11.406  0.00  0.00    -0.276 OA
ATOM     22  H   UNL     1      32.307  10.912  10.664  0.00  0.00    +0.145 HD
ATOM     23  H   UNL     1      33.590  12.080  10.800  0.00  0.00    +0.145 HD
ENDBRANCH   1  20
TORSDOF 4
ENDMDL
MODEL 6
REMARK VINA RESULT:      -6.5     10.128     12.280
REMARK  Name = ZINC000826139982
REMARK  4 active torsions:
REMARK  status: ('A' for Active; 'I' for Inactive)
REMARK    1  A    between atoms: C_2  and  C_4
REMARK    2  A    between atoms: C_8  and  C_10
REMARK    3  A    between atoms: C_14  and  S_15
REMARK    4  A    between atoms: S_15  and  C_16
REMARK                            x       y       z     vdW  Elec       q    Type
REMARK                         _______ _______ _______ _____ _____    ______ ____
ROOT
ATOM      1  C   UNL     1      24.119  30.458  18.528  0.00  0.00    +0.093 C 
ATOM      2  C   UNL     1      25.092  31.162  19.479  0.00  0.00    +0.033 C 
ATOM      3  C   UNL     1      25.956  30.054  20.067  0.00  0.00    +0.109 C 
ATOM      4  N   UNL     1      25.111  28.879  20.014  0.00  0.00    -0.297 N 
ATOM      5  C   UNL     1      25.288  27.817  20.892  0.00  0.00    +0.247 C 
ATOM      6  O   UNL     1      26.115  27.867  21.802  0.00  0.00    -0.270 OA
ATOM      7  C   UNL     1      24.227  28.976  18.864  0.00  0.00    +0.120 C 
ENDROOT
BRANCH   5   8
ATOM      8  C   UNL     1      24.423  26.595  20.806  0.00  0.00    +0.038 A 
ATOM      9  C   UNL     1      23.320  26.370  21.635  0.00  0.00    +0.013 A 
ATOM     10  C   UNL     1      22.625  25.162  21.596  0.00  0.00    +0.002 A 
ATOM     11  C   UNL     1      22.960  24.201  20.649  0.00  0.00    +0.015 A 
ATOM     12  C   UNL     1      23.968  24.457  19.716  0.00  0.00    +0.017 A 
ATOM     13  C   UNL     1      24.720  25.637  19.821  0.00  0.00    +0.028 A 
BRANCH  12  14
ATOM     14  S   UNL     1      24.333  23.286  18.425  0.00  0.00    -0.016 S 
BRANCH  14  15
ATOM     15  C   UNL     1      23.155  23.788  17.153  0.00  0.00    +0.448 C 
ATOM     16  F   UNL     1      21.859  23.678  17.527  0.00  0.00    -0.160 F 
ATOM     17  F   UNL     1      23.356  25.078  16.792  0.00  0.00    -0.160 F 
ATOM     18  F   UNL     1      23.309  23.033  16.037  0.00  0.00    -0.160 F 
ENDBRANCH  14  15
ENDBRANCH  12  14
ENDBRANCH   5   8
BRANCH   1  20
ATOM     19  N   UNL     1      24.225  29.648  16.240  0.00  0.00    -0.329 N 
ATOM     20  C   UNL     1      24.374  30.729  17.057  0.00  0.00    +0.215 C 
ATOM     21  O   UNL     1      24.746  31.799  16.599  0.00  0.00    -0.276 OA
ATOM     22  H   UNL     1      24.453  29.768  15.261  0.00  0.00    +0.145 HD
ATOM     23  H   UNL     1      23.990  28.724  16.574  0.00  0.00    +0.145 HD
ENDBRANCH   1  20
TORSDOF 4
ENDMDL
MODEL 7
REMARK VINA RESULT:      -6.4      2.007      2.685
REMARK  Name = ZINC000826139982
REMARK  4 active torsions:
REMARK  status: ('A' for Active; 'I' for Inactive)
REMARK    1  A    between atoms: C_2  and  C_4
REMARK    2  A    between atoms: C_8  and  C_10
REMARK    3  A    between atoms: C_14  and  S_15
REMARK    4  A    between atoms: S_15  and  C_16
REMARK                            x       y       z     vdW  Elec       q    Type
REMARK                         _______ _______ _______ _____ _____    ______ ____
ROOT
ATOM      1  C   UNL     1      31.609  14.920  12.727  0.00  0.00    +0.093 C 
ATOM      2  C   UNL     1      32.467  15.868  11.882  0.00  0.00    +0.033 C 
ATOM      3  C   UNL     1      32.502  17.179  12.656  0.00  0.00    +0.109 C 
ATOM      4  N   UNL     1      31.268  17.178  13.414  0.00  0.00    -0.297 N 
ATOM      5  C   UNL     1      30.665  18.361  13.822  0.00  0.00    +0.247 C 
ATOM      6  O   UNL     1      31.109  19.458  13.486  0.00  0.00    -0.270 OA
ATOM      7  C   UNL     1      30.914  15.808  13.751  0.00  0.00    +0.120 C 
ENDROOT
BRANCH   5   8
ATOM      8  C   UNL     1      29.401  18.342  14.631  0.00  0.00    +0.038 A 
ATOM      9  C   UNL     1      28.647  17.186  14.856  0.00  0.00    +0.013 A 
ATOM     10  C   UNL     1      27.417  17.247  15.509  0.00  0.00    +0.002 A 
ATOM     11  C   UNL     1      26.974  18.453  16.042  0.00  0.00    +0.015 A 
ATOM     12  C   UNL     1      27.775  19.595  15.952  0.00  0.00    +0.017 A 
ATOM     13  C   UNL     1      28.967  19.543  15.216  0.00  0.00    +0.028 A 
BRANCH  12  14
ATOM     14  S   UNL     1      27.276  21.119  16.727  0.00  0.00    -0.016 S 
BRANCH  14  15
ATOM     15  C   UNL     1      28.864  21.753  17.306  0.00  0.00    +0.448 C 
ATOM     16  F   UNL     1      29.776  20.791  17.580  0.00  0.00    -0.160 F 
ATOM     17  F   UNL     1      29.420  22.576  16.385  0.00  0.00    -0.160 F 
ATOM     18  F   UNL     1      28.702  22.478  18.441  0.00  0.00    -0.160 F 
ENDBRANCH  14  15
ENDBRANCH  12  14
ENDBRANCH   5   8
BRANCH   1  20
ATOM     19  N   UNL     1      32.846  14.066  14.635  0.00  0.00    -0.329 N 
ATOM     20  C   UNL     1      32.383  13.791  13.383  0.00  0.00    +0.215 C 
ATOM     21  O   UNL     1      32.651  12.726  12.848  0.00  0.00    -0.276 OA
ATOM     22  H   UNL     1      33.427  13.366  15.082  0.00  0.00    +0.145 HD
ATOM     23  H   UNL     1      32.715  14.955  15.096  0.00  0.00    +0.145 HD
ENDBRANCH   1  20
TORSDOF 4
ENDMDL
MODEL 8
REMARK VINA RESULT:      -6.4      4.138      5.923
REMARK  Name = ZINC000826139982
REMARK  4 active torsions:
REMARK  status: ('A' for Active; 'I' for Inactive)
REMARK    1  A    between atoms: C_2  and  C_4
REMARK    2  A    between atoms: C_8  and  C_10
REMARK    3  A    between atoms: C_14  and  S_15
REMARK    4  A    between atoms: S_15  and  C_16
REMARK                            x       y       z     vdW  Elec       q    Type
REMARK                         _______ _______ _______ _____ _____    ______ ____
ROOT
ATOM      1  C   UNL     1      31.509  22.154  17.660  0.00  0.00    +0.093 C 
ATOM      2  C   UNL     1      30.571  23.322  17.987  0.00  0.00    +0.033 C 
ATOM      3  C   UNL     1      29.206  22.690  18.225  0.00  0.00    +0.109 C 
ATOM      4  N   UNL     1      29.233  21.476  17.435  0.00  0.00    -0.297 N 
ATOM      5  C   UNL     1      28.066  20.895  16.955  0.00  0.00    +0.247 C 
ATOM      6  O   UNL     1      26.970  21.432  17.112  0.00  0.00    -0.270 OA
ATOM      7  C   UNL     1      30.594  20.966  17.386  0.00  0.00    +0.120 C 
ENDROOT
BRANCH   5   8
ATOM      8  C   UNL     1      28.109  19.623  16.162  0.00  0.00    +0.038 A 
ATOM      9  C   UNL     1      27.125  18.632  16.238  0.00  0.00    +0.013 A 
ATOM     10  C   UNL     1      27.277  17.416  15.574  0.00  0.00    +0.002 A 
ATOM     11  C   UNL     1      28.369  17.215  14.736  0.00  0.00    +0.015 A 
ATOM     12  C   UNL     1      29.295  18.243  14.534  0.00  0.00    +0.017 A 
ATOM     13  C   UNL     1      29.182  19.428  15.275  0.00  0.00    +0.028 A 
BRANCH  12  14
ATOM     14  S   UNL     1      30.635  18.045  13.378  0.00  0.00    -0.016 S 
BRANCH  14  15
ATOM     15  C   UNL     1      31.206  16.381  13.785  0.00  0.00    +0.448 C 
ATOM     16  F   UNL     1      31.185  16.099  15.109  0.00  0.00    -0.160 F 
ATOM     17  F   UNL     1      30.445  15.445  13.168  0.00  0.00    -0.160 F 
ATOM     18  F   UNL     1      32.482  16.198  13.364  0.00  0.00    -0.160 F 
ENDBRANCH  14  15
ENDBRANCH  12  14
ENDBRANCH   5   8
BRANCH   1  20
ATOM     19  N   UNL     1      32.375  20.643  19.353  0.00  0.00    -0.329 N 
ATOM     20  C   UNL     1      32.531  21.850  18.740  0.00  0.00    +0.215 C 
ATOM     21  O   UNL     1      33.404  22.620  19.110  0.00  0.00    -0.276 OA
ATOM     22  H   UNL     1      32.992  20.429  20.127  0.00  0.00    +0.145 HD
ATOM     23  H   UNL     1      31.627  19.999  19.136  0.00  0.00    +0.145 HD
ENDBRANCH   1  20
TORSDOF 4
ENDMDL
MODEL 9
REMARK VINA RESULT:      -6.3      4.329      6.790
REMARK  Name = ZINC000826139982
REMARK  4 active torsions:
REMARK  status: ('A' for Active; 'I' for Inactive)
REMARK    1  A    between atoms: C_2  and  C_4
REMARK    2  A    between atoms: C_8  and  C_10
REMARK    3  A    between atoms: C_14  and  S_15
REMARK    4  A    between atoms: S_15  and  C_16
REMARK                            x       y       z     vdW  Elec       q    Type
REMARK                         _______ _______ _______ _____ _____    ______ ____
ROOT
ATOM      1  C   UNL     1      31.912  22.368  19.871  0.00  0.00    +0.093 C 
ATOM      2  C   UNL     1      32.652  23.632  19.417  0.00  0.00    +0.033 C 
ATOM      3  C   UNL     1      32.245  23.839  17.964  0.00  0.00    +0.109 C 
ATOM      4  N   UNL     1      31.929  22.507  17.490  0.00  0.00    -0.297 N 
ATOM      5  C   UNL     1      32.024  22.173  16.145  0.00  0.00    +0.247 C 
ATOM      6  O   UNL     1      32.460  22.970  15.315  0.00  0.00    -0.270 OA
ATOM      7  C   UNL     1      31.399  21.719  18.591  0.00  0.00    +0.120 C 
ENDROOT
BRANCH   5   8
ATOM      8  C   UNL     1      31.667  20.797  15.666  0.00  0.00    +0.038 A 
ATOM      9  C   UNL     1      32.577  19.737  15.618  0.00  0.00    +0.013 A 
ATOM     10  C   UNL     1      32.225  18.514  15.049  0.00  0.00    +0.002 A 
ATOM     11  C   UNL     1      30.921  18.301  14.615  0.00  0.00    +0.015 A 
ATOM     12  C   UNL     1      29.956  19.298  14.779  0.00  0.00    +0.017 A 
ATOM     13  C   UNL     1      30.341  20.554  15.270  0.00  0.00    +0.028 A 
BRANCH  12  14
ATOM     14  S   UNL     1      28.257  19.002  14.335  0.00  0.00    -0.016 S 
BRANCH  14  15
ATOM     15  C   UNL     1      27.617  18.275  15.858  0.00  0.00    +0.448 C 
ATOM     16  F   UNL     1      26.271  18.131  15.878  0.00  0.00    -0.160 F 
ATOM     17  F   UNL     1      28.151  17.047  16.067  0.00  0.00    -0.160 F 
ATOM     18  F   UNL     1      27.948  19.040  16.927  0.00  0.00    -0.160 F 
ENDBRANCH  14  15
ENDBRANCH  12  14
ENDBRANCH   5   8
BRANCH   1  20
ATOM     19  N   UNL     1      29.606  22.989  20.319  0.00  0.00    -0.329 N 
ATOM     20  C   UNL     1      30.798  22.620  20.870  0.00  0.00    +0.215 C 
ATOM     21  O   UNL     1      30.925  22.571  22.084  0.00  0.00    -0.276 OA
ATOM     22  H   UNL     1      28.855  23.233  20.953  0.00  0.00    +0.145 HD
ATOM     23  H   UNL     1      29.466  23.114  19.327  0.00  0.00    +0.145 HD
ENDBRANCH   1  20
TORSDOF 4
ENDMDL
