MODEL 1
REMARK VINA RESULT:      -6.3      0.000      0.000
REMARK  Name = ZINC000826139982
REMARK  4 active torsions:
REMARK  status: ('A' for Active; 'I' for Inactive)
REMARK    1  A    between atoms: C_2  and  C_4
REMARK    2  A    between atoms: C_8  and  C_10
REMARK    3  A    between atoms: C_14  and  S_15
REMARK    4  A    between atoms: S_15  and  C_16
REMARK                            x       y       z     vdW  Elec       q    Type
REMARK                         _______ _______ _______ _____ _____    ______ ____
ROOT
ATOM      1  C   UNL     1      32.589  22.604  16.655  0.00  0.00    +0.093 C 
ATOM      2  C   UNL     1      33.736  23.153  15.807  0.00  0.00    +0.033 C 
ATOM      3  C   UNL     1      33.006  24.077  14.844  0.00  0.00    +0.109 C 
ATOM      4  N   UNL     1      31.838  23.285  14.484  0.00  0.00    -0.297 N 
ATOM      5  C   UNL     1      31.052  23.277  13.339  0.00  0.00    +0.247 C 
ATOM      6  O   UNL     1      30.015  22.610  13.290  0.00  0.00    -0.270 OA
ATOM      7  C   UNL     1      31.436  22.489  15.647  0.00  0.00    +0.120 C 
ENDROOT
BRANCH   5   8
ATOM      8  C   UNL     1      31.405  24.085  12.132  0.00  0.00    +0.038 A 
ATOM      9  C   UNL     1      30.944  25.383  11.910  0.00  0.00    +0.013 A 
ATOM     10  C   UNL     1      31.235  26.054  10.721  0.00  0.00    +0.002 A 
ATOM     11  C   UNL     1      32.109  25.486   9.799  0.00  0.00    +0.015 A 
ATOM     12  C   UNL     1      32.726  24.265  10.082  0.00  0.00    +0.017 A 
ATOM     13  C   UNL     1      32.340  23.550  11.225  0.00  0.00    +0.028 A 
BRANCH  12  14
ATOM     14  S   UNL     1      33.978  23.603   9.002  0.00  0.00    -0.016 S 
BRANCH  14  15
ATOM     15  C   UNL     1      32.973  22.980   7.638  0.00  0.00    +0.448 C 
ATOM     16  F   UNL     1      31.919  22.224   8.029  0.00  0.00    -0.160 F 
ATOM     17  F   UNL     1      32.476  23.999   6.897  0.00  0.00    -0.160 F 
ATOM     18  F   UNL     1      33.720  22.210   6.807  0.00  0.00    -0.160 F 
ENDBRANCH  14  15
ENDBRANCH  12  14
ENDBRANCH   5   8
BRANCH   1  20
ATOM     19  N   UNL     1      31.059  24.126  17.813  0.00  0.00    -0.329 N 
ATOM     20  C   UNL     1      32.289  23.544  17.813  0.00  0.00    +0.215 C 
ATOM     21  O   UNL     1      33.064  23.759  18.741  0.00  0.00    -0.276 OA
ATOM     22  H   UNL     1      30.823  24.680  18.626  0.00  0.00    +0.145 HD
ATOM     23  H   UNL     1      30.322  23.870  17.172  0.00  0.00    +0.145 HD
ENDBRANCH   1  20
TORSDOF 4
ENDMDL
MODEL 2
REMARK VINA RESULT:      -5.9      5.316      7.645
REMARK  Name = ZINC000826139982
REMARK  4 active torsions:
REMARK  status: ('A' for Active; 'I' for Inactive)
REMARK    1  A    between atoms: C_2  and  C_4
REMARK    2  A    between atoms: C_8  and  C_10
REMARK    3  A    between atoms: C_14  and  S_15
REMARK    4  A    between atoms: S_15  and  C_16
REMARK                            x       y       z     vdW  Elec       q    Type
REMARK                         _______ _______ _______ _____ _____    ______ ____
ROOT
ATOM      1  C   UNL     1      32.169  24.151  10.955  0.00  0.00    +0.093 C 
ATOM      2  C   UNL     1      31.072  24.953  11.654  0.00  0.00    +0.033 C 
ATOM      3  C   UNL     1      31.372  24.691  13.122  0.00  0.00    +0.109 C 
ATOM      4  N   UNL     1      31.671  23.266  13.125  0.00  0.00    -0.297 N 
ATOM      5  C   UNL     1      31.539  22.303  14.118  0.00  0.00    +0.247 C 
ATOM      6  O   UNL     1      31.980  21.162  13.952  0.00  0.00    -0.270 OA
ATOM      7  C   UNL     1      32.335  22.925  11.865  0.00  0.00    +0.120 C 
ENDROOT
BRANCH   5   8
ATOM      8  C   UNL     1      30.888  22.603  15.429  0.00  0.00    +0.038 A 
ATOM      9  C   UNL     1      31.491  23.354  16.437  0.00  0.00    +0.013 A 
ATOM     10  C   UNL     1      30.869  23.524  17.676  0.00  0.00    +0.002 A 
ATOM     11  C   UNL     1      29.571  23.062  17.871  0.00  0.00    +0.015 A 
ATOM     12  C   UNL     1      28.877  22.464  16.815  0.00  0.00    +0.017 A 
ATOM     13  C   UNL     1      29.552  22.198  15.614  0.00  0.00    +0.028 A 
BRANCH  12  14
ATOM     14  S   UNL     1      27.161  22.023  16.986  0.00  0.00    -0.016 S 
BRANCH  14  15
ATOM     15  C   UNL     1      27.289  20.286  17.462  0.00  0.00    +0.448 C 
ATOM     16  F   UNL     1      26.102  19.633  17.492  0.00  0.00    -0.160 F 
ATOM     17  F   UNL     1      28.093  19.608  16.609  0.00  0.00    -0.160 F 
ATOM     18  F   UNL     1      27.832  20.169  18.700  0.00  0.00    -0.160 F 
ENDBRANCH  14  15
ENDBRANCH  12  14
ENDBRANCH   5   8
BRANCH   1  20
ATOM     19  N   UNL     1      33.342  26.103  10.055  0.00  0.00    -0.329 N 
ATOM     20  C   UNL     1      33.435  24.985  10.826  0.00  0.00    +0.215 C 
ATOM     21  O   UNL     1      34.488  24.728  11.401  0.00  0.00    -0.276 OA
ATOM     22  H   UNL     1      34.153  26.707  10.039  0.00  0.00    +0.145 HD
ATOM     23  H   UNL     1      32.470  26.455   9.687  0.00  0.00    +0.145 HD
ENDBRANCH   1  20
TORSDOF 4
ENDMDL
MODEL 3
REMARK VINA RESULT:      -5.9      4.921      7.730
REMARK  Name = ZINC000826139982
REMARK  4 active torsions:
REMARK  status: ('A' for Active; 'I' for Inactive)
REMARK    1  A    between atoms: C_2  and  C_4
REMARK    2  A    between atoms: C_8  and  C_10
REMARK    3  A    between atoms: C_14  and  S_15
REMARK    4  A    between atoms: S_15  and  C_16
REMARK                            x       y       z     vdW  Elec       q    Type
REMARK                         _______ _______ _______ _____ _____    ______ ____
ROOT
ATOM      1  C   UNL     1      35.416  22.962   6.833  0.00  0.00    +0.093 C 
ATOM      2  C   UNL     1      34.001  22.434   7.067  0.00  0.00    +0.033 C 
ATOM      3  C   UNL     1      33.357  23.579   7.833  0.00  0.00    +0.109 C 
ATOM      4  N   UNL     1      34.409  23.955   8.767  0.00  0.00    -0.297 N 
ATOM      5  C   UNL     1      34.353  24.538  10.026  0.00  0.00    +0.247 C 
ATOM      6  O   UNL     1      35.384  24.897  10.602  0.00  0.00    -0.270 OA
ATOM      7  C   UNL     1      35.706  23.757   8.114  0.00  0.00    +0.120 C 
ENDROOT
BRANCH   5   8
ATOM      8  C   UNL     1      33.056  24.781  10.728  0.00  0.00    +0.038 A 
ATOM      9  C   UNL     1      32.168  25.798  10.380  0.00  0.00    +0.013 A 
ATOM     10  C   UNL     1      31.015  26.032  11.132  0.00  0.00    +0.002 A 
ATOM     11  C   UNL     1      30.664  25.158  12.157  0.00  0.00    +0.015 A 
ATOM     12  C   UNL     1      31.445  24.027  12.407  0.00  0.00    +0.017 A 
ATOM     13  C   UNL     1      32.659  23.866  11.722  0.00  0.00    +0.028 A 
BRANCH  12  14
ATOM     14  S   UNL     1      30.926  22.804  13.592  0.00  0.00    -0.016 S 
BRANCH  14  15
ATOM     15  C   UNL     1      32.261  22.899  14.804  0.00  0.00    +0.448 C 
ATOM     16  F   UNL     1      32.782  24.140  14.956  0.00  0.00    -0.160 F 
ATOM     17  F   UNL     1      31.836  22.497  16.026  0.00  0.00    -0.160 F 
ATOM     18  F   UNL     1      33.286  22.084  14.451  0.00  0.00    -0.160 F 
ENDBRANCH  14  15
ENDBRANCH  12  14
ENDBRANCH   5   8
BRANCH   1  20
ATOM     19  N   UNL     1      35.622  25.148   5.750  0.00  0.00    -0.329 N 
ATOM     20  C   UNL     1      35.465  23.808   5.570  0.00  0.00    +0.215 C 
ATOM     21  O   UNL     1      35.414  23.349   4.433  0.00  0.00    -0.276 OA
ATOM     22  H   UNL     1      35.745  25.703   4.913  0.00  0.00    +0.145 HD
ATOM     23  H   UNL     1      35.830  25.570   6.644  0.00  0.00    +0.145 HD
ENDBRANCH   1  20
TORSDOF 4
ENDMDL
MODEL 4
REMARK VINA RESULT:      -5.8      3.081      4.089
REMARK  Name = ZINC000826139982
REMARK  4 active torsions:
REMARK  status: ('A' for Active; 'I' for Inactive)
REMARK    1  A    between atoms: C_2  and  C_4
REMARK    2  A    between atoms: C_8  and  C_10
REMARK    3  A    between atoms: C_14  and  S_15
REMARK    4  A    between atoms: S_15  and  C_16
REMARK                            x       y       z     vdW  Elec       q    Type
REMARK                         _______ _______ _______ _____ _____    ______ ____
ROOT
ATOM      1  C   UNL     1      30.984  18.563  14.738  0.00  0.00    +0.093 C 
ATOM      2  C   UNL     1      29.889  19.566  14.377  0.00  0.00    +0.033 C 
ATOM      3  C   UNL     1      30.495  20.281  13.179  0.00  0.00    +0.109 C 
ATOM      4  N   UNL     1      31.875  20.476  13.603  0.00  0.00    -0.297 N 
ATOM      5  C   UNL     1      32.812  21.442  13.261  0.00  0.00    +0.247 C 
ATOM      6  O   UNL     1      33.983  21.348  13.641  0.00  0.00    -0.270 OA
ATOM      7  C   UNL     1      32.276  19.334  14.428  0.00  0.00    +0.120 C 
ENDROOT
BRANCH   5   8
ATOM      8  C   UNL     1      32.461  22.617  12.407  0.00  0.00    +0.038 A 
ATOM      9  C   UNL     1      31.548  23.601  12.785  0.00  0.00    +0.013 A 
ATOM     10  C   UNL     1      31.193  24.626  11.905  0.00  0.00    +0.002 A 
ATOM     11  C   UNL     1      31.855  24.758  10.688  0.00  0.00    +0.015 A 
ATOM     12  C   UNL     1      32.901  23.890  10.365  0.00  0.00    +0.017 A 
ATOM     13  C   UNL     1      33.171  22.798  11.204  0.00  0.00    +0.028 A 
BRANCH  12  14
ATOM     14  S   UNL     1      33.877  24.144   8.897  0.00  0.00    -0.016 S 
BRANCH  14  15
ATOM     15  C   UNL     1      32.901  23.253   7.667  0.00  0.00    +0.448 C 
ATOM     16  F   UNL     1      32.065  22.325   8.191  0.00  0.00    -0.160 F 
ATOM     17  F   UNL     1      32.140  24.106   6.942  0.00  0.00    -0.160 F 
ATOM     18  F   UNL     1      33.711  22.602   6.795  0.00  0.00    -0.160 F 
ENDBRANCH  14  15
ENDBRANCH  12  14
ENDBRANCH   5   8
BRANCH   1  20
ATOM     19  N   UNL     1      31.928  16.875  13.236  0.00  0.00    -0.329 N 
ATOM     20  C   UNL     1      30.828  17.289  13.922  0.00  0.00    +0.215 C 
ATOM     21  O   UNL     1      29.802  16.617  13.890  0.00  0.00    -0.276 OA
ATOM     22  H   UNL     1      31.855  15.982  12.766  0.00  0.00    +0.145 HD
ATOM     23  H   UNL     1      32.842  17.290  13.346  0.00  0.00    +0.145 HD
ENDBRANCH   1  20
TORSDOF 4
ENDMDL
MODEL 5
REMARK VINA RESULT:      -5.7      3.311      4.382
REMARK  Name = ZINC000826139982
REMARK  4 active torsions:
REMARK  status: ('A' for Active; 'I' for Inactive)
REMARK    1  A    between atoms: C_2  and  C_4
REMARK    2  A    between atoms: C_8  and  C_10
REMARK    3  A    between atoms: C_14  and  S_15
REMARK    4  A    between atoms: S_15  and  C_16
REMARK                            x       y       z     vdW  Elec       q    Type
REMARK                         _______ _______ _______ _____ _____    ______ ____
ROOT
ATOM      1  C   UNL     1      31.072  19.127  14.628  0.00  0.00    +0.093 C 
ATOM      2  C   UNL     1      29.894  20.087  14.469  0.00  0.00    +0.033 C 
ATOM      3  C   UNL     1      30.329  20.931  13.281  0.00  0.00    +0.109 C 
ATOM      4  N   UNL     1      31.734  21.175  13.575  0.00  0.00    -0.297 N 
ATOM      5  C   UNL     1      32.578  22.221  13.222  0.00  0.00    +0.247 C 
ATOM      6  O   UNL     1      33.786  22.168  13.469  0.00  0.00    -0.270 OA
ATOM      7  C   UNL     1      32.281  19.997  14.253  0.00  0.00    +0.120 C 
ENDROOT
BRANCH   5   8
ATOM      8  C   UNL     1      32.076  23.437  12.512  0.00  0.00    +0.038 A 
ATOM      9  C   UNL     1      31.195  24.355  13.083  0.00  0.00    +0.013 A 
ATOM     10  C   UNL     1      30.690  25.423  12.338  0.00  0.00    +0.002 A 
ATOM     11  C   UNL     1      31.172  25.665  11.055  0.00  0.00    +0.015 A 
ATOM     12  C   UNL     1      32.188  24.863  10.529  0.00  0.00    +0.017 A 
ATOM     13  C   UNL     1      32.605  23.728  11.240  0.00  0.00    +0.028 A 
BRANCH  12  14
ATOM     14  S   UNL     1      32.941  25.256   8.964  0.00  0.00    -0.016 S 
BRANCH  14  15
ATOM     15  C   UNL     1      34.168  26.484   9.462  0.00  0.00    +0.448 C 
ATOM     16  F   UNL     1      34.965  26.086  10.483  0.00  0.00    -0.160 F 
ATOM     17  F   UNL     1      34.982  26.803   8.427  0.00  0.00    -0.160 F 
ATOM     18  F   UNL     1      33.563  27.630   9.860  0.00  0.00    -0.160 F 
ENDBRANCH  14  15
ENDBRANCH  12  14
ENDBRANCH   5   8
BRANCH   1  20
ATOM     19  N   UNL     1      29.875  17.072  14.046  0.00  0.00    -0.329 N 
ATOM     20  C   UNL     1      30.894  17.916  13.726  0.00  0.00    +0.215 C 
ATOM     21  O   UNL     1      31.578  17.694  12.731  0.00  0.00    -0.276 OA
ATOM     22  H   UNL     1      29.697  16.316  13.398  0.00  0.00    +0.145 HD
ATOM     23  H   UNL     1      29.181  17.279  14.750  0.00  0.00    +0.145 HD
ENDBRANCH   1  20
TORSDOF 4
ENDMDL
MODEL 6
REMARK VINA RESULT:      -5.6      4.967      7.548
REMARK  Name = ZINC000826139982
REMARK  4 active torsions:
REMARK  status: ('A' for Active; 'I' for Inactive)
REMARK    1  A    between atoms: C_2  and  C_4
REMARK    2  A    between atoms: C_8  and  C_10
REMARK    3  A    between atoms: C_14  and  S_15
REMARK    4  A    between atoms: S_15  and  C_16
REMARK                            x       y       z     vdW  Elec       q    Type
REMARK                         _______ _______ _______ _____ _____    ______ ____
ROOT
ATOM      1  C   UNL     1      33.325  25.219   8.905  0.00  0.00    +0.093 C 
ATOM      2  C   UNL     1      34.319  24.505   9.821  0.00  0.00    +0.033 C 
ATOM      3  C   UNL     1      33.398  23.694  10.719  0.00  0.00    +0.109 C 
ATOM      4  N   UNL     1      32.335  24.646  11.011  0.00  0.00    -0.297 N 
ATOM      5  C   UNL     1      31.482  24.764  12.101  0.00  0.00    +0.247 C 
ATOM      6  O   UNL     1      30.552  25.575  12.089  0.00  0.00    -0.270 OA
ATOM      7  C   UNL     1      32.135  25.497   9.835  0.00  0.00    +0.120 C 
ENDROOT
BRANCH   5   8
ATOM      8  C   UNL     1      31.630  23.908  13.317  0.00  0.00    +0.038 A 
ATOM      9  C   UNL     1      32.726  23.972  14.177  0.00  0.00    +0.013 A 
ATOM     10  C   UNL     1      32.851  23.083  15.247  0.00  0.00    +0.002 A 
ATOM     11  C   UNL     1      31.809  22.212  15.552  0.00  0.00    +0.015 A 
ATOM     12  C   UNL     1      30.624  22.255  14.813  0.00  0.00    +0.017 A 
ATOM     13  C   UNL     1      30.555  23.071  13.673  0.00  0.00    +0.028 A 
BRANCH  12  14
ATOM     14  S   UNL     1      29.215  21.276  15.290  0.00  0.00    -0.016 S 
BRANCH  14  15
ATOM     15  C   UNL     1      28.506  22.296  16.601  0.00  0.00    +0.448 C 
ATOM     16  F   UNL     1      28.899  21.943  17.848  0.00  0.00    -0.160 F 
ATOM     17  F   UNL     1      28.838  23.598  16.435  0.00  0.00    -0.160 F 
ATOM     18  F   UNL     1      27.151  22.224  16.582  0.00  0.00    -0.160 F 
ENDBRANCH  14  15
ENDBRANCH  12  14
ENDBRANCH   5   8
BRANCH   1  20
ATOM     19  N   UNL     1      33.257  24.846   6.486  0.00  0.00    -0.329 N 
ATOM     20  C   UNL     1      32.973  24.338   7.716  0.00  0.00    +0.215 C 
ATOM     21  O   UNL     1      32.500  23.209   7.815  0.00  0.00    -0.276 OA
ATOM     22  H   UNL     1      33.108  24.228   5.699  0.00  0.00    +0.145 HD
ATOM     23  H   UNL     1      33.789  25.692   6.342  0.00  0.00    +0.145 HD
ENDBRANCH   1  20
TORSDOF 4
ENDMDL
MODEL 7
REMARK VINA RESULT:      -5.4      1.871      2.076
REMARK  Name = ZINC000826139982
REMARK  4 active torsions:
REMARK  status: ('A' for Active; 'I' for Inactive)
REMARK    1  A    between atoms: C_2  and  C_4
REMARK    2  A    between atoms: C_8  and  C_10
REMARK    3  A    between atoms: C_14  and  S_15
REMARK    4  A    between atoms: S_15  and  C_16
REMARK                            x       y       z     vdW  Elec       q    Type
REMARK                         _______ _______ _______ _____ _____    ______ ____
ROOT
ATOM      1  C   UNL     1      32.912  22.409  16.715  0.00  0.00    +0.093 C 
ATOM      2  C   UNL     1      33.971  23.082  15.842  0.00  0.00    +0.033 C 
ATOM      3  C   UNL     1      33.131  24.022  14.991  0.00  0.00    +0.109 C 
ATOM      4  N   UNL     1      31.990  23.187  14.645  0.00  0.00    -0.297 N 
ATOM      5  C   UNL     1      31.136  23.208  13.550  0.00  0.00    +0.247 C 
ATOM      6  O   UNL     1      30.137  22.484  13.514  0.00  0.00    -0.270 OA
ATOM      7  C   UNL     1      31.707  22.292  15.770  0.00  0.00    +0.120 C 
ENDROOT
BRANCH   5   8
ATOM      8  C   UNL     1      31.367  24.116  12.385  0.00  0.00    +0.038 A 
ATOM      9  C   UNL     1      30.763  25.365  12.248  0.00  0.00    +0.013 A 
ATOM     10  C   UNL     1      30.947  26.128  11.093  0.00  0.00    +0.002 A 
ATOM     11  C   UNL     1      31.852  25.711  10.121  0.00  0.00    +0.015 A 
ATOM     12  C   UNL     1      32.604  24.551  10.321  0.00  0.00    +0.017 A 
ATOM     13  C   UNL     1      32.328  23.736  11.429  0.00  0.00    +0.028 A 
BRANCH  12  14
ATOM     14  S   UNL     1      33.890  24.090   9.178  0.00  0.00    -0.016 S 
BRANCH  14  15
ATOM     15  C   UNL     1      35.073  25.433   9.418  0.00  0.00    +0.448 C 
ATOM     16  F   UNL     1      35.117  25.911  10.685  0.00  0.00    -0.160 F 
ATOM     17  F   UNL     1      36.328  25.036   9.100  0.00  0.00    -0.160 F 
ATOM     18  F   UNL     1      34.772  26.483   8.614  0.00  0.00    -0.160 F 
ENDBRANCH  14  15
ENDBRANCH  12  14
ENDBRANCH   5   8
BRANCH   1  20
ATOM     19  N   UNL     1      31.330  23.575  18.177  0.00  0.00    -0.329 N 
ATOM     20  C   UNL     1      32.633  23.249  17.952  0.00  0.00    +0.215 C 
ATOM     21  O   UNL     1      33.494  23.598  18.754  0.00  0.00    -0.276 OA
ATOM     22  H   UNL     1      31.130  24.055  19.044  0.00  0.00    +0.145 HD
ATOM     23  H   UNL     1      30.560  23.188  17.650  0.00  0.00    +0.145 HD
ENDBRANCH   1  20
TORSDOF 4
ENDMDL
MODEL 8
REMARK VINA RESULT:      -5.4      4.227      6.972
REMARK  Name = ZINC000826139982
REMARK  4 active torsions:
REMARK  status: ('A' for Active; 'I' for Inactive)
REMARK    1  A    between atoms: C_2  and  C_4
REMARK    2  A    between atoms: C_8  and  C_10
REMARK    3  A    between atoms: C_14  and  S_15
REMARK    4  A    between atoms: S_15  and  C_16
REMARK                            x       y       z     vdW  Elec       q    Type
REMARK                         _______ _______ _______ _____ _____    ______ ____
ROOT
ATOM      1  C   UNL     1      33.463  25.282   8.792  0.00  0.00    +0.093 C 
ATOM      2  C   UNL     1      34.458  24.577   9.714  0.00  0.00    +0.033 C 
ATOM      3  C   UNL     1      33.541  23.729  10.582  0.00  0.00    +0.109 C 
ATOM      4  N   UNL     1      32.451  24.651  10.869  0.00  0.00    -0.297 N 
ATOM      5  C   UNL     1      31.576  24.730  11.945  0.00  0.00    +0.247 C 
ATOM      6  O   UNL     1      30.627  25.519  11.930  0.00  0.00    -0.270 OA
ATOM      7  C   UNL     1      32.251  25.516   9.704  0.00  0.00    +0.120 C 
ENDROOT
BRANCH   5   8
ATOM      8  C   UNL     1      31.723  23.858  13.150  0.00  0.00    +0.038 A 
ATOM      9  C   UNL     1      32.692  24.056  14.133  0.00  0.00    +0.013 A 
ATOM     10  C   UNL     1      32.838  23.154  15.189  0.00  0.00    +0.002 A 
ATOM     11  C   UNL     1      31.922  22.119  15.350  0.00  0.00    +0.015 A 
ATOM     12  C   UNL     1      30.835  22.007  14.479  0.00  0.00    +0.017 A 
ATOM     13  C   UNL     1      30.763  22.849  13.359  0.00  0.00    +0.028 A 
BRANCH  12  14
ATOM     14  S   UNL     1      29.557  20.801  14.766  0.00  0.00    -0.016 S 
BRANCH  14  15
ATOM     15  C   UNL     1      30.352  19.294  14.168  0.00  0.00    +0.448 C 
ATOM     16  F   UNL     1      31.401  18.887  14.923  0.00  0.00    -0.160 F 
ATOM     17  F   UNL     1      29.472  18.266  14.125  0.00  0.00    -0.160 F 
ATOM     18  F   UNL     1      30.822  19.470  12.907  0.00  0.00    -0.160 F 
ENDBRANCH  14  15
ENDBRANCH  12  14
ENDBRANCH   5   8
BRANCH   1  20
ATOM     19  N   UNL     1      33.747  24.775   6.413  0.00  0.00    -0.329 N 
ATOM     20  C   UNL     1      33.153  24.412   7.583  0.00  0.00    +0.215 C 
ATOM     21  O   UNL     1      32.451  23.407   7.622  0.00  0.00    -0.276 OA
ATOM     22  H   UNL     1      33.616  24.150   5.629  0.00  0.00    +0.145 HD
ATOM     23  H   UNL     1      34.457  25.490   6.347  0.00  0.00    +0.145 HD
ENDBRANCH   1  20
TORSDOF 4
ENDMDL
MODEL 9
REMARK VINA RESULT:      -5.4      6.707      8.050
REMARK  Name = ZINC000826139982
REMARK  4 active torsions:
REMARK  status: ('A' for Active; 'I' for Inactive)
REMARK    1  A    between atoms: C_2  and  C_4
REMARK    2  A    between atoms: C_8  and  C_10
REMARK    3  A    between atoms: C_14  and  S_15
REMARK    4  A    between atoms: S_15  and  C_16
REMARK                            x       y       z     vdW  Elec       q    Type
REMARK                         _______ _______ _______ _____ _____    ______ ____
ROOT
ATOM      1  C   UNL     1      35.358  15.704  13.943  0.00  0.00    +0.093 C 
ATOM      2  C   UNL     1      35.264  17.060  14.642  0.00  0.00    +0.033 C 
ATOM      3  C   UNL     1      33.811  17.086  15.091  0.00  0.00    +0.109 C 
ATOM      4  N   UNL     1      33.118  16.555  13.926  0.00  0.00    -0.297 N 
ATOM      5  C   UNL     1      31.827  16.756  13.454  0.00  0.00    +0.247 C 
ATOM      6  O   UNL     1      31.392  16.099  12.505  0.00  0.00    -0.270 OA
ATOM      7  C   UNL     1      33.977  15.555  13.287  0.00  0.00    +0.120 C 
ENDROOT
BRANCH   5   8
ATOM      8  C   UNL     1      30.903  17.750  14.081  0.00  0.00    +0.038 A 
ATOM      9  C   UNL     1      30.008  17.434  15.103  0.00  0.00    +0.013 A 
ATOM     10  C   UNL     1      29.106  18.384  15.586  0.00  0.00    +0.002 A 
ATOM     11  C   UNL     1      29.185  19.703  15.149  0.00  0.00    +0.015 A 
ATOM     12  C   UNL     1      30.192  20.083  14.258  0.00  0.00    +0.017 A 
ATOM     13  C   UNL     1      31.018  19.099  13.695  0.00  0.00    +0.028 A 
BRANCH  12  14
ATOM     14  S   UNL     1      30.424  21.794  13.819  0.00  0.00    -0.016 S 
BRANCH  14  15
ATOM     15  C   UNL     1      31.307  22.413  15.267  0.00  0.00    +0.448 C 
ATOM     16  F   UNL     1      30.513  22.653  16.338  0.00  0.00    -0.160 F 
ATOM     17  F   UNL     1      32.256  21.534  15.668  0.00  0.00    -0.160 F 
ATOM     18  F   UNL     1      31.940  23.578  14.979  0.00  0.00    -0.160 F 
ENDBRANCH  14  15
ENDBRANCH  12  14
ENDBRANCH   5   8
BRANCH   1  20
ATOM     19  N   UNL     1      35.120  13.388  14.705  0.00  0.00    -0.329 N 
ATOM     20  C   UNL     1      35.670  14.609  14.952  0.00  0.00    +0.215 C 
ATOM     21  O   UNL     1      36.406  14.759  15.922  0.00  0.00    -0.276 OA
ATOM     22  H   UNL     1      35.397  12.636  15.322  0.00  0.00    +0.145 HD
ATOM     23  H   UNL     1      34.640  13.157  13.847  0.00  0.00    +0.145 HD
ENDBRANCH   1  20
TORSDOF 4
ENDMDL
