MODEL 1
REMARK VINA RESULT:      -6.4      0.000      0.000
REMARK  Name = ZINC000870248439
REMARK  2 active torsions:
REMARK  status: ('A' for Active; 'I' for Inactive)
REMARK    1  A    between atoms: C_2  and  C_4
REMARK    2  A    between atoms: C_7  and  C_8
REMARK                            x       y       z     vdW  Elec       q    Type
REMARK                         _______ _______ _______ _____ _____    ______ ____
ROOT
ATOM      1  C   UNL     1      33.632  17.247  14.679  0.00  0.00    +0.247 C 
ATOM      2  O   UNL     1      33.994  16.736  15.738  0.00  0.00    -0.270 OA
ATOM      3  N   UNL     1      33.804  16.631  13.432  0.00  0.00    -0.297 N 
ATOM      4  C   UNL     1      33.383  17.178  12.145  0.00  0.00    +0.108 C 
ATOM      5  C   UNL     1      32.715  16.158  11.245  0.00  0.00    +0.026 C 
ATOM      6  C   UNL     1      33.552  14.878  11.076  0.00  0.00    -0.025 C 
ATOM      7  C   UNL     1      32.672  13.844  10.337  0.00  0.00    +0.017 C 
ATOM      8  C   UNL     1      33.367  12.524  10.032  0.00  0.00    +0.069 C 
ATOM      9  S   UNL     1      34.838  12.737   8.989  0.00  0.00    -0.161 S 
ATOM     10  C   UNL     1      35.703  14.009   9.947  0.00  0.00    +0.069 C 
ATOM     11  C   UNL     1      34.803  15.205  10.221  0.00  0.00    +0.017 C 
ATOM     12  C   UNL     1      33.913  14.364  12.499  0.00  0.00    +0.026 C 
ATOM     13  C   UNL     1      34.610  15.418  13.358  0.00  0.00    +0.108 C 
ENDROOT
BRANCH   1  17
ATOM     14  C   UNL     1      31.594  20.997  14.524  0.00  0.00    +0.037 A 
ATOM     15  C   UNL     1      32.976  20.976  14.710  0.00  0.00    +0.014 A 
ATOM     16  C   UNL     1      33.626  19.760  14.878  0.00  0.00    +0.014 A 
ATOM     17  C   UNL     1      32.926  18.554  14.749  0.00  0.00    +0.037 A 
ATOM     18  C   UNL     1      31.533  18.574  14.629  0.00  0.00    +0.014 A 
ATOM     19  C   UNL     1      30.866  19.799  14.529  0.00  0.00    +0.014 A 
BRANCH  14  21
ATOM     20  N   UNL     1      30.890  23.149  15.404  0.00  0.00    -0.325 N 
ATOM     21  C   UNL     1      30.889  22.286  14.339  0.00  0.00    +0.242 C 
ATOM     22  O   UNL     1      30.357  22.578  13.275  0.00  0.00    -0.270 OA
ATOM     23  H   UNL     1      30.486  24.064  15.225  0.00  0.00    +0.145 HD
ATOM     24  H   UNL     1      31.533  23.062  16.172  0.00  0.00    +0.145 HD
ENDBRANCH  14  21
ENDBRANCH   1  17
TORSDOF 2
ENDMDL
MODEL 2
REMARK VINA RESULT:      -6.1      2.320      3.152
REMARK  Name = ZINC000870248439
REMARK  2 active torsions:
REMARK  status: ('A' for Active; 'I' for Inactive)
REMARK    1  A    between atoms: C_2  and  C_4
REMARK    2  A    between atoms: C_7  and  C_8
REMARK                            x       y       z     vdW  Elec       q    Type
REMARK                         _______ _______ _______ _____ _____    ______ ____
ROOT
ATOM      1  C   UNL     1      33.119  18.059  12.879  0.00  0.00    +0.247 C 
ATOM      2  O   UNL     1      33.161  18.421  11.703  0.00  0.00    -0.270 OA
ATOM      3  N   UNL     1      33.604  16.820  13.318  0.00  0.00    -0.297 N 
ATOM      4  C   UNL     1      33.597  16.340  14.697  0.00  0.00    +0.108 C 
ATOM      5  C   UNL     1      34.893  15.674  15.112  0.00  0.00    +0.026 C 
ATOM      6  C   UNL     1      35.338  14.578  14.128  0.00  0.00    -0.025 C 
ATOM      7  C   UNL     1      36.765  14.145  14.533  0.00  0.00    +0.017 C 
ATOM      8  C   UNL     1      37.346  13.015  13.693  0.00  0.00    +0.069 C 
ATOM      9  S   UNL     1      36.343  11.504  13.771  0.00  0.00    -0.161 S 
ATOM     10  C   UNL     1      34.723  12.196  13.351  0.00  0.00    +0.069 C 
ATOM     11  C   UNL     1      34.372  13.372  14.250  0.00  0.00    +0.017 C 
ATOM     12  C   UNL     1      35.345  15.203  12.704  0.00  0.00    +0.026 C 
ATOM     13  C   UNL     1      34.008  15.836  12.320  0.00  0.00    +0.108 C 
ENDROOT
BRANCH   1  17
ATOM     14  C   UNL     1      31.466  21.019  15.476  0.00  0.00    +0.037 A 
ATOM     15  C   UNL     1      32.840  21.012  15.233  0.00  0.00    +0.014 A 
ATOM     16  C   UNL     1      33.397  19.983  14.485  0.00  0.00    +0.014 A 
ATOM     17  C   UNL     1      32.580  19.019  13.878  0.00  0.00    +0.037 A 
ATOM     18  C   UNL     1      31.214  18.987  14.175  0.00  0.00    +0.014 A 
ATOM     19  C   UNL     1      30.660  19.983  14.986  0.00  0.00    +0.014 A 
BRANCH  14  21
ATOM     20  N   UNL     1      30.946  23.376  15.746  0.00  0.00    -0.325 N 
ATOM     21  C   UNL     1      30.859  22.113  16.269  0.00  0.00    +0.242 C 
ATOM     22  O   UNL     1      30.281  21.892  17.326  0.00  0.00    -0.270 OA
ATOM     23  H   UNL     1      30.441  24.096  16.256  0.00  0.00    +0.145 HD
ATOM     24  H   UNL     1      31.161  23.550  14.779  0.00  0.00    +0.145 HD
ENDBRANCH  14  21
ENDBRANCH   1  17
TORSDOF 2
ENDMDL
MODEL 3
REMARK VINA RESULT:      -6.1      5.056      6.250
REMARK  Name = ZINC000870248439
REMARK  2 active torsions:
REMARK  status: ('A' for Active; 'I' for Inactive)
REMARK    1  A    between atoms: C_2  and  C_4
REMARK    2  A    between atoms: C_7  and  C_8
REMARK                            x       y       z     vdW  Elec       q    Type
REMARK                         _______ _______ _______ _____ _____    ______ ____
ROOT
ATOM      1  C   UNL     1      32.991  19.956  12.015  0.00  0.00    +0.247 C 
ATOM      2  O   UNL     1      32.878  18.763  11.737  0.00  0.00    -0.270 OA
ATOM      3  N   UNL     1      33.550  20.898  11.141  0.00  0.00    -0.297 N 
ATOM      4  C   UNL     1      33.697  22.327  11.406  0.00  0.00    +0.108 C 
ATOM      5  C   UNL     1      33.311  23.202  10.231  0.00  0.00    +0.026 C 
ATOM      6  C   UNL     1      34.015  22.787   8.927  0.00  0.00    -0.025 C 
ATOM      7  C   UNL     1      33.372  23.596   7.777  0.00  0.00    +0.017 C 
ATOM      8  C   UNL     1      33.992  23.351   6.408  0.00  0.00    +0.069 C 
ATOM      9  S   UNL     1      35.758  23.767   6.359  0.00  0.00    -0.161 S 
ATOM     10  C   UNL     1      36.330  22.812   7.789  0.00  0.00    +0.069 C 
ATOM     11  C   UNL     1      35.520  23.139   9.035  0.00  0.00    +0.017 C 
ATOM     12  C   UNL     1      33.766  21.265   8.725  0.00  0.00    +0.026 C 
ATOM     13  C   UNL     1      34.196  20.422   9.924  0.00  0.00    +0.108 C 
ENDROOT
BRANCH   1  17
ATOM     14  C   UNL     1      31.447  21.606  15.639  0.00  0.00    +0.037 A 
ATOM     15  C   UNL     1      32.797  21.266  15.563  0.00  0.00    +0.014 A 
ATOM     16  C   UNL     1      33.278  20.623  14.429  0.00  0.00    +0.014 A 
ATOM     17  C   UNL     1      32.447  20.415  13.321  0.00  0.00    +0.037 A 
ATOM     18  C   UNL     1      31.080  20.694  13.421  0.00  0.00    +0.014 A 
ATOM     19  C   UNL     1      30.579  21.280  14.588  0.00  0.00    +0.014 A 
BRANCH  14  21
ATOM     20  N   UNL     1      31.658  23.350  17.317  0.00  0.00    -0.325 N 
ATOM     21  C   UNL     1      30.922  22.297  16.840  0.00  0.00    +0.242 C 
ATOM     22  O   UNL     1      29.867  21.961  17.361  0.00  0.00    -0.270 OA
ATOM     23  H   UNL     1      31.233  23.869  18.081  0.00  0.00    +0.145 HD
ATOM     24  H   UNL     1      32.361  23.814  16.768  0.00  0.00    +0.145 HD
ENDBRANCH  14  21
ENDBRANCH   1  17
TORSDOF 2
ENDMDL
MODEL 4
REMARK VINA RESULT:      -6.0      3.111      4.636
REMARK  Name = ZINC000870248439
REMARK  2 active torsions:
REMARK  status: ('A' for Active; 'I' for Inactive)
REMARK    1  A    between atoms: C_2  and  C_4
REMARK    2  A    between atoms: C_7  and  C_8
REMARK                            x       y       z     vdW  Elec       q    Type
REMARK                         _______ _______ _______ _____ _____    ______ ____
ROOT
ATOM      1  C   UNL     1      32.166  21.751  13.942  0.00  0.00    +0.247 C 
ATOM      2  O   UNL     1      31.704  22.447  13.037  0.00  0.00    -0.270 OA
ATOM      3  N   UNL     1      32.387  20.374  13.813  0.00  0.00    -0.297 N 
ATOM      4  C   UNL     1      32.946  19.499  14.840  0.00  0.00    +0.108 C 
ATOM      5  C   UNL     1      33.981  18.528  14.310  0.00  0.00    +0.026 C 
ATOM      6  C   UNL     1      33.479  17.732  13.093  0.00  0.00    -0.025 C 
ATOM      7  C   UNL     1      34.687  16.959  12.516  0.00  0.00    +0.017 C 
ATOM      8  C   UNL     1      34.357  16.064  11.328  0.00  0.00    +0.069 C 
ATOM      9  S   UNL     1      33.124  14.796  11.736  0.00  0.00    -0.161 S 
ATOM     10  C   UNL     1      31.836  15.849  12.454  0.00  0.00    +0.069 C 
ATOM     11  C   UNL     1      32.394  16.730  13.562  0.00  0.00    +0.017 C 
ATOM     12  C   UNL     1      32.943  18.756  12.053  0.00  0.00    +0.026 C 
ATOM     13  C   UNL     1      31.882  19.694  12.626  0.00  0.00    +0.108 C 
ENDROOT
BRANCH   1  17
ATOM     14  C   UNL     1      33.094  23.980  17.465  0.00  0.00    +0.037 A 
ATOM     15  C   UNL     1      34.008  23.954  16.411  0.00  0.00    +0.014 A 
ATOM     16  C   UNL     1      33.763  23.138  15.313  0.00  0.00    +0.014 A 
ATOM     17  C   UNL     1      32.559  22.431  15.204  0.00  0.00    +0.037 A 
ATOM     18  C   UNL     1      31.674  22.404  16.287  0.00  0.00    +0.014 A 
ATOM     19  C   UNL     1      31.950  23.171  17.424  0.00  0.00    +0.014 A 
BRANCH  14  21
ATOM     20  N   UNL     1      32.416  25.831  18.884  0.00  0.00    -0.325 N 
ATOM     21  C   UNL     1      33.340  24.849  18.638  0.00  0.00    +0.242 C 
ATOM     22  O   UNL     1      34.307  24.678  19.370  0.00  0.00    -0.270 OA
ATOM     23  H   UNL     1      32.552  26.353  19.746  0.00  0.00    +0.145 HD
ATOM     24  H   UNL     1      31.495  25.823  18.480  0.00  0.00    +0.145 HD
ENDBRANCH  14  21
ENDBRANCH   1  17
TORSDOF 2
ENDMDL
MODEL 5
REMARK VINA RESULT:      -6.0      1.929      2.485
REMARK  Name = ZINC000870248439
REMARK  2 active torsions:
REMARK  status: ('A' for Active; 'I' for Inactive)
REMARK    1  A    between atoms: C_2  and  C_4
REMARK    2  A    between atoms: C_7  and  C_8
REMARK                            x       y       z     vdW  Elec       q    Type
REMARK                         _______ _______ _______ _____ _____    ______ ____
ROOT
ATOM      1  C   UNL     1      33.136  19.009  11.931  0.00  0.00    +0.247 C 
ATOM      2  O   UNL     1      33.558  19.752  11.045  0.00  0.00    -0.270 OA
ATOM      3  N   UNL     1      33.243  17.612  11.875  0.00  0.00    -0.297 N 
ATOM      4  C   UNL     1      32.778  16.679  12.897  0.00  0.00    +0.108 C 
ATOM      5  C   UNL     1      33.767  15.572  13.200  0.00  0.00    +0.026 C 
ATOM      6  C   UNL     1      34.244  14.841  11.932  0.00  0.00    -0.025 C 
ATOM      7  C   UNL     1      35.402  13.905  12.347  0.00  0.00    +0.017 C 
ATOM      8  C   UNL     1      35.962  13.053  11.216  0.00  0.00    +0.069 C 
ATOM      9  S   UNL     1      34.709  11.968  10.476  0.00  0.00    -0.161 S 
ATOM     10  C   UNL     1      33.420  13.192  10.126  0.00  0.00    +0.069 C 
ATOM     11  C   UNL     1      33.070  13.999  11.367  0.00  0.00    +0.017 C 
ATOM     12  C   UNL     1      34.748  15.919  10.932  0.00  0.00    +0.026 C 
ATOM     13  C   UNL     1      33.706  16.997  10.637  0.00  0.00    +0.108 C 
ENDROOT
BRANCH   1  17
ATOM     14  C   UNL     1      31.424  21.130  15.218  0.00  0.00    +0.037 A 
ATOM     15  C   UNL     1      32.795  20.875  15.207  0.00  0.00    +0.014 A 
ATOM     16  C   UNL     1      33.337  20.086  14.200  0.00  0.00    +0.014 A 
ATOM     17  C   UNL     1      32.541  19.640  13.138  0.00  0.00    +0.037 A 
ATOM     18  C   UNL     1      31.157  19.837  13.182  0.00  0.00    +0.014 A 
ATOM     19  C   UNL     1      30.598  20.573  14.232  0.00  0.00    +0.014 A 
BRANCH  14  21
ATOM     20  N   UNL     1      30.875  23.329  16.090  0.00  0.00    -0.325 N 
ATOM     21  C   UNL     1      30.834  21.973  16.283  0.00  0.00    +0.242 C 
ATOM     22  O   UNL     1      30.309  21.480  17.273  0.00  0.00    -0.270 OA
ATOM     23  H   UNL     1      30.382  23.884  16.784  0.00  0.00    +0.145 HD
ATOM     24  H   UNL     1      31.044  23.745  15.190  0.00  0.00    +0.145 HD
ENDBRANCH  14  21
ENDBRANCH   1  17
TORSDOF 2
ENDMDL
MODEL 6
REMARK VINA RESULT:      -6.0      4.495      8.644
REMARK  Name = ZINC000870248439
REMARK  2 active torsions:
REMARK  status: ('A' for Active; 'I' for Inactive)
REMARK    1  A    between atoms: C_2  and  C_4
REMARK    2  A    between atoms: C_7  and  C_8
REMARK                            x       y       z     vdW  Elec       q    Type
REMARK                         _______ _______ _______ _____ _____    ______ ____
ROOT
ATOM      1  C   UNL     1      31.281  21.153  14.725  0.00  0.00    +0.247 C 
ATOM      2  O   UNL     1      30.093  21.462  14.822  0.00  0.00    -0.270 OA
ATOM      3  N   UNL     1      32.316  21.893  15.313  0.00  0.00    -0.297 N 
ATOM      4  C   UNL     1      33.739  21.571  15.248  0.00  0.00    +0.108 C 
ATOM      5  C   UNL     1      34.455  21.726  16.575  0.00  0.00    +0.026 C 
ATOM      6  C   UNL     1      34.208  23.098  17.225  0.00  0.00    -0.025 C 
ATOM      7  C   UNL     1      34.794  23.044  18.655  0.00  0.00    +0.017 C 
ATOM      8  C   UNL     1      34.688  24.350  19.431  0.00  0.00    +0.069 C 
ATOM      9  S   UNL     1      35.550  25.720  18.610  0.00  0.00    -0.161 S 
ATOM     10  C   UNL     1      34.812  25.592  16.960  0.00  0.00    +0.069 C 
ATOM     11  C   UNL     1      34.945  24.184  16.400  0.00  0.00    +0.017 C 
ATOM     12  C   UNL     1      32.670  23.322  17.277  0.00  0.00    +0.026 C 
ATOM     13  C   UNL     1      31.998  23.184  15.912  0.00  0.00    +0.108 C 
ENDROOT
BRANCH   1  17
ATOM     14  C   UNL     1      32.514  17.522  12.845  0.00  0.00    +0.037 A 
ATOM     15  C   UNL     1      32.821  18.743  12.244  0.00  0.00    +0.014 A 
ATOM     16  C   UNL     1      32.322  19.919  12.789  0.00  0.00    +0.014 A 
ATOM     17  C   UNL     1      31.612  19.900  13.997  0.00  0.00    +0.037 A 
ATOM     18  C   UNL     1      31.247  18.675  14.563  0.00  0.00    +0.014 A 
ATOM     19  C   UNL     1      31.690  17.484  13.978  0.00  0.00    +0.014 A 
BRANCH  14  21
ATOM     20  N   UNL     1      32.125  15.380  11.769  0.00  0.00    -0.325 N 
ATOM     21  C   UNL     1      33.043  16.261  12.277  0.00  0.00    +0.242 C 
ATOM     22  O   UNL     1      34.245  16.033  12.237  0.00  0.00    -0.270 OA
ATOM     23  H   UNL     1      32.514  14.567  11.298  0.00  0.00    +0.145 HD
ATOM     24  H   UNL     1      31.183  15.648  11.540  0.00  0.00    +0.145 HD
ENDBRANCH  14  21
ENDBRANCH   1  17
TORSDOF 2
ENDMDL
MODEL 7
REMARK VINA RESULT:      -5.9      3.835      8.042
REMARK  Name = ZINC000870248439
REMARK  2 active torsions:
REMARK  status: ('A' for Active; 'I' for Inactive)
REMARK    1  A    between atoms: C_2  and  C_4
REMARK    2  A    between atoms: C_7  and  C_8
REMARK                            x       y       z     vdW  Elec       q    Type
REMARK                         _______ _______ _______ _____ _____    ______ ____
ROOT
ATOM      1  C   UNL     1      33.619  17.416  10.740  0.00  0.00    +0.247 C 
ATOM      2  O   UNL     1      33.969  17.977   9.701  0.00  0.00    -0.270 OA
ATOM      3  N   UNL     1      33.282  18.110  11.909  0.00  0.00    -0.297 N 
ATOM      4  C   UNL     1      32.845  17.505  13.165  0.00  0.00    +0.108 C 
ATOM      5  C   UNL     1      31.668  18.216  13.801  0.00  0.00    +0.026 C 
ATOM      6  C   UNL     1      31.899  19.731  13.946  0.00  0.00    -0.025 C 
ATOM      7  C   UNL     1      30.559  20.362  14.388  0.00  0.00    +0.017 C 
ATOM      8  C   UNL     1      30.619  21.863  14.637  0.00  0.00    +0.069 C 
ATOM      9  S   UNL     1      31.810  22.306  15.934  0.00  0.00    -0.161 S 
ATOM     10  C   UNL     1      33.272  21.439  15.307  0.00  0.00    +0.069 C 
ATOM     11  C   UNL     1      32.974  19.972  15.037  0.00  0.00    +0.017 C 
ATOM     12  C   UNL     1      32.322  20.275  12.553  0.00  0.00    +0.026 C 
ATOM     13  C   UNL     1      33.529  19.546  11.965  0.00  0.00    +0.108 C 
ENDROOT
BRANCH   1  17
ATOM     14  C   UNL     1      33.332  13.175  10.326  0.00  0.00    +0.037 A 
ATOM     15  C   UNL     1      32.166  13.940  10.362  0.00  0.00    +0.014 A 
ATOM     16  C   UNL     1      32.249  15.303  10.613  0.00  0.00    +0.014 A 
ATOM     17  C   UNL     1      33.496  15.934  10.717  0.00  0.00    +0.037 A 
ATOM     18  C   UNL     1      34.660  15.161  10.747  0.00  0.00    +0.014 A 
ATOM     19  C   UNL     1      34.575  13.777  10.563  0.00  0.00    +0.014 A 
BRANCH  14  21
ATOM     20  N   UNL     1      33.242  11.339   8.738  0.00  0.00    -0.325 N 
ATOM     21  C   UNL     1      33.258  11.721  10.054  0.00  0.00    +0.242 C 
ATOM     22  O   UNL     1      33.241  10.900  10.962  0.00  0.00    -0.270 OA
ATOM     23  H   UNL     1      33.287  10.337   8.573  0.00  0.00    +0.145 HD
ATOM     24  H   UNL     1      33.525  11.950   7.991  0.00  0.00    +0.145 HD
ENDBRANCH  14  21
ENDBRANCH   1  17
TORSDOF 2
ENDMDL
MODEL 8
REMARK VINA RESULT:      -5.9      1.815      2.350
REMARK  Name = ZINC000870248439
REMARK  2 active torsions:
REMARK  status: ('A' for Active; 'I' for Inactive)
REMARK    1  A    between atoms: C_2  and  C_4
REMARK    2  A    between atoms: C_7  and  C_8
REMARK                            x       y       z     vdW  Elec       q    Type
REMARK                         _______ _______ _______ _____ _____    ______ ____
ROOT
ATOM      1  C   UNL     1      34.298  16.653  15.234  0.00  0.00    +0.247 C 
ATOM      2  O   UNL     1      34.687  16.617  16.402  0.00  0.00    -0.270 OA
ATOM      3  N   UNL     1      34.689  15.718  14.266  0.00  0.00    -0.297 N 
ATOM      4  C   UNL     1      34.252  15.698  12.873  0.00  0.00    +0.108 C 
ATOM      5  C   UNL     1      33.889  14.315  12.373  0.00  0.00    +0.026 C 
ATOM      6  C   UNL     1      34.994  13.278  12.641  0.00  0.00    -0.025 C 
ATOM      7  C   UNL     1      34.415  11.886  12.298  0.00  0.00    +0.017 C 
ATOM      8  C   UNL     1      35.402  10.736  12.452  0.00  0.00    +0.069 C 
ATOM      9  S   UNL     1      36.861  10.925  11.389  0.00  0.00    -0.161 S 
ATOM     10  C   UNL     1      37.358  12.604  11.856  0.00  0.00    +0.069 C 
ATOM     11  C   UNL     1      36.202  13.583  11.718  0.00  0.00    +0.017 C 
ATOM     12  C   UNL     1      35.356  13.359  14.151  0.00  0.00    +0.026 C 
ATOM     13  C   UNL     1      35.743  14.767  14.601  0.00  0.00    +0.108 C 
ENDROOT
BRANCH   1  17
ATOM     14  C   UNL     1      31.436  19.741  14.518  0.00  0.00    +0.037 A 
ATOM     15  C   UNL     1      31.044  18.406  14.415  0.00  0.00    +0.014 A 
ATOM     16  C   UNL     1      31.996  17.402  14.532  0.00  0.00    +0.014 A 
ATOM     17  C   UNL     1      33.321  17.711  14.864  0.00  0.00    +0.037 A 
ATOM     18  C   UNL     1      33.729  19.048  14.901  0.00  0.00    +0.014 A 
ATOM     19  C   UNL     1      32.786  20.064  14.716  0.00  0.00    +0.014 A 
BRANCH  14  21
ATOM     20  N   UNL     1      29.738  21.147  15.537  0.00  0.00    -0.325 N 
ATOM     21  C   UNL     1      30.430  20.822  14.400  0.00  0.00    +0.242 C 
ATOM     22  O   UNL     1      30.249  21.415  13.345  0.00  0.00    -0.270 OA
ATOM     23  H   UNL     1      29.123  21.952  15.459  0.00  0.00    +0.145 HD
ATOM     24  H   UNL     1      30.046  20.880  16.456  0.00  0.00    +0.145 HD
ENDBRANCH  14  21
ENDBRANCH   1  17
TORSDOF 2
ENDMDL
MODEL 9
REMARK VINA RESULT:      -5.9      7.497     11.273
REMARK  Name = ZINC000870248439
REMARK  2 active torsions:
REMARK  status: ('A' for Active; 'I' for Inactive)
REMARK    1  A    between atoms: C_2  and  C_4
REMARK    2  A    between atoms: C_7  and  C_8
REMARK                            x       y       z     vdW  Elec       q    Type
REMARK                         _______ _______ _______ _____ _____    ______ ____
ROOT
ATOM      1  C   UNL     1      34.215  23.186  18.251  0.00  0.00    +0.247 C 
ATOM      2  O   UNL     1      34.768  22.172  18.678  0.00  0.00    -0.270 OA
ATOM      3  N   UNL     1      34.444  24.464  18.778  0.00  0.00    -0.297 N 
ATOM      4  C   UNL     1      33.833  25.704  18.307  0.00  0.00    +0.108 C 
ATOM      5  C   UNL     1      34.811  26.855  18.193  0.00  0.00    +0.026 C 
ATOM      6  C   UNL     1      35.625  27.071  19.481  0.00  0.00    -0.025 C 
ATOM      7  C   UNL     1      36.728  28.106  19.162  0.00  0.00    +0.017 C 
ATOM      8  C   UNL     1      37.601  28.486  20.351  0.00  0.00    +0.069 C 
ATOM      9  S   UNL     1      36.643  29.209  21.713  0.00  0.00    -0.161 S 
ATOM     10  C   UNL     1      35.375  27.928  21.901  0.00  0.00    +0.069 C 
ATOM     11  C   UNL     1      34.685  27.633  20.579  0.00  0.00    +0.017 C 
ATOM     12  C   UNL     1      36.257  25.706  19.870  0.00  0.00    +0.026 C 
ATOM     13  C   UNL     1      35.228  24.584  20.001  0.00  0.00    +0.108 C 
ENDROOT
BRANCH   1  17
ATOM     14  C   UNL     1      31.632  22.410  14.939  0.00  0.00    +0.037 A 
ATOM     15  C   UNL     1      32.980  22.682  14.707  0.00  0.00    +0.014 A 
ATOM     16  C   UNL     1      33.797  23.049  15.769  0.00  0.00    +0.014 A 
ATOM     17  C   UNL     1      33.309  23.038  17.081  0.00  0.00    +0.037 A 
ATOM     18  C   UNL     1      31.944  22.831  17.308  0.00  0.00    +0.014 A 
ATOM     19  C   UNL     1      31.103  22.529  16.232  0.00  0.00    +0.014 A 
BRANCH  14  21
ATOM     20  N   UNL     1      30.438  20.682  13.719  0.00  0.00    -0.325 N 
ATOM     21  C   UNL     1      30.751  22.012  13.817  0.00  0.00    +0.242 C 
ATOM     22  O   UNL     1      30.300  22.839  13.034  0.00  0.00    -0.270 OA
ATOM     23  H   UNL     1      29.758  20.445  13.002  0.00  0.00    +0.145 HD
ATOM     24  H   UNL     1      30.560  20.038  14.482  0.00  0.00    +0.145 HD
ENDBRANCH  14  21
ENDBRANCH   1  17
TORSDOF 2
ENDMDL
