MODEL 1
REMARK VINA RESULT:      -6.9      0.000      0.000
REMARK  Name = ZINC000583127796
REMARK  2 active torsions:
REMARK  status: ('A' for Active; 'I' for Inactive)
REMARK    1  A    between atoms: C_2  and  C_4
REMARK    2  A    between atoms: C_7  and  C_8
REMARK                            x       y       z     vdW  Elec       q    Type
REMARK                         _______ _______ _______ _____ _____    ______ ____
ROOT
ATOM      1  C   UNL     1      31.913  17.160  15.960  0.00  0.00    +0.247 C 
ATOM      2  O   UNL     1      33.114  16.905  15.903  0.00  0.00    -0.270 OA
ATOM      3  N   UNL     1      31.418  18.372  16.470  0.00  0.00    -0.297 N 
ATOM      4  C   UNL     1      30.010  18.764  16.571  0.00  0.00    +0.108 C 
ATOM      5  C   UNL     1      29.730  20.093  15.891  0.00  0.00    +0.020 C 
ATOM      6  C   UNL     1      30.698  21.168  16.347  0.00  0.00    +0.011 C 
ATOM      7  C   UNL     1      32.181  20.739  16.215  0.00  0.00    -0.004 C 
ATOM      8  C   UNL     1      33.033  21.868  16.834  0.00  0.00    +0.020 C 
ATOM      9  C   UNL     1      34.430  21.835  16.251  0.00  0.00    +0.070 C 
ATOM     10  S   UNL     1      34.167  21.488  14.505  0.00  0.00    -0.160 S 
ATOM     11  C   UNL     1      32.597  20.607  14.732  0.00  0.00    +0.077 C 
ATOM     12  C   UNL     1      32.375  19.383  16.949  0.00  0.00    +0.115 C 
ENDROOT
BRANCH   1  16
ATOM     13  C   UNL     1      29.040  14.607  14.083  0.00  0.00    +0.037 A 
ATOM     14  C   UNL     1      29.002  14.772  15.471  0.00  0.00    +0.014 A 
ATOM     15  C   UNL     1      30.001  15.508  16.113  0.00  0.00    +0.014 A 
ATOM     16  C   UNL     1      30.980  16.166  15.361  0.00  0.00    +0.037 A 
ATOM     17  C   UNL     1      31.076  15.914  13.985  0.00  0.00    +0.014 A 
ATOM     18  C   UNL     1      30.113  15.125  13.349  0.00  0.00    +0.014 A 
BRANCH  13  20
ATOM     19  N   UNL     1      28.337  12.954  12.444  0.00  0.00    -0.325 N 
ATOM     20  C   UNL     1      27.955  13.891  13.362  0.00  0.00    +0.242 C 
ATOM     21  O   UNL     1      26.778  14.092  13.619  0.00  0.00    -0.270 OA
ATOM     22  H   UNL     1      27.592  12.386  12.057  0.00  0.00    +0.145 HD
ATOM     23  H   UNL     1      29.273  12.575  12.417  0.00  0.00    +0.145 HD
ENDBRANCH  13  20
ENDBRANCH   1  16
TORSDOF 2
ENDMDL
MODEL 2
REMARK VINA RESULT:      -6.7      1.092      1.597
REMARK  Name = ZINC000583127796
REMARK  2 active torsions:
REMARK  status: ('A' for Active; 'I' for Inactive)
REMARK    1  A    between atoms: C_2  and  C_4
REMARK    2  A    between atoms: C_7  and  C_8
REMARK                            x       y       z     vdW  Elec       q    Type
REMARK                         _______ _______ _______ _____ _____    ______ ____
ROOT
ATOM      1  C   UNL     1      31.924  16.734  16.222  0.00  0.00    +0.247 C 
ATOM      2  O   UNL     1      32.931  16.045  16.372  0.00  0.00    -0.270 OA
ATOM      3  N   UNL     1      31.835  18.058  16.684  0.00  0.00    -0.297 N 
ATOM      4  C   UNL     1      30.684  18.954  16.545  0.00  0.00    +0.108 C 
ATOM      5  C   UNL     1      31.053  20.270  15.883  0.00  0.00    +0.020 C 
ATOM      6  C   UNL     1      32.252  20.914  16.553  0.00  0.00    +0.011 C 
ATOM      7  C   UNL     1      33.463  19.956  16.674  0.00  0.00    -0.004 C 
ATOM      8  C   UNL     1      34.547  20.698  17.485  0.00  0.00    +0.020 C 
ATOM      9  C   UNL     1      35.910  20.125  17.164  0.00  0.00    +0.070 C 
ATOM     10  S   UNL     1      35.863  19.852  15.386  0.00  0.00    -0.160 S 
ATOM     11  C   UNL     1      34.065  19.633  15.287  0.00  0.00    +0.077 C 
ATOM     12  C   UNL     1      32.995  18.648  17.372  0.00  0.00    +0.115 C 
ENDROOT
BRANCH   1  16
ATOM     13  C   UNL     1      28.872  14.696  14.024  0.00  0.00    +0.037 A 
ATOM     14  C   UNL     1      29.900  15.340  13.327  0.00  0.00    +0.014 A 
ATOM     15  C   UNL     1      30.839  16.107  14.023  0.00  0.00    +0.014 A 
ATOM     16  C   UNL     1      30.814  16.147  15.420  0.00  0.00    +0.037 A 
ATOM     17  C   UNL     1      29.726  15.589  16.106  0.00  0.00    +0.014 A 
ATOM     18  C   UNL     1      28.750  14.875  15.406  0.00  0.00    +0.014 A 
BRANCH  13  20
ATOM     19  N   UNL     1      28.417  12.872  12.481  0.00  0.00    -0.325 N 
ATOM     20  C   UNL     1      27.901  13.817  13.324  0.00  0.00    +0.242 C 
ATOM     21  O   UNL     1      26.700  13.900  13.532  0.00  0.00    -0.270 OA
ATOM     22  H   UNL     1      27.754  12.200  12.114  0.00  0.00    +0.145 HD
ATOM     23  H   UNL     1      29.390  12.601  12.507  0.00  0.00    +0.145 HD
ENDBRANCH  13  20
ENDBRANCH   1  16
TORSDOF 2
ENDMDL
MODEL 3
REMARK VINA RESULT:      -6.6      1.139      1.156
REMARK  Name = ZINC000583127796
REMARK  2 active torsions:
REMARK  status: ('A' for Active; 'I' for Inactive)
REMARK    1  A    between atoms: C_2  and  C_4
REMARK    2  A    between atoms: C_7  and  C_8
REMARK                            x       y       z     vdW  Elec       q    Type
REMARK                         _______ _______ _______ _____ _____    ______ ____
ROOT
ATOM      1  C   UNL     1      31.793  17.458  16.255  0.00  0.00    +0.247 C 
ATOM      2  O   UNL     1      32.769  17.100  16.912  0.00  0.00    -0.270 OA
ATOM      3  N   UNL     1      31.380  18.798  16.180  0.00  0.00    -0.297 N 
ATOM      4  C   UNL     1      30.239  19.317  15.420  0.00  0.00    +0.108 C 
ATOM      5  C   UNL     1      30.636  20.431  14.469  0.00  0.00    +0.020 C 
ATOM      6  C   UNL     1      31.440  21.507  15.175  0.00  0.00    +0.011 C 
ATOM      7  C   UNL     1      32.651  20.940  15.956  0.00  0.00    -0.004 C 
ATOM      8  C   UNL     1      33.287  22.120  16.722  0.00  0.00    +0.020 C 
ATOM      9  C   UNL     1      34.741  21.818  17.015  0.00  0.00    +0.070 C 
ATOM     10  S   UNL     1      35.339  21.036  15.509  0.00  0.00    -0.160 S 
ATOM     11  C   UNL     1      33.726  20.379  14.997  0.00  0.00    +0.077 C 
ATOM     12  C   UNL     1      32.149  19.820  16.909  0.00  0.00    +0.115 C 
ENDROOT
BRANCH   1  16
ATOM     13  C   UNL     1      29.700  14.763  13.676  0.00  0.00    +0.037 A 
ATOM     14  C   UNL     1      29.200  15.005  14.960  0.00  0.00    +0.014 A 
ATOM     15  C   UNL     1      29.931  15.790  15.855  0.00  0.00    +0.014 A 
ATOM     16  C   UNL     1      31.109  16.418  15.437  0.00  0.00    +0.037 A 
ATOM     17  C   UNL     1      31.659  16.090  14.190  0.00  0.00    +0.014 A 
ATOM     18  C   UNL     1      30.960  15.253  13.315  0.00  0.00    +0.014 A 
BRANCH  13  20
ATOM     19  N   UNL     1      27.959  13.144  13.162  0.00  0.00    -0.325 N 
ATOM     20  C   UNL     1      28.916  13.992  12.677  0.00  0.00    +0.242 C 
ATOM     21  O   UNL     1      29.082  14.149  11.477  0.00  0.00    -0.270 OA
ATOM     22  H   UNL     1      27.349  12.725  12.470  0.00  0.00    +0.145 HD
ATOM     23  H   UNL     1      27.616  13.205  14.110  0.00  0.00    +0.145 HD
ENDBRANCH  13  20
ENDBRANCH   1  16
TORSDOF 2
ENDMDL
MODEL 4
REMARK VINA RESULT:      -6.6      4.856      7.107
REMARK  Name = ZINC000583127796
REMARK  2 active torsions:
REMARK  status: ('A' for Active; 'I' for Inactive)
REMARK    1  A    between atoms: C_2  and  C_4
REMARK    2  A    between atoms: C_7  and  C_8
REMARK                            x       y       z     vdW  Elec       q    Type
REMARK                         _______ _______ _______ _____ _____    ______ ____
ROOT
ATOM      1  C   UNL     1      33.151  22.158  12.913  0.00  0.00    +0.247 C 
ATOM      2  O   UNL     1      33.913  21.248  12.593  0.00  0.00    -0.270 OA
ATOM      3  N   UNL     1      33.131  23.398  12.253  0.00  0.00    -0.297 N 
ATOM      4  C   UNL     1      32.256  24.533  12.560  0.00  0.00    +0.108 C 
ATOM      5  C   UNL     1      31.475  25.006  11.347  0.00  0.00    +0.020 C 
ATOM      6  C   UNL     1      32.385  25.238  10.154  0.00  0.00    +0.011 C 
ATOM      7  C   UNL     1      33.287  24.019   9.837  0.00  0.00    -0.004 C 
ATOM      8  C   UNL     1      34.238  24.447   8.698  0.00  0.00    +0.020 C 
ATOM      9  C   UNL     1      34.719  23.225   7.945  0.00  0.00    +0.070 C 
ATOM     10  S   UNL     1      33.257  22.183   7.822  0.00  0.00    -0.160 S 
ATOM     11  C   UNL     1      32.454  22.825   9.318  0.00  0.00    +0.077 C 
ATOM     12  C   UNL     1      34.053  23.618  11.127  0.00  0.00    +0.115 C 
ENDROOT
BRANCH   1  16
ATOM     13  C   UNL     1      30.496  20.991  16.057  0.00  0.00    +0.037 A 
ATOM     14  C   UNL     1      30.083  20.851  14.728  0.00  0.00    +0.014 A 
ATOM     15  C   UNL     1      30.889  21.334  13.694  0.00  0.00    +0.014 A 
ATOM     16  C   UNL     1      32.153  21.862  13.978  0.00  0.00    +0.037 A 
ATOM     17  C   UNL     1      32.518  22.095  15.311  0.00  0.00    +0.014 A 
ATOM     18  C   UNL     1      31.684  21.670  16.349  0.00  0.00    +0.014 A 
BRANCH  13  20
ATOM     19  N   UNL     1      29.831  19.088  17.418  0.00  0.00    -0.325 N 
ATOM     20  C   UNL     1      29.697  20.426  17.175  0.00  0.00    +0.242 C 
ATOM     21  O   UNL     1      28.994  21.136  17.878  0.00  0.00    -0.270 OA
ATOM     22  H   UNL     1      29.383  18.745  18.259  0.00  0.00    +0.145 HD
ATOM     23  H   UNL     1      30.599  18.547  17.046  0.00  0.00    +0.145 HD
ENDBRANCH  13  20
ENDBRANCH   1  16
TORSDOF 2
ENDMDL
MODEL 5
REMARK VINA RESULT:      -6.6      5.545      7.404
REMARK  Name = ZINC000583127796
REMARK  2 active torsions:
REMARK  status: ('A' for Active; 'I' for Inactive)
REMARK    1  A    between atoms: C_2  and  C_4
REMARK    2  A    between atoms: C_7  and  C_8
REMARK                            x       y       z     vdW  Elec       q    Type
REMARK                         _______ _______ _______ _____ _____    ______ ____
ROOT
ATOM      1  C   UNL     1      33.244  22.083  12.897  0.00  0.00    +0.247 C 
ATOM      2  O   UNL     1      33.926  21.122  12.543  0.00  0.00    -0.270 OA
ATOM      3  N   UNL     1      33.273  23.319  12.232  0.00  0.00    -0.297 N 
ATOM      4  C   UNL     1      32.494  24.512  12.576  0.00  0.00    +0.108 C 
ATOM      5  C   UNL     1      31.686  25.033  11.402  0.00  0.00    +0.020 C 
ATOM      6  C   UNL     1      32.546  25.201  10.163  0.00  0.00    +0.011 C 
ATOM      7  C   UNL     1      33.347  23.924   9.807  0.00  0.00    -0.004 C 
ATOM      8  C   UNL     1      34.265  24.284   8.620  0.00  0.00    +0.020 C 
ATOM      9  C   UNL     1      34.624  23.031   7.850  0.00  0.00    +0.070 C 
ATOM     10  S   UNL     1      33.090  22.089   7.807  0.00  0.00    -0.160 S 
ATOM     11  C   UNL     1      32.410  22.787   9.338  0.00  0.00    +0.077 C 
ATOM     12  C   UNL     1      34.150  23.474  11.059  0.00  0.00    +0.115 C 
ENDROOT
BRANCH   1  16
ATOM     13  C   UNL     1      30.319  21.774  16.003  0.00  0.00    +0.037 A 
ATOM     14  C   UNL     1      31.647  22.058  16.342  0.00  0.00    +0.014 A 
ATOM     15  C   UNL     1      32.634  22.048  15.353  0.00  0.00    +0.014 A 
ATOM     16  C   UNL     1      32.284  21.857  14.013  0.00  0.00    +0.037 A 
ATOM     17  C   UNL     1      30.975  21.471  13.692  0.00  0.00    +0.014 A 
ATOM     18  C   UNL     1      29.997  21.418  14.689  0.00  0.00    +0.014 A 
BRANCH  13  20
ATOM     19  N   UNL     1      28.442  22.959  16.995  0.00  0.00    -0.325 N 
ATOM     20  C   UNL     1      29.234  21.846  17.016  0.00  0.00    +0.242 C 
ATOM     21  O   UNL     1      29.028  20.928  17.795  0.00  0.00    -0.270 OA
ATOM     22  H   UNL     1      27.631  22.935  17.602  0.00  0.00    +0.145 HD
ATOM     23  H   UNL     1      28.411  23.584  16.202  0.00  0.00    +0.145 HD
ENDBRANCH  13  20
ENDBRANCH   1  16
TORSDOF 2
ENDMDL
MODEL 6
REMARK VINA RESULT:      -6.4      3.420      6.553
REMARK  Name = ZINC000583127796
REMARK  2 active torsions:
REMARK  status: ('A' for Active; 'I' for Inactive)
REMARK    1  A    between atoms: C_2  and  C_4
REMARK    2  A    between atoms: C_7  and  C_8
REMARK                            x       y       z     vdW  Elec       q    Type
REMARK                         _______ _______ _______ _____ _____    ______ ____
ROOT
ATOM      1  C   UNL     1      30.869  17.124  15.690  0.00  0.00    +0.247 C 
ATOM      2  O   UNL     1      30.038  16.528  15.007  0.00  0.00    -0.270 OA
ATOM      3  N   UNL     1      32.016  16.499  16.206  0.00  0.00    -0.297 N 
ATOM      4  C   UNL     1      33.059  17.129  17.020  0.00  0.00    +0.108 C 
ATOM      5  C   UNL     1      34.445  16.941  16.430  0.00  0.00    +0.020 C 
ATOM      6  C   UNL     1      34.720  15.485  16.103  0.00  0.00    +0.011 C 
ATOM      7  C   UNL     1      33.614  14.844  15.227  0.00  0.00    -0.004 C 
ATOM      8  C   UNL     1      33.959  13.346  15.091  0.00  0.00    +0.020 C 
ATOM      9  C   UNL     1      33.321  12.785  13.838  0.00  0.00    +0.070 C 
ATOM     10  S   UNL     1      33.551  14.082  12.611  0.00  0.00    -0.160 S 
ATOM     11  C   UNL     1      33.606  15.448  13.804  0.00  0.00    +0.077 C 
ATOM     12  C   UNL     1      32.239  15.074  15.914  0.00  0.00    +0.115 C 
ENDROOT
BRANCH   1  16
ATOM     13  C   UNL     1      29.923  21.270  16.157  0.00  0.00    +0.037 A 
ATOM     14  C   UNL     1      30.544  20.840  14.980  0.00  0.00    +0.014 A 
ATOM     15  C   UNL     1      30.965  19.513  14.859  0.00  0.00    +0.014 A 
ATOM     16  C   UNL     1      30.673  18.590  15.868  0.00  0.00    +0.037 A 
ATOM     17  C   UNL     1      30.145  19.044  17.085  0.00  0.00    +0.014 A 
ATOM     18  C   UNL     1      29.782  20.386  17.233  0.00  0.00    +0.014 A 
BRANCH  13  20
ATOM     19  N   UNL     1      30.175  23.659  15.783  0.00  0.00    -0.325 N 
ATOM     20  C   UNL     1      29.401  22.654  16.291  0.00  0.00    +0.242 C 
ATOM     21  O   UNL     1      28.306  22.878  16.784  0.00  0.00    -0.270 OA
ATOM     22  H   UNL     1      29.750  24.579  15.766  0.00  0.00    +0.145 HD
ATOM     23  H   UNL     1      30.930  23.483  15.135  0.00  0.00    +0.145 HD
ENDBRANCH  13  20
ENDBRANCH   1  16
TORSDOF 2
ENDMDL
MODEL 7
REMARK VINA RESULT:      -6.3      5.921      8.421
REMARK  Name = ZINC000583127796
REMARK  2 active torsions:
REMARK  status: ('A' for Active; 'I' for Inactive)
REMARK    1  A    between atoms: C_2  and  C_4
REMARK    2  A    between atoms: C_7  and  C_8
REMARK                            x       y       z     vdW  Elec       q    Type
REMARK                         _______ _______ _______ _____ _____    ______ ____
ROOT
ATOM      1  C   UNL     1      27.984  21.888  17.878  0.00  0.00    +0.247 C 
ATOM      2  O   UNL     1      27.598  20.813  17.424  0.00  0.00    -0.270 OA
ATOM      3  N   UNL     1      29.338  22.262  17.895  0.00  0.00    -0.297 N 
ATOM      4  C   UNL     1      29.888  23.520  18.408  0.00  0.00    +0.108 C 
ATOM      5  C   UNL     1      30.737  24.242  17.377  0.00  0.00    +0.020 C 
ATOM      6  C   UNL     1      31.779  23.321  16.770  0.00  0.00    +0.011 C 
ATOM      7  C   UNL     1      31.175  22.006  16.219  0.00  0.00    -0.004 C 
ATOM      8  C   UNL     1      32.356  21.124  15.760  0.00  0.00    +0.020 C 
ATOM      9  C   UNL     1      31.883  20.136  14.716  0.00  0.00    +0.070 C 
ATOM     10  S   UNL     1      30.760  21.092  13.684  0.00  0.00    -0.160 S 
ATOM     11  C   UNL     1      30.289  22.271  14.980  0.00  0.00    +0.077 C 
ATOM     12  C   UNL     1      30.337  21.334  17.342  0.00  0.00    +0.115 C 
ENDROOT
BRANCH   1  16
ATOM     13  C   UNL     1      25.125  24.904  18.891  0.00  0.00    +0.037 A 
ATOM     14  C   UNL     1      26.157  24.613  19.789  0.00  0.00    +0.014 A 
ATOM     15  C   UNL     1      27.030  23.554  19.528  0.00  0.00    +0.014 A 
ATOM     16  C   UNL     1      26.938  22.851  18.322  0.00  0.00    +0.037 A 
ATOM     17  C   UNL     1      25.842  23.074  17.476  0.00  0.00    +0.014 A 
ATOM     18  C   UNL     1      24.930  24.093  17.768  0.00  0.00    +0.014 A 
BRANCH  13  20
ATOM     19  N   UNL     1      23.407  26.413  18.065  0.00  0.00    -0.325 N 
ATOM     20  C   UNL     1      24.224  26.066  19.103  0.00  0.00    +0.242 C 
ATOM     21  O   UNL     1      24.178  26.650  20.176  0.00  0.00    -0.270 OA
ATOM     22  H   UNL     1      22.711  27.121  18.268  0.00  0.00    +0.145 HD
ATOM     23  H   UNL     1      23.225  25.790  17.291  0.00  0.00    +0.145 HD
ENDBRANCH  13  20
ENDBRANCH   1  16
TORSDOF 2
ENDMDL
MODEL 8
REMARK VINA RESULT:      -6.2      3.370      6.316
REMARK  Name = ZINC000583127796
REMARK  2 active torsions:
REMARK  status: ('A' for Active; 'I' for Inactive)
REMARK    1  A    between atoms: C_2  and  C_4
REMARK    2  A    between atoms: C_7  and  C_8
REMARK                            x       y       z     vdW  Elec       q    Type
REMARK                         _______ _______ _______ _____ _____    ______ ____
ROOT
ATOM      1  C   UNL     1      31.928  19.266  15.275  0.00  0.00    +0.247 C 
ATOM      2  O   UNL     1      33.045  19.771  15.370  0.00  0.00    -0.270 OA
ATOM      3  N   UNL     1      31.721  17.969  14.775  0.00  0.00    -0.297 N 
ATOM      4  C   UNL     1      30.433  17.285  14.633  0.00  0.00    +0.108 C 
ATOM      5  C   UNL     1      30.414  15.938  15.332  0.00  0.00    +0.020 C 
ATOM      6  C   UNL     1      31.605  15.086  14.934  0.00  0.00    +0.011 C 
ATOM      7  C   UNL     1      32.957  15.822  15.109  0.00  0.00    -0.004 C 
ATOM      8  C   UNL     1      34.053  14.891  14.546  0.00  0.00    +0.020 C 
ATOM      9  C   UNL     1      35.387  15.228  15.177  0.00  0.00    +0.070 C 
ATOM     10  S   UNL     1      34.988  15.536  16.905  0.00  0.00    -0.160 S 
ATOM     11  C   UNL     1      33.277  16.060  16.603  0.00  0.00    +0.077 C 
ATOM     12  C   UNL     1      32.888  17.177  14.353  0.00  0.00    +0.115 C 
ENDROOT
BRANCH   1  16
ATOM     13  C   UNL     1      28.903  21.744  17.009  0.00  0.00    +0.037 A 
ATOM     14  C   UNL     1      29.106  20.457  17.519  0.00  0.00    +0.014 A 
ATOM     15  C   UNL     1      30.008  19.593  16.891  0.00  0.00    +0.014 A 
ATOM     16  C   UNL     1      30.783  20.048  15.819  0.00  0.00    +0.037 A 
ATOM     17  C   UNL     1      30.503  21.297  15.248  0.00  0.00    +0.014 A 
ATOM     18  C   UNL     1      29.555  22.139  15.836  0.00  0.00    +0.014 A 
BRANCH  13  20
ATOM     19  N   UNL     1      28.526  23.393  18.756  0.00  0.00    -0.325 N 
ATOM     20  C   UNL     1      28.005  22.710  17.693  0.00  0.00    +0.242 C 
ATOM     21  O   UNL     1      26.871  22.922  17.291  0.00  0.00    -0.270 OA
ATOM     22  H   UNL     1      27.948  24.138  19.128  0.00  0.00    +0.145 HD
ATOM     23  H   UNL     1      29.521  23.445  18.927  0.00  0.00    +0.145 HD
ENDBRANCH  13  20
ENDBRANCH   1  16
TORSDOF 2
ENDMDL
MODEL 9
REMARK VINA RESULT:      -6.1      5.103      8.021
REMARK  Name = ZINC000583127796
REMARK  2 active torsions:
REMARK  status: ('A' for Active; 'I' for Inactive)
REMARK    1  A    between atoms: C_2  and  C_4
REMARK    2  A    between atoms: C_7  and  C_8
REMARK                            x       y       z     vdW  Elec       q    Type
REMARK                         _______ _______ _______ _____ _____    ______ ____
ROOT
ATOM      1  C   UNL     1      31.337  22.307  13.360  0.00  0.00    +0.247 C 
ATOM      2  O   UNL     1      30.185  21.991  13.066  0.00  0.00    -0.270 OA
ATOM      3  N   UNL     1      31.925  21.972  14.591  0.00  0.00    -0.297 N 
ATOM      4  C   UNL     1      33.286  22.298  15.024  0.00  0.00    +0.108 C 
ATOM      5  C   UNL     1      34.065  21.068  15.457  0.00  0.00    +0.020 C 
ATOM      6  C   UNL     1      33.286  20.240  16.461  0.00  0.00    +0.011 C 
ATOM      7  C   UNL     1      31.857  19.891  15.976  0.00  0.00    -0.004 C 
ATOM      8  C   UNL     1      31.148  19.170  17.143  0.00  0.00    +0.020 C 
ATOM      9  C   UNL     1      30.029  18.304  16.607  0.00  0.00    +0.070 C 
ATOM     10  S   UNL     1      30.720  17.567  15.117  0.00  0.00    -0.160 S 
ATOM     11  C   UNL     1      31.892  18.911  14.781  0.00  0.00    +0.077 C 
ATOM     12  C   UNL     1      31.135  21.206  15.569  0.00  0.00    +0.115 C 
ENDROOT
BRANCH   1  16
ATOM     13  C   UNL     1      33.362  24.168  10.084  0.00  0.00    +0.037 A 
ATOM     14  C   UNL     1      33.798  22.917  10.534  0.00  0.00    +0.014 A 
ATOM     15  C   UNL     1      33.224  22.349  11.674  0.00  0.00    +0.014 A 
ATOM     16  C   UNL     1      32.146  22.978  12.305  0.00  0.00    +0.037 A 
ATOM     17  C   UNL     1      31.782  24.275  11.917  0.00  0.00    +0.014 A 
ATOM     18  C   UNL     1      32.398  24.874  10.814  0.00  0.00    +0.014 A 
BRANCH  13  20
ATOM     19  N   UNL     1      34.019  23.944   7.754  0.00  0.00    -0.325 N 
ATOM     20  C   UNL     1      33.900  24.769   8.837  0.00  0.00    +0.242 C 
ATOM     21  O   UNL     1      34.174  25.957   8.768  0.00  0.00    -0.270 OA
ATOM     22  H   UNL     1      34.264  24.395   6.880  0.00  0.00    +0.145 HD
ATOM     23  H   UNL     1      33.547  23.052   7.702  0.00  0.00    +0.145 HD
ENDBRANCH  13  20
ENDBRANCH   1  16
TORSDOF 2
ENDMDL
