MODEL 1
REMARK VINA RESULT:      -6.6      0.000      0.000
REMARK  Name = ZINC000329563636
REMARK  3 active torsions:
REMARK  status: ('A' for Active; 'I' for Inactive)
REMARK    1  A    between atoms: C_1  and  C_2
REMARK    2  A    between atoms: C_2  and  N_3
REMARK    3  A    between atoms: N_9  and  C_10
REMARK                            x       y       z     vdW  Elec       q    Type
REMARK                         _______ _______ _______ _____ _____    ______ ____
ROOT
ATOM      1  C   UNL     1      34.087  22.158  14.407  0.00  0.00    +0.112 C 
ATOM      2  C   UNL     1      34.618  23.309  15.269  0.00  0.00    +0.075 C 
ATOM      3  C   UNL     1      33.761  23.645  16.498  0.00  0.00    +0.113 C 
ATOM      4  C   UNL     1      34.041  22.768  17.746  0.00  0.00    +0.048 C 
ATOM      5  C   UNL     1      34.689  23.686  18.777  0.00  0.00    +0.004 C 
ATOM      6  C   UNL     1      34.100  25.050  18.474  0.00  0.00    +0.004 C 
ATOM      7  C   UNL     1      34.102  25.088  16.954  0.00  0.00    +0.048 C 
ATOM      8  O   UNL     1      32.352  23.623  16.193  0.00  0.00    -0.485 OA
ATOM      9  C   UNL     1      31.935  22.423  15.680  0.00  0.00    +0.126 A 
ATOM     10  C   UNL     1      30.659  21.985  16.031  0.00  0.00    +0.046 A 
ATOM     11  C   UNL     1      30.193  20.751  15.574  0.00  0.00    +0.004 A 
ATOM     12  C   UNL     1      30.996  19.969  14.746  0.00  0.00    +0.001 A 
ATOM     13  C   UNL     1      32.259  20.426  14.371  0.00  0.00    +0.009 A 
ATOM     14  C   UNL     1      32.740  21.660  14.837  0.00  0.00    +0.015 A 
ENDROOT
BRANCH   1  21
ATOM     15  N   UNL     1      34.158  22.540   8.102  0.00  0.00    -0.299 N 
ATOM     16  C   UNL     1      35.268  21.805   8.707  0.00  0.00    +0.127 C 
ATOM     17  C   UNL     1      35.890  22.580   9.863  0.00  0.00    +0.129 C 
ATOM     18  N   UNL     1      34.862  22.839  10.860  0.00  0.00    -0.275 N 
ATOM     19  C   UNL     1      35.022  22.329  12.130  0.00  0.00    +0.303 C 
ATOM     20  O   UNL     1      36.001  21.659  12.453  0.00  0.00    -0.253 OA
ATOM     21  N   UNL     1      34.011  22.584  13.008  0.00  0.00    -0.292 N 
ATOM     22  C   UNL     1      33.700  23.574  10.353  0.00  0.00    +0.205 C 
ATOM     23  C   UNL     1      33.323  23.345   8.873  0.00  0.00    +0.233 C 
ATOM     24  O   UNL     1      32.325  23.898   8.403  0.00  0.00    -0.274 OA
ATOM     25  H   UNL     1      33.434  23.394  12.845  0.00  0.00    +0.151 HD
BRANCH  15  27
ATOM     26  C   UNL     1      34.881  21.700   5.884  0.00  0.00    +0.024 C 
ATOM     27  C   UNL     1      33.724  22.152   6.764  0.00  0.00    +0.104 C 
ENDBRANCH  15  27
ENDBRANCH   1  21
TORSDOF 2
ENDMDL
MODEL 2
REMARK VINA RESULT:      -6.1      3.451      5.750
REMARK  Name = ZINC000329563636
REMARK  3 active torsions:
REMARK  status: ('A' for Active; 'I' for Inactive)
REMARK    1  A    between atoms: C_1  and  C_2
REMARK    2  A    between atoms: C_2  and  N_3
REMARK    3  A    between atoms: N_9  and  C_10
REMARK                            x       y       z     vdW  Elec       q    Type
REMARK                         _______ _______ _______ _____ _____    ______ ____
ROOT
ATOM      1  C   UNL     1      32.886  21.609  14.786  0.00  0.00    +0.112 C 
ATOM      2  C   UNL     1      32.996  21.857  16.295  0.00  0.00    +0.075 C 
ATOM      3  C   UNL     1      33.958  22.984  16.697  0.00  0.00    +0.113 C 
ATOM      4  C   UNL     1      33.345  24.408  16.652  0.00  0.00    +0.048 C 
ATOM      5  C   UNL     1      33.248  24.879  18.098  0.00  0.00    +0.004 C 
ATOM      6  C   UNL     1      34.400  24.175  18.789  0.00  0.00    +0.004 C 
ATOM      7  C   UNL     1      34.356  22.782  18.183  0.00  0.00    +0.048 C 
ATOM      8  O   UNL     1      35.175  22.952  15.928  0.00  0.00    -0.485 OA
ATOM      9  C   UNL     1      34.956  23.021  14.577  0.00  0.00    +0.126 A 
ATOM     10  C   UNL     1      35.887  23.723  13.812  0.00  0.00    +0.046 A 
ATOM     11  C   UNL     1      35.696  23.864  12.436  0.00  0.00    +0.004 A 
ATOM     12  C   UNL     1      34.588  23.282  11.824  0.00  0.00    +0.001 A 
ATOM     13  C   UNL     1      33.676  22.553  12.589  0.00  0.00    +0.009 A 
ATOM     14  C   UNL     1      33.854  22.418  13.975  0.00  0.00    +0.015 A 
ENDROOT
BRANCH   1  21
ATOM     15  N   UNL     1      32.634  15.689  12.595  0.00  0.00    -0.299 N 
ATOM     16  C   UNL     1      31.345  16.312  12.898  0.00  0.00    +0.127 C 
ATOM     17  C   UNL     1      31.351  16.978  14.269  0.00  0.00    +0.129 C 
ATOM     18  N   UNL     1      32.406  17.980  14.298  0.00  0.00    -0.275 N 
ATOM     19  C   UNL     1      32.068  19.297  14.515  0.00  0.00    +0.303 C 
ATOM     20  O   UNL     1      30.905  19.661  14.681  0.00  0.00    -0.253 OA
ATOM     21  N   UNL     1      33.099  20.189  14.503  0.00  0.00    -0.292 N 
ATOM     22  C   UNL     1      33.744  17.456  14.007  0.00  0.00    +0.205 C 
ATOM     23  C   UNL     1      33.827  16.253  13.043  0.00  0.00    +0.233 C 
ATOM     24  O   UNL     1      34.928  15.800  12.721  0.00  0.00    -0.274 OA
ATOM     25  H   UNL     1      34.022  19.849  14.721  0.00  0.00    +0.151 HD
BRANCH  15  27
ATOM     26  C   UNL     1      31.430  14.689  10.672  0.00  0.00    +0.024 C 
ATOM     27  C   UNL     1      32.681  14.684  11.540  0.00  0.00    +0.104 C 
ENDBRANCH  15  27
ENDBRANCH   1  21
TORSDOF 2
ENDMDL
MODEL 3
REMARK VINA RESULT:      -6.1      2.336      8.030
REMARK  Name = ZINC000329563636
REMARK  3 active torsions:
REMARK  status: ('A' for Active; 'I' for Inactive)
REMARK    1  A    between atoms: C_1  and  C_2
REMARK    2  A    between atoms: C_2  and  N_3
REMARK    3  A    between atoms: N_9  and  C_10
REMARK                            x       y       z     vdW  Elec       q    Type
REMARK                         _______ _______ _______ _____ _____    ______ ____
ROOT
ATOM      1  C   UNL     1      35.366  22.198  10.130  0.00  0.00    +0.112 C 
ATOM      2  C   UNL     1      35.265  21.502   8.768  0.00  0.00    +0.075 C 
ATOM      3  C   UNL     1      35.196  22.449   7.562  0.00  0.00    +0.113 C 
ATOM      4  C   UNL     1      36.572  22.947   7.046  0.00  0.00    +0.048 C 
ATOM      5  C   UNL     1      36.778  22.299   5.682  0.00  0.00    +0.004 C 
ATOM      6  C   UNL     1      35.371  22.133   5.141  0.00  0.00    +0.004 C 
ATOM      7  C   UNL     1      34.593  21.672   6.362  0.00  0.00    +0.048 C 
ATOM      8  O   UNL     1      34.333  23.575   7.811  0.00  0.00    -0.485 OA
ATOM      9  C   UNL     1      34.700  24.297   8.916  0.00  0.00    +0.126 A 
ATOM     10  C   UNL     1      34.520  25.678   8.869  0.00  0.00    +0.046 A 
ATOM     11  C   UNL     1      34.914  26.472   9.949  0.00  0.00    +0.004 A 
ATOM     12  C   UNL     1      35.465  25.879  11.083  0.00  0.00    +0.001 A 
ATOM     13  C   UNL     1      35.613  24.492  11.139  0.00  0.00    +0.009 A 
ATOM     14  C   UNL     1      35.231  23.689  10.052  0.00  0.00    +0.015 A 
ENDROOT
BRANCH   1  21
ATOM     15  N   UNL     1      31.492  20.987  14.971  0.00  0.00    -0.299 N 
ATOM     16  C   UNL     1      32.898  21.191  15.317  0.00  0.00    +0.127 C 
ATOM     17  C   UNL     1      33.822  20.378  14.417  0.00  0.00    +0.129 C 
ATOM     18  N   UNL     1      33.589  20.766  13.034  0.00  0.00    -0.275 N 
ATOM     19  C   UNL     1      34.628  21.306  12.309  0.00  0.00    +0.303 C 
ATOM     20  O   UNL     1      35.748  21.477  12.789  0.00  0.00    -0.253 OA
ATOM     21  N   UNL     1      34.337  21.674  11.029  0.00  0.00    -0.292 N 
ATOM     22  C   UNL     1      32.203  20.599  12.585  0.00  0.00    +0.205 C 
ATOM     23  C   UNL     1      31.100  20.777  13.650  0.00  0.00    +0.233 C 
ATOM     24  O   UNL     1      29.913  20.698  13.323  0.00  0.00    -0.274 OA
ATOM     25  H   UNL     1      33.567  21.215  10.568  0.00  0.00    +0.151 HD
BRANCH  15  27
ATOM     26  C   UNL     1      31.027  22.269  17.041  0.00  0.00    +0.024 C 
ATOM     27  C   UNL     1      30.482  21.350  15.958  0.00  0.00    +0.104 C 
ENDBRANCH  15  27
ENDBRANCH   1  21
TORSDOF 2
ENDMDL
MODEL 4
REMARK VINA RESULT:      -5.9      2.844      4.182
REMARK  Name = ZINC000329563636
REMARK  3 active torsions:
REMARK  status: ('A' for Active; 'I' for Inactive)
REMARK    1  A    between atoms: C_1  and  C_2
REMARK    2  A    between atoms: C_2  and  N_3
REMARK    3  A    between atoms: N_9  and  C_10
REMARK                            x       y       z     vdW  Elec       q    Type
REMARK                         _______ _______ _______ _____ _____    ______ ____
ROOT
ATOM      1  C   UNL     1      33.887  21.140  12.150  0.00  0.00    +0.112 C 
ATOM      2  C   UNL     1      32.657  21.739  12.841  0.00  0.00    +0.075 C 
ATOM      3  C   UNL     1      31.784  20.727  13.597  0.00  0.00    +0.113 C 
ATOM      4  C   UNL     1      32.260  20.406  15.038  0.00  0.00    +0.048 C 
ATOM      5  C   UNL     1      31.217  21.002  15.976  0.00  0.00    +0.004 C 
ATOM      6  C   UNL     1      29.928  20.933  15.181  0.00  0.00    +0.004 C 
ATOM      7  C   UNL     1      30.372  21.342  13.786  0.00  0.00    +0.048 C 
ATOM      8  O   UNL     1      31.613  19.503  12.856  0.00  0.00    -0.485 OA
ATOM      9  C   UNL     1      32.803  18.904  12.534  0.00  0.00    +0.126 A 
ATOM     10  C   UNL     1      32.839  17.511  12.534  0.00  0.00    +0.046 A 
ATOM     11  C   UNL     1      34.032  16.842  12.254  0.00  0.00    +0.004 A 
ATOM     12  C   UNL     1      35.181  17.569  11.951  0.00  0.00    +0.001 A 
ATOM     13  C   UNL     1      35.133  18.963  11.920  0.00  0.00    +0.009 A 
ATOM     14  C   UNL     1      33.940  19.643  12.213  0.00  0.00    +0.015 A 
ENDROOT
BRANCH   1  21
ATOM     15  N   UNL     1      35.360  23.561   6.504  0.00  0.00    -0.299 N 
ATOM     16  C   UNL     1      35.616  24.428   7.654  0.00  0.00    +0.127 C 
ATOM     17  C   UNL     1      34.417  24.480   8.595  0.00  0.00    +0.129 C 
ATOM     18  N   UNL     1      34.116  23.130   9.047  0.00  0.00    -0.275 N 
ATOM     19  C   UNL     1      34.183  22.847  10.393  0.00  0.00    +0.303 C 
ATOM     20  O   UNL     1      34.490  23.694  11.230  0.00  0.00    -0.253 OA
ATOM     21  N   UNL     1      33.917  21.558  10.747  0.00  0.00    -0.292 N 
ATOM     22  C   UNL     1      33.844  22.178   7.965  0.00  0.00    +0.205 C 
ATOM     23  C   UNL     1      34.574  22.417   6.626  0.00  0.00    +0.233 C 
ATOM     24  O   UNL     1      34.424  21.621   5.696  0.00  0.00    -0.274 OA
ATOM     25  H   UNL     1      33.343  21.005  10.130  0.00  0.00    +0.151 HD
BRANCH  15  27
ATOM     26  C   UNL     1      36.035  25.062   4.650  0.00  0.00    +0.024 C 
ATOM     27  C   UNL     1      36.210  23.711   5.328  0.00  0.00    +0.104 C 
ENDBRANCH  15  27
ENDBRANCH   1  21
TORSDOF 2
ENDMDL
MODEL 5
REMARK VINA RESULT:      -5.9      3.948      7.916
REMARK  Name = ZINC000329563636
REMARK  3 active torsions:
REMARK  status: ('A' for Active; 'I' for Inactive)
REMARK    1  A    between atoms: C_1  and  C_2
REMARK    2  A    between atoms: C_2  and  N_3
REMARK    3  A    between atoms: N_9  and  C_10
REMARK                            x       y       z     vdW  Elec       q    Type
REMARK                         _______ _______ _______ _____ _____    ______ ____
ROOT
ATOM      1  C   UNL     1      33.060  18.301  13.953  0.00  0.00    +0.112 C 
ATOM      2  C   UNL     1      32.801  18.080  12.459  0.00  0.00    +0.075 C 
ATOM      3  C   UNL     1      33.663  16.989  11.808  0.00  0.00    +0.113 C 
ATOM      4  C   UNL     1      33.119  15.545  11.970  0.00  0.00    +0.048 C 
ATOM      5  C   UNL     1      32.681  15.094  10.581  0.00  0.00    +0.004 C 
ATOM      6  C   UNL     1      33.608  15.844   9.645  0.00  0.00    +0.004 C 
ATOM      7  C   UNL     1      33.679  17.225  10.274  0.00  0.00    +0.048 C 
ATOM      8  O   UNL     1      35.032  17.046  12.255  0.00  0.00    -0.485 OA
ATOM      9  C   UNL     1      35.153  16.949  13.617  0.00  0.00    +0.126 A 
ATOM     10  C   UNL     1      36.261  16.266  14.114  0.00  0.00    +0.046 A 
ATOM     11  C   UNL     1      36.418  16.098  15.492  0.00  0.00    +0.004 A 
ATOM     12  C   UNL     1      35.480  16.636  16.369  0.00  0.00    +0.001 A 
ATOM     13  C   UNL     1      34.389  17.348  15.868  0.00  0.00    +0.009 A 
ATOM     14  C   UNL     1      34.218  17.510  14.484  0.00  0.00    +0.015 A 
ENDROOT
BRANCH   1  21
ATOM     15  N   UNL     1      33.588  24.078  16.453  0.00  0.00    -0.299 N 
ATOM     16  C   UNL     1      32.365  23.349  16.789  0.00  0.00    +0.127 C 
ATOM     17  C   UNL     1      31.716  22.742  15.550  0.00  0.00    +0.129 C 
ATOM     18  N   UNL     1      32.670  21.846  14.913  0.00  0.00    -0.275 N 
ATOM     19  C   UNL     1      32.351  20.512  14.788  0.00  0.00    +0.303 C 
ATOM     20  O   UNL     1      31.289  20.047  15.198  0.00  0.00    -0.253 OA
ATOM     21  N   UNL     1      33.299  19.723  14.207  0.00  0.00    -0.292 N 
ATOM     22  C   UNL     1      33.936  22.482  14.535  0.00  0.00    +0.205 C 
ATOM     23  C   UNL     1      34.422  23.648  15.423  0.00  0.00    +0.233 C 
ATOM     24  O   UNL     1      35.504  24.190  15.184  0.00  0.00    -0.274 OA
ATOM     25  H   UNL     1      33.961  20.157  13.584  0.00  0.00    +0.151 HD
BRANCH  15  27
ATOM     26  C   UNL     1      33.177  25.215  18.618  0.00  0.00    +0.024 C 
ATOM     27  C   UNL     1      34.102  25.041  17.421  0.00  0.00    +0.104 C 
ENDBRANCH  15  27
ENDBRANCH   1  21
TORSDOF 2
ENDMDL
MODEL 6
REMARK VINA RESULT:      -5.9      3.453      5.412
REMARK  Name = ZINC000329563636
REMARK  3 active torsions:
REMARK  status: ('A' for Active; 'I' for Inactive)
REMARK    1  A    between atoms: C_1  and  C_2
REMARK    2  A    between atoms: C_2  and  N_3
REMARK    3  A    between atoms: N_9  and  C_10
REMARK                            x       y       z     vdW  Elec       q    Type
REMARK                         _______ _______ _______ _____ _____    ______ ____
ROOT
ATOM      1  C   UNL     1      33.015  20.047  11.552  0.00  0.00    +0.112 C 
ATOM      2  C   UNL     1      33.930  18.819  11.506  0.00  0.00    +0.075 C 
ATOM      3  C   UNL     1      33.734  17.822  12.658  0.00  0.00    +0.113 C 
ATOM      4  C   UNL     1      32.587  16.799  12.445  0.00  0.00    +0.048 C 
ATOM      5  C   UNL     1      33.254  15.440  12.268  0.00  0.00    +0.004 C 
ATOM      6  C   UNL     1      34.524  15.546  13.090  0.00  0.00    +0.004 C 
ATOM      7  C   UNL     1      35.012  16.951  12.776  0.00  0.00    +0.048 C 
ATOM      8  O   UNL     1      33.563  18.491  13.923  0.00  0.00    -0.485 OA
ATOM      9  C   UNL     1      32.516  19.375  13.923  0.00  0.00    +0.126 A 
ATOM     10  C   UNL     1      31.782  19.499  15.102  0.00  0.00    +0.046 A 
ATOM     11  C   UNL     1      30.679  20.353  15.151  0.00  0.00    +0.004 A 
ATOM     12  C   UNL     1      30.327  21.100  14.029  0.00  0.00    +0.001 A 
ATOM     13  C   UNL     1      31.085  20.998  12.861  0.00  0.00    +0.009 A 
ATOM     14  C   UNL     1      32.187  20.131  12.800  0.00  0.00    +0.015 A 
ENDROOT
BRANCH   1  21
ATOM     15  N   UNL     1      35.201  25.859  10.391  0.00  0.00    -0.299 N 
ATOM     16  C   UNL     1      34.417  25.248   9.318  0.00  0.00    +0.127 C 
ATOM     17  C   UNL     1      34.876  23.822   9.031  0.00  0.00    +0.129 C 
ATOM     18  N   UNL     1      34.750  23.035  10.248  0.00  0.00    -0.275 N 
ATOM     19  C   UNL     1      33.912  21.943  10.252  0.00  0.00    +0.303 C 
ATOM     20  O   UNL     1      33.260  21.607   9.264  0.00  0.00    -0.253 OA
ATOM     21  N   UNL     1      33.818  21.265  11.431  0.00  0.00    -0.292 N 
ATOM     22  C   UNL     1      35.501  23.566  11.391  0.00  0.00    +0.205 C 
ATOM     23  C   UNL     1      35.677  25.098  11.457  0.00  0.00    +0.233 C 
ATOM     24  O   UNL     1      36.257  25.607  12.420  0.00  0.00    -0.274 OA
ATOM     25  H   UNL     1      34.589  21.328  12.077  0.00  0.00    +0.151 HD
BRANCH  15  27
ATOM     26  C   UNL     1      36.327  27.979   9.772  0.00  0.00    +0.024 C 
ATOM     27  C   UNL     1      35.179  27.312  10.516  0.00  0.00    +0.104 C 
ENDBRANCH  15  27
ENDBRANCH   1  21
TORSDOF 2
ENDMDL
MODEL 7
REMARK VINA RESULT:      -5.8      2.280      8.178
REMARK  Name = ZINC000329563636
REMARK  3 active torsions:
REMARK  status: ('A' for Active; 'I' for Inactive)
REMARK    1  A    between atoms: C_1  and  C_2
REMARK    2  A    between atoms: C_2  and  N_3
REMARK    3  A    between atoms: N_9  and  C_10
REMARK                            x       y       z     vdW  Elec       q    Type
REMARK                         _______ _______ _______ _____ _____    ______ ____
ROOT
ATOM      1  C   UNL     1      35.006  21.740  10.115  0.00  0.00    +0.112 C 
ATOM      2  C   UNL     1      35.748  20.587   9.431  0.00  0.00    +0.075 C 
ATOM      3  C   UNL     1      35.432  20.410   7.939  0.00  0.00    +0.113 C 
ATOM      4  C   UNL     1      36.257  21.316   6.988  0.00  0.00    +0.048 C 
ATOM      5  C   UNL     1      37.191  20.390   6.217  0.00  0.00    +0.004 C 
ATOM      6  C   UNL     1      36.426  19.083   6.137  0.00  0.00    +0.004 C 
ATOM      7  C   UNL     1      35.816  18.965   7.524  0.00  0.00    +0.048 C 
ATOM      8  O   UNL     1      34.026  20.567   7.664  0.00  0.00    -0.485 OA
ATOM      9  C   UNL     1      33.532  21.776   8.078  0.00  0.00    +0.126 A 
ATOM     10  C   UNL     1      32.543  22.366   7.294  0.00  0.00    +0.046 A 
ATOM     11  C   UNL     1      32.030  23.618   7.642  0.00  0.00    +0.004 A 
ATOM     12  C   UNL     1      32.490  24.264   8.786  0.00  0.00    +0.001 A 
ATOM     13  C   UNL     1      33.458  23.655   9.586  0.00  0.00    +0.009 A 
ATOM     14  C   UNL     1      33.988  22.403   9.236  0.00  0.00    +0.015 A 
ENDROOT
BRANCH   1  21
ATOM     15  N   UNL     1      31.703  21.095  15.461  0.00  0.00    -0.299 N 
ATOM     16  C   UNL     1      32.555  22.280  15.379  0.00  0.00    +0.127 C 
ATOM     17  C   UNL     1      33.962  21.929  14.906  0.00  0.00    +0.129 C 
ATOM     18  N   UNL     1      33.870  21.291  13.601  0.00  0.00    -0.275 N 
ATOM     19  C   UNL     1      34.490  21.885  12.524  0.00  0.00    +0.303 C 
ATOM     20  O   UNL     1      35.116  22.939  12.622  0.00  0.00    -0.253 OA
ATOM     21  N   UNL     1      34.343  21.252  11.326  0.00  0.00    -0.292 N 
ATOM     22  C   UNL     1      33.034  20.087  13.574  0.00  0.00    +0.205 C 
ATOM     23  C   UNL     1      31.845  20.043  14.558  0.00  0.00    +0.233 C 
ATOM     24  O   UNL     1      31.077  19.078  14.548  0.00  0.00    -0.274 OA
ATOM     25  H   UNL     1      34.154  20.262  11.332  0.00  0.00    +0.151 HD
BRANCH  15  27
ATOM     26  C   UNL     1      30.563  22.261  17.329  0.00  0.00    +0.024 C 
ATOM     27  C   UNL     1      30.488  21.176  16.264  0.00  0.00    +0.104 C 
ENDBRANCH  15  27
ENDBRANCH   1  21
TORSDOF 2
ENDMDL
MODEL 8
REMARK VINA RESULT:      -5.8      4.535      8.032
REMARK  Name = ZINC000329563636
REMARK  3 active torsions:
REMARK  status: ('A' for Active; 'I' for Inactive)
REMARK    1  A    between atoms: C_1  and  C_2
REMARK    2  A    between atoms: C_2  and  N_3
REMARK    3  A    between atoms: N_9  and  C_10
REMARK                            x       y       z     vdW  Elec       q    Type
REMARK                         _______ _______ _______ _____ _____    ______ ____
ROOT
ATOM      1  C   UNL     1      33.594  23.271  17.336  0.00  0.00    +0.112 C 
ATOM      2  C   UNL     1      32.399  23.408  16.386  0.00  0.00    +0.075 C 
ATOM      3  C   UNL     1      32.243  22.265  15.373  0.00  0.00    +0.113 C 
ATOM      4  C   UNL     1      31.493  21.017  15.910  0.00  0.00    +0.048 C 
ATOM      5  C   UNL     1      30.164  20.965  15.166  0.00  0.00    +0.004 C 
ATOM      6  C   UNL     1      30.471  21.596  13.823  0.00  0.00    +0.004 C 
ATOM      7  C   UNL     1      31.365  22.767  14.197  0.00  0.00    +0.048 C 
ATOM      8  O   UNL     1      33.510  21.868  14.812  0.00  0.00    -0.485 OA
ATOM      9  C   UNL     1      34.422  21.492  15.764  0.00  0.00    +0.126 A 
ATOM     10  C   UNL     1      35.296  20.455  15.440  0.00  0.00    +0.046 A 
ATOM     11  C   UNL     1      36.219  20.000  16.383  0.00  0.00    +0.004 A 
ATOM     12  C   UNL     1      36.284  20.600  17.639  0.00  0.00    +0.001 A 
ATOM     13  C   UNL     1      35.430  21.659  17.947  0.00  0.00    +0.009 A 
ATOM     14  C   UNL     1      34.489  22.113  17.009  0.00  0.00    +0.015 A 
ENDROOT
BRANCH   1  21
ATOM     15  N   UNL     1      37.465  28.095  18.621  0.00  0.00    -0.299 N 
ATOM     16  C   UNL     1      36.616  27.649  19.725  0.00  0.00    +0.127 C 
ATOM     17  C   UNL     1      35.164  27.490  19.288  0.00  0.00    +0.129 C 
ATOM     18  N   UNL     1      35.106  26.529  18.197  0.00  0.00    -0.275 N 
ATOM     19  C   UNL     1      34.375  25.374  18.364  0.00  0.00    +0.303 C 
ATOM     20  O   UNL     1      33.770  25.121  19.405  0.00  0.00    -0.253 OA
ATOM     21  N   UNL     1      34.384  24.504  17.315  0.00  0.00    -0.292 N 
ATOM     22  C   UNL     1      35.926  26.885  17.035  0.00  0.00    +0.205 C 
ATOM     23  C   UNL     1      37.217  27.685  17.313  0.00  0.00    +0.233 C 
ATOM     24  O   UNL     1      37.973  27.971  16.381  0.00  0.00    -0.274 OA
ATOM     25  H   UNL     1      34.566  24.872  16.395  0.00  0.00    +0.151 HD
BRANCH  15  27
ATOM     26  C   UNL     1      38.648  30.110  19.451  0.00  0.00    +0.024 C 
ATOM     27  C   UNL     1      38.762  28.680  18.944  0.00  0.00    +0.104 C 
ENDBRANCH  15  27
ENDBRANCH   1  21
TORSDOF 2
ENDMDL
MODEL 9
REMARK VINA RESULT:      -5.8      4.527      5.483
REMARK  Name = ZINC000329563636
REMARK  3 active torsions:
REMARK  status: ('A' for Active; 'I' for Inactive)
REMARK    1  A    between atoms: C_1  and  C_2
REMARK    2  A    between atoms: C_2  and  N_3
REMARK    3  A    between atoms: N_9  and  C_10
REMARK                            x       y       z     vdW  Elec       q    Type
REMARK                         _______ _______ _______ _____ _____    ______ ____
ROOT
ATOM      1  C   UNL     1      34.264  19.947  14.267  0.00  0.00    +0.112 C 
ATOM      2  C   UNL     1      35.334  20.997  13.950  0.00  0.00    +0.075 C 
ATOM      3  C   UNL     1      34.828  22.446  13.912  0.00  0.00    +0.113 C 
ATOM      4  C   UNL     1      34.753  23.146  15.294  0.00  0.00    +0.048 C 
ATOM      5  C   UNL     1      35.830  24.225  15.286  0.00  0.00    +0.004 C 
ATOM      6  C   UNL     1      35.930  24.630  13.828  0.00  0.00    +0.004 C 
ATOM      7  C   UNL     1      35.840  23.298  13.102  0.00  0.00    +0.048 C 
ATOM      8  O   UNL     1      33.557  22.553  13.241  0.00  0.00    -0.485 OA
ATOM      9  C   UNL     1      32.588  21.763  13.803  0.00  0.00    +0.126 A 
ATOM     10  C   UNL     1      31.286  22.259  13.817  0.00  0.00    +0.046 A 
ATOM     11  C   UNL     1      30.262  21.518  14.412  0.00  0.00    +0.004 A 
ATOM     12  C   UNL     1      30.540  20.273  14.969  0.00  0.00    +0.001 A 
ATOM     13  C   UNL     1      31.839  19.765  14.924  0.00  0.00    +0.009 A 
ATOM     14  C   UNL     1      32.876  20.510  14.339  0.00  0.00    +0.015 A 
ENDROOT
BRANCH   1  21
ATOM     15  N   UNL     1      33.523  14.642  10.919  0.00  0.00    -0.299 N 
ATOM     16  C   UNL     1      33.789  14.462  12.346  0.00  0.00    +0.127 C 
ATOM     17  C   UNL     1      34.964  15.315  12.809  0.00  0.00    +0.129 C 
ATOM     18  N   UNL     1      34.668  16.712  12.531  0.00  0.00    -0.275 N 
ATOM     19  C   UNL     1      34.605  17.602  13.581  0.00  0.00    +0.303 C 
ATOM     20  O   UNL     1      34.788  17.259  14.748  0.00  0.00    -0.253 OA
ATOM     21  N   UNL     1      34.296  18.889  13.256  0.00  0.00    -0.292 N 
ATOM     22  C   UNL     1      34.385  17.001  11.122  0.00  0.00    +0.205 C 
ATOM     23  C   UNL     1      33.720  15.875  10.301  0.00  0.00    +0.233 C 
ATOM     24  O   UNL     1      33.412  16.076   9.123  0.00  0.00    -0.274 OA
ATOM     25  H   UNL     1      34.502  19.205  12.322  0.00  0.00    +0.151 HD
BRANCH  15  27
ATOM     26  C   UNL     1      33.426  12.278  10.176  0.00  0.00    +0.024 C 
ATOM     27  C   UNL     1      32.727  13.629  10.235  0.00  0.00    +0.104 C 
ENDBRANCH  15  27
ENDBRANCH   1  21
TORSDOF 2
ENDMDL
