MODEL 1
REMARK VINA RESULT:      -6.7      0.000      0.000
REMARK  Name = ZINC000543478179
REMARK  8 active torsions:
REMARK  status: ('A' for Active; 'I' for Inactive)
REMARK    1  A    between atoms: C_1  and  C_2
REMARK    2  A    between atoms: C_2  and  N_3
REMARK    3  A    between atoms: N_9  and  C_10
REMARK    4  A    between atoms: C_10  and  C_11
REMARK    5  A    between atoms: C_10  and  C_12
REMARK    6  A    between atoms: C_15  and  O_16
REMARK    7  A    between atoms: O_16  and  C_17
REMARK    8  A    between atoms: C_17  and  C_18
REMARK                            x       y       z     vdW  Elec       q    Type
REMARK                         _______ _______ _______ _____ _____    ______ ____
ROOT
ATOM      1  C   UNL     1      30.116  22.607  14.223  0.00  0.00    +0.102 C 
ATOM      2  C   UNL     1      29.983  21.111  13.906  0.00  0.00    +0.033 C 
ENDROOT
BRANCH   1   9
ATOM      3  N   UNL     1      32.508  23.188  20.123  0.00  0.00    -0.299 N 
ATOM      4  C   UNL     1      31.154  22.636  20.082  0.00  0.00    +0.127 C 
ATOM      5  C   UNL     1      30.248  23.413  19.122  0.00  0.00    +0.129 C 
ATOM      6  N   UNL     1      30.831  23.387  17.784  0.00  0.00    -0.275 N 
ATOM      7  C   UNL     1      30.067  22.973  16.701  0.00  0.00    +0.303 C 
ATOM      8  O   UNL     1      28.888  22.658  16.796  0.00  0.00    -0.253 OA
ATOM      9  N   UNL     1      30.749  22.907  15.511  0.00  0.00    -0.293 N 
ATOM     10  C   UNL     1      32.234  23.799  17.716  0.00  0.00    +0.205 C 
ATOM     11  C   UNL     1      33.027  23.884  19.034  0.00  0.00    +0.233 C 
ATOM     12  O   UNL     1      34.133  24.426  19.060  0.00  0.00    -0.274 OA
ATOM     13  H   UNL     1      31.513  23.556  15.436  0.00  0.00    +0.151 HD
BRANCH   3  15
ATOM     14  C   UNL     1      32.716  21.917  22.231  0.00  0.00    +0.024 C 
ATOM     15  C   UNL     1      33.435  22.712  21.148  0.00  0.00    +0.104 C 
ENDBRANCH   3  15
ENDBRANCH   1   9
BRANCH   1  16
ATOM     16  C   UNL     1      30.935  23.292  13.136  0.00  0.00    -0.024 A 
ATOM     17  C   UNL     1      32.221  22.811  12.826  0.00  0.00    +0.009 A 
ATOM     18  C   UNL     1      33.031  23.462  11.900  0.00  0.00    +0.049 A 
ATOM     19  C   UNL     1      32.594  24.639  11.294  0.00  0.00    +0.156 A 
ATOM     20  C   UNL     1      31.295  25.089  11.546  0.00  0.00    +0.165 A 
ATOM     21  F   UNL     1      30.830  26.192  10.941  0.00  0.00    -0.202 F 
ATOM     22  C   UNL     1      30.468  24.428  12.461  0.00  0.00    +0.047 A 
BRANCH  19  23
ATOM     23  O   UNL     1      33.380  25.404  10.472  0.00  0.00    -0.489 OA
BRANCH  23  24
ATOM     24  C   UNL     1      33.906  24.706   9.339  0.00  0.00    +0.232 C 
BRANCH  24  25
ATOM     25  C   UNL     1      32.815  24.517   8.337  0.00  0.00    +0.027 C 
ATOM     26  C   UNL     1      32.709  23.227   7.564  0.00  0.00    +0.007 C 
ATOM     27  C   UNL     1      33.120  24.492   6.859  0.00  0.00    +0.007 C 
ENDBRANCH  24  25
ENDBRANCH  23  24
ENDBRANCH  19  23
ENDBRANCH   1  16
TORSDOF 6
ENDMDL
MODEL 2
REMARK VINA RESULT:      -6.1      3.947      5.475
REMARK  Name = ZINC000543478179
REMARK  8 active torsions:
REMARK  status: ('A' for Active; 'I' for Inactive)
REMARK    1  A    between atoms: C_1  and  C_2
REMARK    2  A    between atoms: C_2  and  N_3
REMARK    3  A    between atoms: N_9  and  C_10
REMARK    4  A    between atoms: C_10  and  C_11
REMARK    5  A    between atoms: C_10  and  C_12
REMARK    6  A    between atoms: C_15  and  O_16
REMARK    7  A    between atoms: O_16  and  C_17
REMARK    8  A    between atoms: C_17  and  C_18
REMARK                            x       y       z     vdW  Elec       q    Type
REMARK                         _______ _______ _______ _____ _____    ______ ____
ROOT
ATOM      1  C   UNL     1      30.378  23.766  18.035  0.00  0.00    +0.102 C 
ATOM      2  C   UNL     1      29.148  23.769  18.953  0.00  0.00    +0.033 C 
ENDROOT
BRANCH   1   9
ATOM      3  N   UNL     1      35.725  21.858  20.974  0.00  0.00    -0.299 N 
ATOM      4  C   UNL     1      35.749  23.258  20.547  0.00  0.00    +0.127 C 
ATOM      5  C   UNL     1      35.212  23.429  19.122  0.00  0.00    +0.129 C 
ATOM      6  N   UNL     1      33.847  22.917  19.057  0.00  0.00    -0.275 N 
ATOM      7  C   UNL     1      32.830  23.712  18.546  0.00  0.00    +0.303 C 
ATOM      8  O   UNL     1      33.021  24.834  18.095  0.00  0.00    -0.253 OA
ATOM      9  N   UNL     1      31.577  23.156  18.618  0.00  0.00    -0.293 N 
ATOM     10  C   UNL     1      33.673  21.561  19.582  0.00  0.00    +0.205 C 
ATOM     11  C   UNL     1      34.812  20.961  20.427  0.00  0.00    +0.233 C 
ATOM     12  O   UNL     1      34.813  19.762  20.707  0.00  0.00    -0.274 OA
ATOM     13  H   UNL     1      31.568  22.151  18.582  0.00  0.00    +0.151 HD
BRANCH   3  15
ATOM     14  C   UNL     1      35.833  22.231  23.414  0.00  0.00    +0.024 C 
ATOM     15  C   UNL     1      36.405  21.487  22.214  0.00  0.00    +0.104 C 
ENDBRANCH   3  15
ENDBRANCH   1   9
BRANCH   1  16
ATOM     16  C   UNL     1      30.057  23.015  16.748  0.00  0.00    -0.024 A 
ATOM     17  C   UNL     1      28.912  22.199  16.686  0.00  0.00    +0.009 A 
ATOM     18  C   UNL     1      28.634  21.433  15.558  0.00  0.00    +0.049 A 
ATOM     19  C   UNL     1      29.518  21.427  14.480  0.00  0.00    +0.156 A 
ATOM     20  C   UNL     1      30.622  22.283  14.506  0.00  0.00    +0.165 A 
ATOM     21  F   UNL     1      31.465  22.335  13.464  0.00  0.00    -0.202 F 
ATOM     22  C   UNL     1      30.898  23.071  15.629  0.00  0.00    +0.047 A 
BRANCH  19  23
ATOM     23  O   UNL     1      29.380  20.605  13.392  0.00  0.00    -0.489 OA
BRANCH  23  24
ATOM     24  C   UNL     1      30.356  19.562  13.311  0.00  0.00    +0.232 C 
BRANCH  24  25
ATOM     25  C   UNL     1      30.078  18.553  14.377  0.00  0.00    +0.027 C 
ATOM     26  C   UNL     1      31.169  17.626  14.848  0.00  0.00    +0.007 C 
ATOM     27  C   UNL     1      30.015  17.081  14.050  0.00  0.00    +0.007 C 
ENDBRANCH  24  25
ENDBRANCH  23  24
ENDBRANCH  19  23
ENDBRANCH   1  16
TORSDOF 6
ENDMDL
MODEL 3
REMARK VINA RESULT:      -6.0      3.254      5.017
REMARK  Name = ZINC000543478179
REMARK  8 active torsions:
REMARK  status: ('A' for Active; 'I' for Inactive)
REMARK    1  A    between atoms: C_1  and  C_2
REMARK    2  A    between atoms: C_2  and  N_3
REMARK    3  A    between atoms: N_9  and  C_10
REMARK    4  A    between atoms: C_10  and  C_11
REMARK    5  A    between atoms: C_10  and  C_12
REMARK    6  A    between atoms: C_15  and  O_16
REMARK    7  A    between atoms: O_16  and  C_17
REMARK    8  A    between atoms: C_17  and  C_18
REMARK                            x       y       z     vdW  Elec       q    Type
REMARK                         _______ _______ _______ _____ _____    ______ ____
ROOT
ATOM      1  C   UNL     1      32.225  24.914  11.174  0.00  0.00    +0.102 C 
ATOM      2  C   UNL     1      31.322  26.089  10.774  0.00  0.00    +0.033 C 
ENDROOT
BRANCH   1   9
ATOM      3  N   UNL     1      29.325  21.429  15.681  0.00  0.00    -0.299 N 
ATOM      4  C   UNL     1      30.028  22.604  16.198  0.00  0.00    +0.127 C 
ATOM      5  C   UNL     1      31.418  22.759  15.575  0.00  0.00    +0.129 C 
ATOM      6  N   UNL     1      31.287  22.862  14.124  0.00  0.00    -0.275 N 
ATOM      7  C   UNL     1      31.879  23.919  13.447  0.00  0.00    +0.303 C 
ATOM      8  O   UNL     1      32.560  24.772  14.002  0.00  0.00    -0.253 OA
ATOM      9  N   UNL     1      31.613  23.957  12.100  0.00  0.00    -0.293 N 
ATOM     10  C   UNL     1      30.489  21.804  13.502  0.00  0.00    +0.205 C 
ATOM     11  C   UNL     1      29.618  20.923  14.417  0.00  0.00    +0.233 C 
ATOM     12  O   UNL     1      29.102  19.893  13.980  0.00  0.00    -0.274 OA
ATOM     13  H   UNL     1      31.444  23.056  11.686  0.00  0.00    +0.151 HD
BRANCH   3  15
ATOM     14  C   UNL     1      27.394  22.166  17.034  0.00  0.00    +0.024 C 
ATOM     15  C   UNL     1      28.084  21.006  16.328  0.00  0.00    +0.104 C 
ENDBRANCH   3  15
ENDBRANCH   1   9
BRANCH   1  16
ATOM     16  C   UNL     1      32.648  24.144   9.928  0.00  0.00    -0.024 A 
ATOM     17  C   UNL     1      33.211  22.860  10.060  0.00  0.00    +0.009 A 
ATOM     18  C   UNL     1      33.686  22.164   8.953  0.00  0.00    +0.049 A 
ATOM     19  C   UNL     1      33.653  22.752   7.689  0.00  0.00    +0.156 A 
ATOM     20  C   UNL     1      33.037  23.998   7.538  0.00  0.00    +0.165 A 
ATOM     21  F   UNL     1      32.948  24.568   6.328  0.00  0.00    -0.202 F 
ATOM     22  C   UNL     1      32.540  24.695   8.644  0.00  0.00    +0.047 A 
BRANCH  19  23
ATOM     23  O   UNL     1      34.215  22.185   6.575  0.00  0.00    -0.489 OA
BRANCH  23  24
ATOM     24  C   UNL     1      35.637  22.034   6.642  0.00  0.00    +0.232 C 
BRANCH  24  25
ATOM     25  C   UNL     1      36.277  23.365   6.423  0.00  0.00    +0.027 C 
ATOM     26  C   UNL     1      36.095  24.090   5.115  0.00  0.00    +0.007 C 
ATOM     27  C   UNL     1      37.439  23.516   5.472  0.00  0.00    +0.007 C 
ENDBRANCH  24  25
ENDBRANCH  23  24
ENDBRANCH  19  23
ENDBRANCH   1  16
TORSDOF 6
ENDMDL
MODEL 4
REMARK VINA RESULT:      -5.9      4.161      5.676
REMARK  Name = ZINC000543478179
REMARK  8 active torsions:
REMARK  status: ('A' for Active; 'I' for Inactive)
REMARK    1  A    between atoms: C_1  and  C_2
REMARK    2  A    between atoms: C_2  and  N_3
REMARK    3  A    between atoms: N_9  and  C_10
REMARK    4  A    between atoms: C_10  and  C_11
REMARK    5  A    between atoms: C_10  and  C_12
REMARK    6  A    between atoms: C_15  and  O_16
REMARK    7  A    between atoms: O_16  and  C_17
REMARK    8  A    between atoms: C_17  and  C_18
REMARK                            x       y       z     vdW  Elec       q    Type
REMARK                         _______ _______ _______ _____ _____    ______ ____
ROOT
ATOM      1  C   UNL     1      32.073  24.385  12.313  0.00  0.00    +0.102 C 
ATOM      2  C   UNL     1      30.659  24.945  12.104  0.00  0.00    +0.033 C 
ENDROOT
BRANCH   1   9
ATOM      3  N   UNL     1      31.718  18.086  13.343  0.00  0.00    -0.299 N 
ATOM      4  C   UNL     1      31.423  18.899  14.523  0.00  0.00    +0.127 C 
ATOM      5  C   UNL     1      32.428  20.043  14.696  0.00  0.00    +0.129 C 
ATOM      6  N   UNL     1      32.410  20.883  13.502  0.00  0.00    -0.275 N 
ATOM      7  C   UNL     1      32.232  22.254  13.620  0.00  0.00    +0.303 C 
ATOM      8  O   UNL     1      32.127  22.825  14.698  0.00  0.00    -0.253 OA
ATOM      9  N   UNL     1      32.145  22.926  12.425  0.00  0.00    -0.293 N 
ATOM     10  C   UNL     1      32.567  20.160  12.239  0.00  0.00    +0.205 C 
ATOM     11  C   UNL     1      32.398  18.629  12.255  0.00  0.00    +0.233 C 
ATOM     12  O   UNL     1      32.729  17.956  11.279  0.00  0.00    -0.274 OA
ATOM     13  H   UNL     1      32.650  22.494  11.671  0.00  0.00    +0.151 HD
BRANCH   3  15
ATOM     14  C   UNL     1      29.774  16.739  14.057  0.00  0.00    +0.024 C 
ATOM     15  C   UNL     1      30.998  16.828  13.155  0.00  0.00    +0.104 C 
ENDBRANCH   3  15
ENDBRANCH   1   9
BRANCH   1  16
ATOM     16  C   UNL     1      32.967  24.803  11.151  0.00  0.00    -0.024 A 
ATOM     17  C   UNL     1      32.385  25.299   9.969  0.00  0.00    +0.009 A 
ATOM     18  C   UNL     1      33.163  25.610   8.857  0.00  0.00    +0.049 A 
ATOM     19  C   UNL     1      34.540  25.388   8.883  0.00  0.00    +0.156 A 
ATOM     20  C   UNL     1      35.134  24.958  10.072  0.00  0.00    +0.165 A 
ATOM     21  F   UNL     1      36.462  24.781  10.142  0.00  0.00    -0.202 F 
ATOM     22  C   UNL     1      34.360  24.662  11.200  0.00  0.00    +0.047 A 
BRANCH  19  23
ATOM     23  O   UNL     1      35.352  25.547   7.791  0.00  0.00    -0.489 OA
BRANCH  23  24
ATOM     24  C   UNL     1      35.066  24.660   6.706  0.00  0.00    +0.232 C 
BRANCH  24  25
ATOM     25  C   UNL     1      35.177  23.251   7.189  0.00  0.00    +0.027 C 
ATOM     26  C   UNL     1      35.067  22.104   6.217  0.00  0.00    +0.007 C 
ATOM     27  C   UNL     1      33.968  22.347   7.217  0.00  0.00    +0.007 C 
ENDBRANCH  24  25
ENDBRANCH  23  24
ENDBRANCH  19  23
ENDBRANCH   1  16
TORSDOF 6
ENDMDL
MODEL 5
REMARK VINA RESULT:      -5.9      6.300      8.391
REMARK  Name = ZINC000543478179
REMARK  8 active torsions:
REMARK  status: ('A' for Active; 'I' for Inactive)
REMARK    1  A    between atoms: C_1  and  C_2
REMARK    2  A    between atoms: C_2  and  N_3
REMARK    3  A    between atoms: N_9  and  C_10
REMARK    4  A    between atoms: C_10  and  C_11
REMARK    5  A    between atoms: C_10  and  C_12
REMARK    6  A    between atoms: C_15  and  O_16
REMARK    7  A    between atoms: O_16  and  C_17
REMARK    8  A    between atoms: C_17  and  C_18
REMARK                            x       y       z     vdW  Elec       q    Type
REMARK                         _______ _______ _______ _____ _____    ______ ____
ROOT
ATOM      1  C   UNL     1      32.297  17.700  12.627  0.00  0.00    +0.102 C 
ATOM      2  C   UNL     1      32.860  18.333  11.347  0.00  0.00    +0.033 C 
ENDROOT
BRANCH   1   9
ATOM      3  N   UNL     1      37.138  15.369  16.090  0.00  0.00    -0.299 N 
ATOM      4  C   UNL     1      36.776  14.539  14.940  0.00  0.00    +0.127 C 
ATOM      5  C   UNL     1      35.259  14.368  14.814  0.00  0.00    +0.129 C 
ATOM      6  N   UNL     1      34.635  15.682  14.689  0.00  0.00    -0.275 N 
ATOM      7  C   UNL     1      33.764  15.940  13.640  0.00  0.00    +0.303 C 
ATOM      8  O   UNL     1      33.445  15.097  12.812  0.00  0.00    -0.253 OA
ATOM      9  N   UNL     1      33.310  17.235  13.579  0.00  0.00    -0.293 N 
ATOM     10  C   UNL     1      35.025  16.647  15.718  0.00  0.00    +0.205 C 
ATOM     11  C   UNL     1      36.254  16.322  16.588  0.00  0.00    +0.233 C 
ATOM     12  O   UNL     1      36.494  16.984  17.598  0.00  0.00    -0.274 OA
ATOM     13  H   UNL     1      33.260  17.698  14.470  0.00  0.00    +0.151 HD
BRANCH   3  15
ATOM     14  C   UNL     1      38.900  14.382  17.514  0.00  0.00    +0.024 C 
ATOM     15  C   UNL     1      38.543  15.450  16.488  0.00  0.00    +0.104 C 
ENDBRANCH   3  15
ENDBRANCH   1   9
BRANCH   1  16
ATOM     16  C   UNL     1      31.412  18.708  13.351  0.00  0.00    -0.024 A 
ATOM     17  C   UNL     1      30.433  18.253  14.255  0.00  0.00    +0.009 A 
ATOM     18  C   UNL     1      29.552  19.138  14.869  0.00  0.00    +0.049 A 
ATOM     19  C   UNL     1      29.595  20.497  14.560  0.00  0.00    +0.156 A 
ATOM     20  C   UNL     1      30.605  20.966  13.715  0.00  0.00    +0.165 A 
ATOM     21  F   UNL     1      30.701  22.275  13.436  0.00  0.00    -0.202 F 
ATOM     22  C   UNL     1      31.507  20.085  13.109  0.00  0.00    +0.047 A 
BRANCH  19  23
ATOM     23  O   UNL     1      28.683  21.408  15.023  0.00  0.00    -0.489 OA
BRANCH  23  24
ATOM     24  C   UNL     1      29.064  22.062  16.237  0.00  0.00    +0.232 C 
BRANCH  24  25
ATOM     25  C   UNL     1      28.088  21.701  17.309  0.00  0.00    +0.027 C 
ATOM     26  C   UNL     1      26.993  20.704  17.035  0.00  0.00    +0.007 C 
ATOM     27  C   UNL     1      26.651  22.157  17.230  0.00  0.00    +0.007 C 
ENDBRANCH  24  25
ENDBRANCH  23  24
ENDBRANCH  19  23
ENDBRANCH   1  16
TORSDOF 6
ENDMDL
MODEL 6
REMARK VINA RESULT:      -5.8      3.902      5.623
REMARK  Name = ZINC000543478179
REMARK  8 active torsions:
REMARK  status: ('A' for Active; 'I' for Inactive)
REMARK    1  A    between atoms: C_1  and  C_2
REMARK    2  A    between atoms: C_2  and  N_3
REMARK    3  A    between atoms: N_9  and  C_10
REMARK    4  A    between atoms: C_10  and  C_11
REMARK    5  A    between atoms: C_10  and  C_12
REMARK    6  A    between atoms: C_15  and  O_16
REMARK    7  A    between atoms: O_16  and  C_17
REMARK    8  A    between atoms: C_17  and  C_18
REMARK                            x       y       z     vdW  Elec       q    Type
REMARK                         _______ _______ _______ _____ _____    ______ ____
ROOT
ATOM      1  C   UNL     1      32.286  24.601  11.455  0.00  0.00    +0.102 C 
ATOM      2  C   UNL     1      30.970  25.389  11.386  0.00  0.00    +0.033 C 
ENDROOT
BRANCH   1   9
ATOM      3  N   UNL     1      30.924  18.895  13.996  0.00  0.00    -0.299 N 
ATOM      4  C   UNL     1      30.260  20.017  14.662  0.00  0.00    +0.127 C 
ATOM      5  C   UNL     1      31.217  21.188  14.901  0.00  0.00    +0.129 C 
ATOM      6  N   UNL     1      31.766  21.630  13.622  0.00  0.00    -0.275 N 
ATOM      7  C   UNL     1      31.692  22.967  13.259  0.00  0.00    +0.303 C 
ATOM      8  O   UNL     1      31.219  23.832  13.984  0.00  0.00    -0.253 OA
ATOM      9  N   UNL     1      32.162  23.246  11.999  0.00  0.00    -0.293 N 
ATOM     10  C   UNL     1      32.347  20.565  12.802  0.00  0.00    +0.205 C 
ATOM     11  C   UNL     1      32.034  19.106  13.183  0.00  0.00    +0.233 C 
ATOM     12  O   UNL     1      32.663  18.180  12.668  0.00  0.00    -0.274 OA
ATOM     13  H   UNL     1      32.883  22.622  11.679  0.00  0.00    +0.151 HD
BRANCH   3  15
ATOM     14  C   UNL     1      29.629  17.192  15.232  0.00  0.00    +0.024 C 
ATOM     15  C   UNL     1      30.220  17.618  13.894  0.00  0.00    +0.104 C 
ENDBRANCH   3  15
ENDBRANCH   1   9
BRANCH   1  16
ATOM     16  C   UNL     1      32.888  24.485  10.060  0.00  0.00    -0.024 A 
ATOM     17  C   UNL     1      33.723  25.509   9.574  0.00  0.00    +0.009 A 
ATOM     18  C   UNL     1      34.221  25.478   8.275  0.00  0.00    +0.049 A 
ATOM     19  C   UNL     1      33.859  24.444   7.411  0.00  0.00    +0.156 A 
ATOM     20  C   UNL     1      33.085  23.390   7.904  0.00  0.00    +0.165 A 
ATOM     21  F   UNL     1      32.761  22.359   7.111  0.00  0.00    -0.202 F 
ATOM     22  C   UNL     1      32.597  23.405   9.215  0.00  0.00    +0.047 A 
BRANCH  19  23
ATOM     23  O   UNL     1      34.203  24.411   6.085  0.00  0.00    -0.489 OA
BRANCH  23  24
ATOM     24  C   UNL     1      35.385  23.656   5.800  0.00  0.00    +0.232 C 
BRANCH  24  25
ATOM     25  C   UNL     1      36.497  24.600   5.477  0.00  0.00    +0.027 C 
ATOM     26  C   UNL     1      36.391  25.522   4.290  0.00  0.00    +0.007 C 
ATOM     27  C   UNL     1      37.370  24.379   4.266  0.00  0.00    +0.007 C 
ENDBRANCH  24  25
ENDBRANCH  23  24
ENDBRANCH  19  23
ENDBRANCH   1  16
TORSDOF 6
ENDMDL
MODEL 7
REMARK VINA RESULT:      -5.8      2.837      9.132
REMARK  Name = ZINC000543478179
REMARK  8 active torsions:
REMARK  status: ('A' for Active; 'I' for Inactive)
REMARK    1  A    between atoms: C_1  and  C_2
REMARK    2  A    between atoms: C_2  and  N_3
REMARK    3  A    between atoms: N_9  and  C_10
REMARK    4  A    between atoms: C_10  and  C_11
REMARK    5  A    between atoms: C_10  and  C_12
REMARK    6  A    between atoms: C_15  and  O_16
REMARK    7  A    between atoms: O_16  and  C_17
REMARK    8  A    between atoms: C_17  and  C_18
REMARK                            x       y       z     vdW  Elec       q    Type
REMARK                         _______ _______ _______ _____ _____    ______ ____
ROOT
ATOM      1  C   UNL     1      31.239  21.228  14.043  0.00  0.00    +0.102 C 
ATOM      2  C   UNL     1      29.730  20.945  14.000  0.00  0.00    +0.033 C 
ENDROOT
BRANCH   1   9
ATOM      3  N   UNL     1      33.459  23.897   8.676  0.00  0.00    -0.299 N 
ATOM      4  C   UNL     1      33.969  22.548   8.924  0.00  0.00    +0.127 C 
ATOM      5  C   UNL     1      34.398  22.357  10.382  0.00  0.00    +0.129 C 
ATOM      6  N   UNL     1      33.260  22.623  11.257  0.00  0.00    -0.275 N 
ATOM      7  C   UNL     1      32.885  21.688  12.212  0.00  0.00    +0.303 C 
ATOM      8  O   UNL     1      33.493  20.642  12.399  0.00  0.00    -0.253 OA
ATOM      9  N   UNL     1      31.749  22.010  12.914  0.00  0.00    -0.293 N 
ATOM     10  C   UNL     1      32.582  23.898  11.015  0.00  0.00    +0.205 C 
ATOM     11  C   UNL     1      32.894  24.646   9.705  0.00  0.00    +0.233 C 
ATOM     12  O   UNL     1      32.525  25.810   9.551  0.00  0.00    -0.274 OA
ATOM     13  H   UNL     1      31.588  22.997  13.010  0.00  0.00    +0.151 HD
BRANCH   3  15
ATOM     14  C   UNL     1      34.424  24.048   6.406  0.00  0.00    +0.024 C 
ATOM     15  C   UNL     1      33.218  24.318   7.297  0.00  0.00    +0.104 C 
ENDBRANCH   3  15
ENDBRANCH   1   9
BRANCH   1  16
ATOM     16  C   UNL     1      31.583  21.984  15.321  0.00  0.00    -0.024 A 
ATOM     17  C   UNL     1      32.862  21.843  15.891  0.00  0.00    +0.009 A 
ATOM     18  C   UNL     1      33.184  22.450  17.101  0.00  0.00    +0.049 A 
ATOM     19  C   UNL     1      32.219  23.177  17.798  0.00  0.00    +0.156 A 
ATOM     20  C   UNL     1      30.967  23.377  17.209  0.00  0.00    +0.165 A 
ATOM     21  F   UNL     1      30.034  24.112  17.833  0.00  0.00    -0.202 F 
ATOM     22  C   UNL     1      30.643  22.786  15.983  0.00  0.00    +0.047 A 
BRANCH  19  23
ATOM     23  O   UNL     1      32.420  23.695  19.050  0.00  0.00    -0.489 OA
BRANCH  23  24
ATOM     24  C   UNL     1      32.044  22.821  20.119  0.00  0.00    +0.232 C 
BRANCH  24  25
ATOM     25  C   UNL     1      33.188  22.701  21.072  0.00  0.00    +0.027 C 
ATOM     26  C   UNL     1      33.998  21.432  21.131  0.00  0.00    +0.007 C 
ATOM     27  C   UNL     1      33.096  21.798  22.278  0.00  0.00    +0.007 C 
ENDBRANCH  24  25
ENDBRANCH  23  24
ENDBRANCH  19  23
ENDBRANCH   1  16
TORSDOF 6
ENDMDL
MODEL 8
REMARK VINA RESULT:      -5.8      1.322      1.820
REMARK  Name = ZINC000543478179
REMARK  8 active torsions:
REMARK  status: ('A' for Active; 'I' for Inactive)
REMARK    1  A    between atoms: C_1  and  C_2
REMARK    2  A    between atoms: C_2  and  N_3
REMARK    3  A    between atoms: N_9  and  C_10
REMARK    4  A    between atoms: C_10  and  C_11
REMARK    5  A    between atoms: C_10  and  C_12
REMARK    6  A    between atoms: C_15  and  O_16
REMARK    7  A    between atoms: O_16  and  C_17
REMARK    8  A    between atoms: C_17  and  C_18
REMARK                            x       y       z     vdW  Elec       q    Type
REMARK                         _______ _______ _______ _____ _____    ______ ____
ROOT
ATOM      1  C   UNL     1      30.154  22.596  14.269  0.00  0.00    +0.102 C 
ATOM      2  C   UNL     1      29.931  21.101  13.996  0.00  0.00    +0.033 C 
ENDROOT
BRANCH   1   9
ATOM      3  N   UNL     1      32.541  23.184  20.169  0.00  0.00    -0.299 N 
ATOM      4  C   UNL     1      31.186  22.635  20.129  0.00  0.00    +0.127 C 
ATOM      5  C   UNL     1      30.282  23.412  19.166  0.00  0.00    +0.129 C 
ATOM      6  N   UNL     1      30.867  23.381  17.828  0.00  0.00    -0.275 N 
ATOM      7  C   UNL     1      30.103  22.966  16.746  0.00  0.00    +0.303 C 
ATOM      8  O   UNL     1      28.923  22.655  16.840  0.00  0.00    -0.253 OA
ATOM      9  N   UNL     1      30.786  22.897  15.556  0.00  0.00    -0.293 N 
ATOM     10  C   UNL     1      32.271  23.790  17.761  0.00  0.00    +0.205 C 
ATOM     11  C   UNL     1      33.063  23.876  19.079  0.00  0.00    +0.233 C 
ATOM     12  O   UNL     1      34.170  24.416  19.106  0.00  0.00    -0.274 OA
ATOM     13  H   UNL     1      31.552  23.544  15.481  0.00  0.00    +0.151 HD
BRANCH   3  15
ATOM     14  C   UNL     1      32.746  21.909  22.275  0.00  0.00    +0.024 C 
ATOM     15  C   UNL     1      33.466  22.708  21.197  0.00  0.00    +0.104 C 
ENDBRANCH   3  15
ENDBRANCH   1   9
BRANCH   1  16
ATOM     16  C   UNL     1      31.030  23.192  13.174  0.00  0.00    -0.024 A 
ATOM     17  C   UNL     1      32.288  22.621  12.900  0.00  0.00    +0.009 A 
ATOM     18  C   UNL     1      33.150  23.189  11.967  0.00  0.00    +0.049 A 
ATOM     19  C   UNL     1      32.797  24.372  11.317  0.00  0.00    +0.156 A 
ATOM     20  C   UNL     1      31.526  24.909  11.534  0.00  0.00    +0.165 A 
ATOM     21  F   UNL     1      31.140  26.019  10.887  0.00  0.00    -0.202 F 
ATOM     22  C   UNL     1      30.646  24.332  12.455  0.00  0.00    +0.047 A 
BRANCH  19  23
ATOM     23  O   UNL     1      33.641  25.058  10.485  0.00  0.00    -0.489 OA
BRANCH  23  24
ATOM     24  C   UNL     1      35.016  24.675  10.589  0.00  0.00    +0.232 C 
BRANCH  24  25
ATOM     25  C   UNL     1      35.808  25.840  11.085  0.00  0.00    +0.027 C 
ATOM     26  C   UNL     1      35.921  27.091  10.253  0.00  0.00    +0.007 C 
ATOM     27  C   UNL     1      37.124  26.208  10.443  0.00  0.00    +0.007 C 
ENDBRANCH  24  25
ENDBRANCH  23  24
ENDBRANCH  19  23
ENDBRANCH   1  16
TORSDOF 6
ENDMDL
MODEL 9
REMARK VINA RESULT:      -5.8      3.929      8.925
REMARK  Name = ZINC000543478179
REMARK  8 active torsions:
REMARK  status: ('A' for Active; 'I' for Inactive)
REMARK    1  A    between atoms: C_1  and  C_2
REMARK    2  A    between atoms: C_2  and  N_3
REMARK    3  A    between atoms: N_9  and  C_10
REMARK    4  A    between atoms: C_10  and  C_11
REMARK    5  A    between atoms: C_10  and  C_12
REMARK    6  A    between atoms: C_15  and  O_16
REMARK    7  A    between atoms: O_16  and  C_17
REMARK    8  A    between atoms: C_17  and  C_18
REMARK                            x       y       z     vdW  Elec       q    Type
REMARK                         _______ _______ _______ _____ _____    ______ ____
ROOT
ATOM      1  C   UNL     1      30.781  20.699  14.390  0.00  0.00    +0.102 C 
ATOM      2  C   UNL     1      30.403  19.393  13.676  0.00  0.00    +0.033 C 
ENDROOT
BRANCH   1   9
ATOM      3  N   UNL     1      32.935  24.913  10.093  0.00  0.00    -0.299 N 
ATOM      4  C   UNL     1      33.934  23.930  10.514  0.00  0.00    +0.127 C 
ATOM      5  C   UNL     1      33.932  23.728  12.033  0.00  0.00    +0.129 C 
ATOM      6  N   UNL     1      32.604  23.294  12.458  0.00  0.00    -0.275 N 
ATOM      7  C   UNL     1      32.462  22.153  13.235  0.00  0.00    +0.303 C 
ATOM      8  O   UNL     1      33.412  21.490  13.630  0.00  0.00    -0.253 OA
ATOM      9  N   UNL     1      31.162  21.798  13.498  0.00  0.00    -0.293 N 
ATOM     10  C   UNL     1      31.502  24.134  11.985  0.00  0.00    +0.205 C 
ATOM     11  C   UNL     1      31.793  25.141  10.856  0.00  0.00    +0.233 C 
ATOM     12  O   UNL     1      30.970  26.012  10.572  0.00  0.00    -0.274 OA
ATOM     13  H   UNL     1      30.519  22.570  13.523  0.00  0.00    +0.151 HD
BRANCH   3  15
ATOM     14  C   UNL     1      32.682  24.263   7.722  0.00  0.00    +0.024 C 
ATOM     15  C   UNL     1      32.953  25.390   8.711  0.00  0.00    +0.104 C 
ENDBRANCH   3  15
ENDBRANCH   1   9
BRANCH   1  16
ATOM     16  C   UNL     1      29.608  21.178  15.238  0.00  0.00    -0.024 A 
ATOM     17  C   UNL     1      29.539  22.528  15.631  0.00  0.00    +0.009 A 
ATOM     18  C   UNL     1      28.530  22.982  16.475  0.00  0.00    +0.049 A 
ATOM     19  C   UNL     1      27.590  22.088  16.986  0.00  0.00    +0.156 A 
ATOM     20  C   UNL     1      27.611  20.761  16.550  0.00  0.00    +0.165 A 
ATOM     21  F   UNL     1      26.691  19.889  16.987  0.00  0.00    -0.202 F 
ATOM     22  C   UNL     1      28.611  20.301  15.686  0.00  0.00    +0.047 A 
BRANCH  19  23
ATOM     23  O   UNL     1      26.647  22.433  17.918  0.00  0.00    -0.489 OA
BRANCH  23  24
ATOM     24  C   UNL     1      25.341  22.668  17.382  0.00  0.00    +0.232 C 
BRANCH  24  25
ATOM     25  C   UNL     1      24.814  23.952  17.933  0.00  0.00    +0.027 C 
ATOM     26  C   UNL     1      23.734  23.940  18.984  0.00  0.00    +0.007 C 
ATOM     27  C   UNL     1      23.421  24.423  17.593  0.00  0.00    +0.007 C 
ENDBRANCH  24  25
ENDBRANCH  23  24
ENDBRANCH  19  23
ENDBRANCH   1  16
TORSDOF 6
ENDMDL
