MODEL 1
REMARK VINA RESULT:      -6.6      0.000      0.000
REMARK  Name = ZINC000329563636
REMARK  3 active torsions:
REMARK  status: ('A' for Active; 'I' for Inactive)
REMARK    1  A    between atoms: C_1  and  C_2
REMARK    2  A    between atoms: C_2  and  N_3
REMARK    3  A    between atoms: N_9  and  C_10
REMARK                            x       y       z     vdW  Elec       q    Type
REMARK                         _______ _______ _______ _____ _____    ______ ____
ROOT
ATOM      1  C   UNL     1      33.154  16.605  13.995  0.00  0.00    +0.112 C 
ATOM      2  C   UNL     1      31.810  15.899  13.790  0.00  0.00    +0.075 C 
ATOM      3  C   UNL     1      31.746  14.972  12.567  0.00  0.00    +0.113 C 
ATOM      4  C   UNL     1      32.299  13.542  12.806  0.00  0.00    +0.048 C 
ATOM      5  C   UNL     1      31.099  12.604  12.747  0.00  0.00    +0.004 C 
ATOM      6  C   UNL     1      30.145  13.291  11.790  0.00  0.00    +0.004 C 
ATOM      7  C   UNL     1      30.256  14.752  12.195  0.00  0.00    +0.048 C 
ATOM      8  O   UNL     1      32.385  15.556  11.416  0.00  0.00    -0.485 OA
ATOM      9  C   UNL     1      33.694  15.894  11.644  0.00  0.00    +0.126 A 
ATOM     10  C   UNL     1      34.589  15.739  10.587  0.00  0.00    +0.046 A 
ATOM     11  C   UNL     1      35.943  16.028  10.771  0.00  0.00    +0.004 A 
ATOM     12  C   UNL     1      36.393  16.493  12.004  0.00  0.00    +0.001 A 
ATOM     13  C   UNL     1      35.488  16.678  13.050  0.00  0.00    +0.009 A 
ATOM     14  C   UNL     1      34.127  16.377  12.876  0.00  0.00    +0.015 A 
ENDROOT
BRANCH   1  21
ATOM     15  N   UNL     1      33.586  22.760  15.351  0.00  0.00    -0.299 N 
ATOM     16  C   UNL     1      33.999  21.844  16.414  0.00  0.00    +0.127 C 
ATOM     17  C   UNL     1      32.971  20.738  16.633  0.00  0.00    +0.129 C 
ATOM     18  N   UNL     1      32.797  20.008  15.386  0.00  0.00    -0.275 N 
ATOM     19  C   UNL     1      33.095  18.664  15.354  0.00  0.00    +0.303 C 
ATOM     20  O   UNL     1      33.508  18.056  16.340  0.00  0.00    -0.253 OA
ATOM     21  N   UNL     1      32.937  18.045  14.150  0.00  0.00    -0.292 N 
ATOM     22  C   UNL     1      32.382  20.839  14.252  0.00  0.00    +0.205 C 
ATOM     23  C   UNL     1      32.871  22.303  14.245  0.00  0.00    +0.233 C 
ATOM     24  O   UNL     1      32.596  23.037  13.293  0.00  0.00    -0.274 OA
ATOM     25  H   UNL     1      32.288  18.446  13.492  0.00  0.00    +0.151 HD
BRANCH  15  27
ATOM     26  C   UNL     1      34.269  24.764  16.641  0.00  0.00    +0.024 C 
ATOM     27  C   UNL     1      34.223  24.070  15.288  0.00  0.00    +0.104 C 
ENDBRANCH  15  27
ENDBRANCH   1  21
TORSDOF 2
ENDMDL
MODEL 2
REMARK VINA RESULT:      -6.5      2.226      8.402
REMARK  Name = ZINC000329563636
REMARK  3 active torsions:
REMARK  status: ('A' for Active; 'I' for Inactive)
REMARK    1  A    between atoms: C_1  and  C_2
REMARK    2  A    between atoms: C_2  and  N_3
REMARK    3  A    between atoms: N_9  and  C_10
REMARK                            x       y       z     vdW  Elec       q    Type
REMARK                         _______ _______ _______ _____ _____    ______ ____
ROOT
ATOM      1  C   UNL     1      34.713  21.260  16.154  0.00  0.00    +0.112 C 
ATOM      2  C   UNL     1      35.438  22.605  16.025  0.00  0.00    +0.075 C 
ATOM      3  C   UNL     1      34.553  23.840  16.247  0.00  0.00    +0.113 C 
ATOM      4  C   UNL     1      34.364  24.246  17.733  0.00  0.00    +0.048 C 
ATOM      5  C   UNL     1      35.102  25.567  17.913  0.00  0.00    +0.004 C 
ATOM      6  C   UNL     1      35.010  26.226  16.550  0.00  0.00    +0.004 C 
ATOM      7  C   UNL     1      35.249  25.065  15.598  0.00  0.00    +0.048 C 
ATOM      8  O   UNL     1      33.267  23.701  15.612  0.00  0.00    -0.485 OA
ATOM      9  C   UNL     1      32.582  22.589  16.028  0.00  0.00    +0.126 A 
ATOM     10  C   UNL     1      31.197  22.693  16.135  0.00  0.00    +0.046 A 
ATOM     11  C   UNL     1      30.448  21.607  16.593  0.00  0.00    +0.004 A 
ATOM     12  C   UNL     1      31.085  20.411  16.918  0.00  0.00    +0.001 A 
ATOM     13  C   UNL     1      32.469  20.302  16.778  0.00  0.00    +0.009 A 
ATOM     14  C   UNL     1      33.230  21.394  16.331  0.00  0.00    +0.015 A 
ENDROOT
BRANCH   1  21
ATOM     15  N   UNL     1      35.067  16.671  11.827  0.00  0.00    -0.299 N 
ATOM     16  C   UNL     1      35.283  16.257  13.213  0.00  0.00    +0.127 C 
ATOM     17  C   UNL     1      36.269  17.175  13.926  0.00  0.00    +0.129 C 
ATOM     18  N   UNL     1      35.755  18.536  13.889  0.00  0.00    -0.275 N 
ATOM     19  C   UNL     1      35.485  19.179  15.076  0.00  0.00    +0.303 C 
ATOM     20  O   UNL     1      35.660  18.646  16.170  0.00  0.00    -0.253 OA
ATOM     21  N   UNL     1      34.979  20.441  14.971  0.00  0.00    -0.292 N 
ATOM     22  C   UNL     1      35.503  19.049  12.538  0.00  0.00    +0.205 C 
ATOM     23  C   UNL     1      35.085  18.018  11.468  0.00  0.00    +0.233 C 
ATOM     24  O   UNL     1      34.811  18.396  10.326  0.00  0.00    -0.274 OA
ATOM     25  H   UNL     1      35.179  20.963  14.133  0.00  0.00    +0.151 HD
BRANCH  15  27
ATOM     26  C   UNL     1      33.298  14.968  11.491  0.00  0.00    +0.024 C 
ATOM     27  C   UNL     1      34.493  15.701  10.901  0.00  0.00    +0.104 C 
ENDBRANCH  15  27
ENDBRANCH   1  21
TORSDOF 2
ENDMDL
MODEL 3
REMARK VINA RESULT:      -6.4      2.444      7.779
REMARK  Name = ZINC000329563636
REMARK  3 active torsions:
REMARK  status: ('A' for Active; 'I' for Inactive)
REMARK    1  A    between atoms: C_1  and  C_2
REMARK    2  A    between atoms: C_2  and  N_3
REMARK    3  A    between atoms: N_9  and  C_10
REMARK                            x       y       z     vdW  Elec       q    Type
REMARK                         _______ _______ _______ _____ _____    ______ ____
ROOT
ATOM      1  C   UNL     1      33.759  19.333  14.479  0.00  0.00    +0.112 C 
ATOM      2  C   UNL     1      32.551  20.277  14.464  0.00  0.00    +0.075 C 
ATOM      3  C   UNL     1      32.167  20.858  15.833  0.00  0.00    +0.113 C 
ATOM      4  C   UNL     1      32.968  22.118  16.252  0.00  0.00    +0.048 C 
ATOM      5  C   UNL     1      31.981  23.280  16.228  0.00  0.00    +0.004 C 
ATOM      6  C   UNL     1      30.650  22.635  16.560  0.00  0.00    +0.004 C 
ATOM      7  C   UNL     1      30.695  21.340  15.765  0.00  0.00    +0.048 C 
ATOM      8  O   UNL     1      32.238  19.866  16.876  0.00  0.00    -0.485 OA
ATOM      9  C   UNL     1      33.473  19.282  16.976  0.00  0.00    +0.126 A 
ATOM     10  C   UNL     1      33.919  18.942  18.252  0.00  0.00    +0.046 A 
ATOM     11  C   UNL     1      35.187  18.382  18.423  0.00  0.00    +0.004 A 
ATOM     12  C   UNL     1      35.995  18.140  17.314  0.00  0.00    +0.001 A 
ATOM     13  C   UNL     1      35.531  18.452  16.035  0.00  0.00    +0.009 A 
ATOM     14  C   UNL     1      34.263  19.028  15.857  0.00  0.00    +0.015 A 
ENDROOT
BRANCH   1  21
ATOM     15  N   UNL     1      33.781  13.715  11.590  0.00  0.00    -0.299 N 
ATOM     16  C   UNL     1      34.793  14.669  11.135  0.00  0.00    +0.127 C 
ATOM     17  C   UNL     1      34.188  16.042  10.865  0.00  0.00    +0.129 C 
ATOM     18  N   UNL     1      33.562  16.527  12.086  0.00  0.00    -0.275 N 
ATOM     19  C   UNL     1      34.022  17.694  12.653  0.00  0.00    +0.303 C 
ATOM     20  O   UNL     1      34.947  18.343  12.168  0.00  0.00    -0.253 OA
ATOM     21  N   UNL     1      33.412  18.078  13.810  0.00  0.00    -0.292 N 
ATOM     22  C   UNL     1      32.528  15.639  12.627  0.00  0.00    +0.205 C 
ATOM     23  C   UNL     1      32.711  14.126  12.382  0.00  0.00    +0.233 C 
ATOM     24  O   UNL     1      31.900  13.326  12.856  0.00  0.00    -0.274 OA
ATOM     25  H   UNL     1      32.472  17.755  13.980  0.00  0.00    +0.151 HD
BRANCH  15  27
ATOM     26  C   UNL     1      34.930  11.951  10.281  0.00  0.00    +0.024 C 
ATOM     27  C   UNL     1      34.089  12.292  11.502  0.00  0.00    +0.104 C 
ENDBRANCH  15  27
ENDBRANCH   1  21
TORSDOF 2
ENDMDL
MODEL 4
REMARK VINA RESULT:      -6.3      4.661      8.523
REMARK  Name = ZINC000329563636
REMARK  3 active torsions:
REMARK  status: ('A' for Active; 'I' for Inactive)
REMARK    1  A    between atoms: C_1  and  C_2
REMARK    2  A    between atoms: C_2  and  N_3
REMARK    3  A    between atoms: N_9  and  C_10
REMARK                            x       y       z     vdW  Elec       q    Type
REMARK                         _______ _______ _______ _____ _____    ______ ____
ROOT
ATOM      1  C   UNL     1      35.062  22.692  14.133  0.00  0.00    +0.112 C 
ATOM      2  C   UNL     1      35.201  23.967  14.973  0.00  0.00    +0.075 C 
ATOM      3  C   UNL     1      34.353  23.993  16.253  0.00  0.00    +0.113 C 
ATOM      4  C   UNL     1      34.997  23.288  17.475  0.00  0.00    +0.048 C 
ATOM      5  C   UNL     1      35.337  24.388  18.473  0.00  0.00    +0.004 C 
ATOM      6  C   UNL     1      34.287  25.451  18.218  0.00  0.00    +0.004 C 
ATOM      7  C   UNL     1      34.188  25.469  16.701  0.00  0.00    +0.048 C 
ATOM      8  O   UNL     1      33.028  23.471  16.031  0.00  0.00    -0.485 OA
ATOM      9  C   UNL     1      33.034  22.194  15.532  0.00  0.00    +0.126 A 
ATOM     10  C   UNL     1      32.017  21.338  15.954  0.00  0.00    +0.046 A 
ATOM     11  C   UNL     1      31.993  20.013  15.513  0.00  0.00    +0.004 A 
ATOM     12  C   UNL     1      32.971  19.555  14.633  0.00  0.00    +0.001 A 
ATOM     13  C   UNL     1      33.967  20.425  14.188  0.00  0.00    +0.009 A 
ATOM     14  C   UNL     1      34.006  21.755  14.637  0.00  0.00    +0.015 A 
ENDROOT
BRANCH   1  21
ATOM     15  N   UNL     1      34.914  23.260   7.843  0.00  0.00    -0.299 N 
ATOM     16  C   UNL     1      36.244  23.267   8.451  0.00  0.00    +0.127 C 
ATOM     17  C   UNL     1      36.312  24.219   9.640  0.00  0.00    +0.129 C 
ATOM     18  N   UNL     1      35.318  23.813  10.623  0.00  0.00    -0.275 N 
ATOM     19  C   UNL     1      35.738  23.442  11.881  0.00  0.00    +0.303 C 
ATOM     20  O   UNL     1      36.924  23.437  12.206  0.00  0.00    -0.253 OA
ATOM     21  N   UNL     1      34.760  23.047  12.745  0.00  0.00    -0.292 N 
ATOM     22  C   UNL     1      33.945  23.773  10.111  0.00  0.00    +0.205 C 
ATOM     23  C   UNL     1      33.768  23.420   8.619  0.00  0.00    +0.233 C 
ATOM     24  O   UNL     1      32.634  23.323   8.143  0.00  0.00    -0.274 OA
ATOM     25  H   UNL     1      33.825  23.389  12.591  0.00  0.00    +0.151 HD
BRANCH  15  27
ATOM     26  C   UNL     1      34.884  21.222   6.431  0.00  0.00    +0.024 C 
ATOM     27  C   UNL     1      34.781  22.739   6.487  0.00  0.00    +0.104 C 
ENDBRANCH  15  27
ENDBRANCH   1  21
TORSDOF 2
ENDMDL
MODEL 5
REMARK VINA RESULT:      -6.2      4.104      6.270
REMARK  Name = ZINC000329563636
REMARK  3 active torsions:
REMARK  status: ('A' for Active; 'I' for Inactive)
REMARK    1  A    between atoms: C_1  and  C_2
REMARK    2  A    between atoms: C_2  and  N_3
REMARK    3  A    between atoms: N_9  and  C_10
REMARK                            x       y       z     vdW  Elec       q    Type
REMARK                         _______ _______ _______ _____ _____    ______ ____
ROOT
ATOM      1  C   UNL     1      35.052  18.712  13.425  0.00  0.00    +0.112 C 
ATOM      2  C   UNL     1      34.802  19.584  14.661  0.00  0.00    +0.075 C 
ATOM      3  C   UNL     1      33.817  18.994  15.680  0.00  0.00    +0.113 C 
ATOM      4  C   UNL     1      34.444  17.996  16.688  0.00  0.00    +0.048 C 
ATOM      5  C   UNL     1      34.408  18.682  18.049  0.00  0.00    +0.004 C 
ATOM      6  C   UNL     1      33.190  19.581  17.972  0.00  0.00    +0.004 C 
ATOM      7  C   UNL     1      33.278  20.149  16.565  0.00  0.00    +0.048 C 
ATOM      8  O   UNL     1      32.678  18.389  15.039  0.00  0.00    -0.485 OA
ATOM      9  C   UNL     1      33.025  17.410  14.145  0.00  0.00    +0.126 A 
ATOM     10  C   UNL     1      32.178  16.308  14.041  0.00  0.00    +0.046 A 
ATOM     11  C   UNL     1      32.500  15.258  13.178  0.00  0.00    +0.004 A 
ATOM     12  C   UNL     1      33.656  15.325  12.403  0.00  0.00    +0.001 A 
ATOM     13  C   UNL     1      34.484  16.445  12.487  0.00  0.00    +0.009 A 
ATOM     14  C   UNL     1      34.174  17.498  13.362  0.00  0.00    +0.015 A 
ENDROOT
BRANCH   1  21
ATOM     15  N   UNL     1      35.298  21.229   7.637  0.00  0.00    -0.299 N 
ATOM     16  C   UNL     1      36.589  20.935   8.258  0.00  0.00    +0.127 C 
ATOM     17  C   UNL     1      36.656  21.458   9.688  0.00  0.00    +0.129 C 
ATOM     18  N   UNL     1      35.582  20.849  10.460  0.00  0.00    -0.275 N 
ATOM     19  C   UNL     1      35.904  20.070  11.549  0.00  0.00    +0.303 C 
ATOM     20  O   UNL     1      37.066  19.865  11.894  0.00  0.00    -0.253 OA
ATOM     21  N   UNL     1      34.854  19.506  12.212  0.00  0.00    -0.292 N 
ATOM     22  C   UNL     1      34.240  21.085   9.919  0.00  0.00    +0.205 C 
ATOM     23  C   UNL     1      34.124  21.233   8.386  0.00  0.00    +0.233 C 
ATOM     24  O   UNL     1      33.014  21.384   7.868  0.00  0.00    -0.274 OA
ATOM     25  H   UNL     1      33.954  19.956  12.145  0.00  0.00    +0.151 HD
BRANCH  15  27
ATOM     26  C   UNL     1      36.160  22.140   5.498  0.00  0.00    +0.024 C 
ATOM     27  C   UNL     1      35.206  21.172   6.182  0.00  0.00    +0.104 C 
ENDBRANCH  15  27
ENDBRANCH   1  21
TORSDOF 2
ENDMDL
MODEL 6
REMARK VINA RESULT:      -6.1      4.432      6.296
REMARK  Name = ZINC000329563636
REMARK  3 active torsions:
REMARK  status: ('A' for Active; 'I' for Inactive)
REMARK    1  A    between atoms: C_1  and  C_2
REMARK    2  A    between atoms: C_2  and  N_3
REMARK    3  A    between atoms: N_9  and  C_10
REMARK                            x       y       z     vdW  Elec       q    Type
REMARK                         _______ _______ _______ _____ _____    ______ ____
ROOT
ATOM      1  C   UNL     1      34.724  19.963  13.205  0.00  0.00    +0.112 C 
ATOM      2  C   UNL     1      33.830  20.716  14.196  0.00  0.00    +0.075 C 
ATOM      3  C   UNL     1      32.911  19.826  15.045  0.00  0.00    +0.113 C 
ATOM      4  C   UNL     1      33.574  19.230  16.314  0.00  0.00    +0.048 C 
ATOM      5  C   UNL     1      32.905  19.908  17.504  0.00  0.00    +0.004 C 
ATOM      6  C   UNL     1      31.506  20.217  17.010  0.00  0.00    +0.004 C 
ATOM      7  C   UNL     1      31.748  20.697  15.589  0.00  0.00    +0.048 C 
ATOM      8  O   UNL     1      32.316  18.770  14.264  0.00  0.00    -0.485 OA
ATOM      9  C   UNL     1      33.244  17.978  13.641  0.00  0.00    +0.126 A 
ATOM     10  C   UNL     1      32.951  16.620  13.522  0.00  0.00    +0.046 A 
ATOM     11  C   UNL     1      33.876  15.755  12.933  0.00  0.00    +0.004 A 
ATOM     12  C   UNL     1      35.080  16.254  12.442  0.00  0.00    +0.001 A 
ATOM     13  C   UNL     1      35.355  17.619  12.534  0.00  0.00    +0.009 A 
ATOM     14  C   UNL     1      34.436  18.493  13.136  0.00  0.00    +0.015 A 
ENDROOT
BRANCH   1  21
ATOM     15  N   UNL     1      35.605  22.548   7.509  0.00  0.00    -0.299 N 
ATOM     16  C   UNL     1      36.399  23.119   8.596  0.00  0.00    +0.127 C 
ATOM     17  C   UNL     1      35.541  23.420   9.820  0.00  0.00    +0.129 C 
ATOM     18  N   UNL     1      34.907  22.187  10.262  0.00  0.00    -0.275 N 
ATOM     19  C   UNL     1      35.178  21.714  11.526  0.00  0.00    +0.303 C 
ATOM     20  O   UNL     1      35.941  22.293  12.298  0.00  0.00    -0.253 OA
ATOM     21  N   UNL     1      34.574  20.540  11.868  0.00  0.00    -0.292 N 
ATOM     22  C   UNL     1      34.083  21.532   9.241  0.00  0.00    +0.205 C 
ATOM     23  C   UNL     1      34.524  21.709   7.772  0.00  0.00    +0.233 C 
ATOM     24  O   UNL     1      33.900  21.141   6.872  0.00  0.00    -0.274 OA
ATOM     25  H   UNL     1      33.720  20.291  11.395  0.00  0.00    +0.151 HD
BRANCH  15  27
ATOM     26  C   UNL     1      35.886  23.897   5.447  0.00  0.00    +0.024 C 
ATOM     27  C   UNL     1      36.161  22.581   6.161  0.00  0.00    +0.104 C 
ENDBRANCH  15  27
ENDBRANCH   1  21
TORSDOF 2
ENDMDL
MODEL 7
REMARK VINA RESULT:      -6.0      3.621      6.745
REMARK  Name = ZINC000329563636
REMARK  3 active torsions:
REMARK  status: ('A' for Active; 'I' for Inactive)
REMARK    1  A    between atoms: C_1  and  C_2
REMARK    2  A    between atoms: C_2  and  N_3
REMARK    3  A    between atoms: N_9  and  C_10
REMARK                            x       y       z     vdW  Elec       q    Type
REMARK                         _______ _______ _______ _____ _____    ______ ____
ROOT
ATOM      1  C   UNL     1      34.386  21.197  16.070  0.00  0.00    +0.112 C 
ATOM      2  C   UNL     1      34.640  19.704  15.832  0.00  0.00    +0.075 C 
ATOM      3  C   UNL     1      33.374  18.849  15.676  0.00  0.00    +0.113 C 
ATOM      4  C   UNL     1      32.775  18.830  14.245  0.00  0.00    +0.048 C 
ATOM      5  C   UNL     1      32.989  17.418  13.711  0.00  0.00    +0.004 C 
ATOM      6  C   UNL     1      32.956  16.549  14.952  0.00  0.00    +0.004 C 
ATOM      7  C   UNL     1      33.743  17.370  15.960  0.00  0.00    +0.048 C 
ATOM      8  O   UNL     1      32.356  19.219  16.626  0.00  0.00    -0.485 OA
ATOM      9  C   UNL     1      32.006  20.541  16.548  0.00  0.00    +0.126 A 
ATOM     10  C   UNL     1      30.670  20.865  16.779  0.00  0.00    +0.046 A 
ATOM     11  C   UNL     1      30.245  22.191  16.673  0.00  0.00    +0.004 A 
ATOM     12  C   UNL     1      31.161  23.193  16.361  0.00  0.00    +0.001 A 
ATOM     13  C   UNL     1      32.504  22.868  16.163  0.00  0.00    +0.009 A 
ATOM     14  C   UNL     1      32.937  21.535  16.255  0.00  0.00    +0.015 A 
ENDROOT
BRANCH   1  21
ATOM     15  N   UNL     1      36.975  24.475  20.809  0.00  0.00    -0.299 N 
ATOM     16  C   UNL     1      36.970  25.138  19.505  0.00  0.00    +0.127 C 
ATOM     17  C   UNL     1      37.474  24.212  18.403  0.00  0.00    +0.129 C 
ATOM     18  N   UNL     1      36.629  23.029  18.363  0.00  0.00    -0.275 N 
ATOM     19  C   UNL     1      35.927  22.750  17.211  0.00  0.00    +0.303 C 
ATOM     20  O   UNL     1      35.984  23.468  16.214  0.00  0.00    -0.253 OA
ATOM     21  N   UNL     1      35.132  21.643  17.248  0.00  0.00    -0.292 N 
ATOM     22  C   UNL     1      36.565  22.288  19.627  0.00  0.00    +0.205 C 
ATOM     23  C   UNL     1      36.704  23.113  20.924  0.00  0.00    +0.233 C 
ATOM     24  O   UNL     1      36.608  22.553  22.019  0.00  0.00    -0.274 OA
ATOM     25  H   UNL     1      35.369  20.911  17.899  0.00  0.00    +0.151 HD
BRANCH  15  27
ATOM     26  C   UNL     1      35.957  26.480  21.854  0.00  0.00    +0.024 C 
ATOM     27  C   UNL     1      36.918  25.310  22.004  0.00  0.00    +0.104 C 
ENDBRANCH  15  27
ENDBRANCH   1  21
TORSDOF 2
ENDMDL
MODEL 8
REMARK VINA RESULT:      -5.9      3.447      6.890
REMARK  Name = ZINC000329563636
REMARK  3 active torsions:
REMARK  status: ('A' for Active; 'I' for Inactive)
REMARK    1  A    between atoms: C_1  and  C_2
REMARK    2  A    between atoms: C_2  and  N_3
REMARK    3  A    between atoms: N_9  and  C_10
REMARK                            x       y       z     vdW  Elec       q    Type
REMARK                         _______ _______ _______ _____ _____    ______ ____
ROOT
ATOM      1  C   UNL     1      34.121  21.904  15.688  0.00  0.00    +0.112 C 
ATOM      2  C   UNL     1      34.733  20.530  15.395  0.00  0.00    +0.075 C 
ATOM      3  C   UNL     1      33.734  19.364  15.394  0.00  0.00    +0.113 C 
ATOM      4  C   UNL     1      32.978  19.156  14.056  0.00  0.00    +0.048 C 
ATOM      5  C   UNL     1      33.490  17.842  13.475  0.00  0.00    +0.004 C 
ATOM      6  C   UNL     1      33.856  17.021  14.696  0.00  0.00    +0.004 C 
ATOM      7  C   UNL     1      34.520  18.043  15.603  0.00  0.00    +0.048 C 
ATOM      8  O   UNL     1      32.788  19.466  16.477  0.00  0.00    -0.485 OA
ATOM      9  C   UNL     1      32.090  20.645  16.467  0.00  0.00    +0.126 A 
ATOM     10  C   UNL     1      30.759  20.604  16.879  0.00  0.00    +0.046 A 
ATOM     11  C   UNL     1      29.983  21.765  16.851  0.00  0.00    +0.004 A 
ATOM     12  C   UNL     1      30.548  22.969  16.436  0.00  0.00    +0.001 A 
ATOM     13  C   UNL     1      31.890  23.012  16.057  0.00  0.00    +0.009 A 
ATOM     14  C   UNL     1      32.672  21.846  16.069  0.00  0.00    +0.015 A 
ENDROOT
BRANCH   1  21
ATOM     15  N   UNL     1      36.407  25.894  20.020  0.00  0.00    -0.299 N 
ATOM     16  C   UNL     1      36.124  26.474  18.707  0.00  0.00    +0.127 C 
ATOM     17  C   UNL     1      36.702  25.623  17.581  0.00  0.00    +0.129 C 
ATOM     18  N   UNL     1      36.135  24.286  17.667  0.00  0.00    -0.275 N 
ATOM     19  C   UNL     1      35.396  23.806  16.608  0.00  0.00    +0.303 C 
ATOM     20  O   UNL     1      35.193  24.469  15.592  0.00  0.00    -0.253 OA
ATOM     21  N   UNL     1      34.870  22.558  16.763  0.00  0.00    -0.292 N 
ATOM     22  C   UNL     1      36.364  23.613  18.949  0.00  0.00    +0.205 C 
ATOM     23  C   UNL     1      36.453  24.513  20.201  0.00  0.00    +0.233 C 
ATOM     24  O   UNL     1      36.595  24.001  21.314  0.00  0.00    -0.274 OA
ATOM     25  H   UNL     1      35.326  21.927  17.403  0.00  0.00    +0.151 HD
BRANCH  15  27
ATOM     26  C   UNL     1      37.618  27.404  21.569  0.00  0.00    +0.024 C 
ATOM     27  C   UNL     1      36.294  26.756  21.191  0.00  0.00    +0.104 C 
ENDBRANCH  15  27
ENDBRANCH   1  21
TORSDOF 2
ENDMDL
MODEL 9
REMARK VINA RESULT:      -5.9      4.741      8.471
REMARK  Name = ZINC000329563636
REMARK  3 active torsions:
REMARK  status: ('A' for Active; 'I' for Inactive)
REMARK    1  A    between atoms: C_1  and  C_2
REMARK    2  A    between atoms: C_2  and  N_3
REMARK    3  A    between atoms: N_9  and  C_10
REMARK                            x       y       z     vdW  Elec       q    Type
REMARK                         _______ _______ _______ _____ _____    ______ ____
ROOT
ATOM      1  C   UNL     1      34.035  22.845  10.353  0.00  0.00    +0.112 C 
ATOM      2  C   UNL     1      34.787  24.047  10.937  0.00  0.00    +0.075 C 
ATOM      3  C   UNL     1      35.678  24.799   9.938  0.00  0.00    +0.113 C 
ATOM      4  C   UNL     1      34.940  25.859   9.079  0.00  0.00    +0.048 C 
ATOM      5  C   UNL     1      35.454  27.218   9.541  0.00  0.00    +0.004 C 
ATOM      6  C   UNL     1      36.872  26.935   9.999  0.00  0.00    +0.004 C 
ATOM      7  C   UNL     1      36.731  25.613  10.735  0.00  0.00    +0.048 C 
ATOM      8  O   UNL     1      36.405  23.897   9.080  0.00  0.00    -0.485 OA
ATOM      9  C   UNL     1      35.588  23.044   8.386  0.00  0.00    +0.126 A 
ATOM     10  C   UNL     1      35.972  22.701   7.091  0.00  0.00    +0.046 A 
ATOM     11  C   UNL     1      35.160  21.868   6.319  0.00  0.00    +0.004 A 
ATOM     12  C   UNL     1      33.977  21.362   6.852  0.00  0.00    +0.001 A 
ATOM     13  C   UNL     1      33.612  21.682   8.160  0.00  0.00    +0.009 A 
ATOM     14  C   UNL     1      34.418  22.529   8.938  0.00  0.00    +0.015 A 
ENDROOT
BRANCH   1  21
ATOM     15  N   UNL     1      33.520  17.729  14.023  0.00  0.00    -0.299 N 
ATOM     16  C   UNL     1      32.644  18.849  14.366  0.00  0.00    +0.127 C 
ATOM     17  C   UNL     1      33.410  20.166  14.416  0.00  0.00    +0.129 C 
ATOM     18  N   UNL     1      34.029  20.398  13.120  0.00  0.00    -0.275 N 
ATOM     19  C   UNL     1      33.676  21.520  12.404  0.00  0.00    +0.303 C 
ATOM     20  O   UNL     1      32.853  22.335  12.818  0.00  0.00    -0.253 OA
ATOM     21  N   UNL     1      34.270  21.664  11.186  0.00  0.00    -0.292 N 
ATOM     22  C   UNL     1      34.931  19.328  12.681  0.00  0.00    +0.205 C 
ATOM     23  C   UNL     1      34.592  17.896  13.147  0.00  0.00    +0.233 C 
ATOM     24  O   UNL     1      35.285  16.948  12.770  0.00  0.00    -0.274 OA
ATOM     25  H   UNL     1      35.159  21.213  11.035  0.00  0.00    +0.151 HD
BRANCH  15  27
ATOM     26  C   UNL     1      32.092  15.845  13.278  0.00  0.00    +0.024 C 
ATOM     27  C   UNL     1      33.060  16.378  14.324  0.00  0.00    +0.104 C 
ENDBRANCH  15  27
ENDBRANCH   1  21
TORSDOF 2
ENDMDL
