MODEL 1
REMARK VINA RESULT:      -6.6      0.000      0.000
REMARK  Name = ZINC000435351830
REMARK  5 active torsions:
REMARK  status: ('A' for Active; 'I' for Inactive)
REMARK    1  A    between atoms: C_2  and  C_3
REMARK    2  A    between atoms: C_7  and  C_8
REMARK    3  A    between atoms: C_8  and  C_9
REMARK    4  A    between atoms: N_11  and  C_12
REMARK    5  A    between atoms: C_12  and  C_13
REMARK                            x       y       z     vdW  Elec       q    Type
REMARK                         _______ _______ _______ _____ _____    ______ ____
ROOT
ATOM      1  C   UNL     1      31.023  16.832  13.760  0.00  0.00    +0.224 C 
ATOM      2  O   UNL     1      30.492  16.152  12.890  0.00  0.00    -0.275 OA
ATOM      3  N   UNL     1      30.374  17.331  14.859  0.00  0.00    -0.309 N 
ATOM      4  H   UNL     1      30.888  17.855  15.552  0.00  0.00    +0.149 HD
ENDROOT
BRANCH   1   5
ATOM      5  C   UNL     1      32.472  17.232  13.645  0.00  0.00    +0.072 C 
ATOM      6  C   UNL     1      33.387  16.999  14.842  0.00  0.00    +0.022 C 
ATOM      7  C   UNL     1      33.507  16.101  13.655  0.00  0.00    +0.022 C 
BRANCH   5  12
ATOM      8  C   UNL     1      32.845  20.746  12.152  0.00  0.00    +0.052 A 
ATOM      9  C   UNL     1      33.146  20.473  10.817  0.00  0.00    +0.019 A 
ATOM     10  C   UNL     1      33.289  19.151  10.396  0.00  0.00    +0.002 A 
ATOM     11  C   UNL     1      33.106  18.101  11.300  0.00  0.00    +0.005 A 
ATOM     12  C   UNL     1      32.771  18.346  12.643  0.00  0.00    -0.031 A 
ATOM     13  C   UNL     1      32.677  19.690  13.052  0.00  0.00    +0.023 A 
BRANCH   8  15
ATOM     14  N   UNL     1      32.530  23.195  12.946  0.00  0.00    -0.191 NA
ATOM     15  C   UNL     1      32.674  22.095  12.597  0.00  0.00    +0.099 C 
ENDBRANCH   8  15
ENDBRANCH   5  12
ENDBRANCH   1   5
BRANCH   3  16
ATOM     16  C   UNL     1      28.948  17.165  15.038  0.00  0.00    +0.159 C 
BRANCH  16  17
ATOM     17  C   UNL     1      28.250  18.433  15.478  0.00  0.00    +0.058 A 
ATOM     18  C   UNL     1      27.098  18.365  16.266  0.00  0.00    +0.028 A 
ATOM     19  C   UNL     1      26.458  19.546  16.638  0.00  0.00    +0.042 A 
ATOM     20  C   UNL     1      26.990  20.752  16.217  0.00  0.00    +0.141 A 
ATOM     21  F   UNL     1      26.398  21.907  16.549  0.00  0.00    -0.204 F 
ATOM     22  C   UNL     1      28.140  20.745  15.449  0.00  0.00    +0.149 A 
ATOM     23  N   UNL     1      28.788  19.615  15.073  0.00  0.00    -0.255 NA
ENDBRANCH  16  17
ENDBRANCH   3  16
TORSDOF 5
ENDMDL
MODEL 2
REMARK VINA RESULT:      -6.5      1.910      3.140
REMARK  Name = ZINC000435351830
REMARK  5 active torsions:
REMARK  status: ('A' for Active; 'I' for Inactive)
REMARK    1  A    between atoms: C_2  and  C_3
REMARK    2  A    between atoms: C_7  and  C_8
REMARK    3  A    between atoms: C_8  and  C_9
REMARK    4  A    between atoms: N_11  and  C_12
REMARK    5  A    between atoms: C_12  and  C_13
REMARK                            x       y       z     vdW  Elec       q    Type
REMARK                         _______ _______ _______ _____ _____    ______ ____
ROOT
ATOM      1  C   UNL     1      30.709  16.645  13.638  0.00  0.00    +0.224 C 
ATOM      2  O   UNL     1      30.080  15.999  12.808  0.00  0.00    -0.275 OA
ATOM      3  N   UNL     1      30.167  17.181  14.777  0.00  0.00    -0.309 N 
ATOM      4  H   UNL     1      30.758  17.672  15.432  0.00  0.00    +0.149 HD
ENDROOT
BRANCH   1   5
ATOM      5  C   UNL     1      32.168  16.957  13.425  0.00  0.00    +0.072 C 
ATOM      6  C   UNL     1      33.067  15.871  12.846  0.00  0.00    +0.022 C 
ATOM      7  C   UNL     1      32.661  17.013  11.974  0.00  0.00    +0.022 C 
BRANCH   5  12
ATOM      8  C   UNL     1      34.258  18.658  16.156  0.00  0.00    +0.052 A 
ATOM      9  C   UNL     1      33.763  19.962  16.142  0.00  0.00    +0.019 A 
ATOM     10  C   UNL     1      32.789  20.324  15.211  0.00  0.00    +0.002 A 
ATOM     11  C   UNL     1      32.290  19.377  14.311  0.00  0.00    +0.005 A 
ATOM     12  C   UNL     1      32.747  18.048  14.325  0.00  0.00    -0.031 A 
ATOM     13  C   UNL     1      33.762  17.721  15.245  0.00  0.00    +0.023 A 
BRANCH   8  15
ATOM     14  N   UNL     1      36.038  17.956  17.906  0.00  0.00    -0.191 NA
ATOM     15  C   UNL     1      35.241  18.263  17.118  0.00  0.00    +0.099 C 
ENDBRANCH   8  15
ENDBRANCH   5  12
ENDBRANCH   1   5
BRANCH   3  16
ATOM     16  C   UNL     1      28.748  17.101  15.052  0.00  0.00    +0.159 C 
BRANCH  16  17
ATOM     17  C   UNL     1      28.151  18.418  15.493  0.00  0.00    +0.058 A 
ATOM     18  C   UNL     1      27.025  18.438  16.320  0.00  0.00    +0.028 A 
ATOM     19  C   UNL     1      26.477  19.665  16.692  0.00  0.00    +0.042 A 
ATOM     20  C   UNL     1      27.072  20.827  16.234  0.00  0.00    +0.141 A 
ATOM     21  F   UNL     1      26.569  22.023  16.566  0.00  0.00    -0.204 F 
ATOM     22  C   UNL     1      28.192  20.732  15.428  0.00  0.00    +0.149 A 
ATOM     23  N   UNL     1      28.751  19.556  15.051  0.00  0.00    -0.255 NA
ENDBRANCH  16  17
ENDBRANCH   3  16
TORSDOF 5
ENDMDL
MODEL 3
REMARK VINA RESULT:      -6.5      2.538      5.682
REMARK  Name = ZINC000435351830
REMARK  5 active torsions:
REMARK  status: ('A' for Active; 'I' for Inactive)
REMARK    1  A    between atoms: C_2  and  C_3
REMARK    2  A    between atoms: C_7  and  C_8
REMARK    3  A    between atoms: C_8  and  C_9
REMARK    4  A    between atoms: N_11  and  C_12
REMARK    5  A    between atoms: C_12  and  C_13
REMARK                            x       y       z     vdW  Elec       q    Type
REMARK                         _______ _______ _______ _____ _____    ______ ____
ROOT
ATOM      1  C   UNL     1      32.642  19.568  14.143  0.00  0.00    +0.224 C 
ATOM      2  O   UNL     1      32.951  19.875  15.289  0.00  0.00    -0.275 OA
ATOM      3  N   UNL     1      32.907  20.333  13.037  0.00  0.00    -0.309 N 
ATOM      4  H   UNL     1      32.652  19.996  12.119  0.00  0.00    +0.149 HD
ENDROOT
BRANCH   1   5
ATOM      5  C   UNL     1      31.864  18.307  13.868  0.00  0.00    +0.072 C 
ATOM      6  C   UNL     1      32.273  17.445  12.679  0.00  0.00    +0.022 C 
ATOM      7  C   UNL     1      32.607  16.978  14.057  0.00  0.00    +0.022 C 
BRANCH   5  12
ATOM      8  C   UNL     1      28.534  19.542  15.318  0.00  0.00    +0.052 A 
ATOM      9  C   UNL     1      27.821  18.355  15.482  0.00  0.00    +0.019 A 
ATOM     10  C   UNL     1      28.384  17.146  15.073  0.00  0.00    +0.002 A 
ATOM     11  C   UNL     1      29.670  17.119  14.524  0.00  0.00    +0.005 A 
ATOM     12  C   UNL     1      30.423  18.297  14.377  0.00  0.00    -0.031 A 
ATOM     13  C   UNL     1      29.814  19.507  14.757  0.00  0.00    +0.023 A 
BRANCH   8  15
ATOM     14  N   UNL     1      27.546  21.805  16.109  0.00  0.00    -0.191 NA
ATOM     15  C   UNL     1      27.981  20.789  15.752  0.00  0.00    +0.099 C 
ENDBRANCH   8  15
ENDBRANCH   5  12
ENDBRANCH   1   5
BRANCH   3  16
ATOM     16  C   UNL     1      33.511  21.643  13.147  0.00  0.00    +0.159 C 
BRANCH  16  17
ATOM     17  C   UNL     1      32.578  22.765  12.752  0.00  0.00    +0.058 A 
ATOM     18  C   UNL     1      32.899  23.602  11.680  0.00  0.00    +0.028 A 
ATOM     19  C   UNL     1      32.036  24.647  11.351  0.00  0.00    +0.042 A 
ATOM     20  C   UNL     1      30.882  24.816  12.097  0.00  0.00    +0.141 A 
ATOM     21  F   UNL     1      30.033  25.813  11.814  0.00  0.00    -0.204 F 
ATOM     22  C   UNL     1      30.622  23.942  13.137  0.00  0.00    +0.149 A 
ATOM     23  N   UNL     1      31.439  22.916  13.480  0.00  0.00    -0.255 NA
ENDBRANCH  16  17
ENDBRANCH   3  16
TORSDOF 5
ENDMDL
MODEL 4
REMARK VINA RESULT:      -6.5      4.316      6.664
REMARK  Name = ZINC000435351830
REMARK  5 active torsions:
REMARK  status: ('A' for Active; 'I' for Inactive)
REMARK    1  A    between atoms: C_2  and  C_3
REMARK    2  A    between atoms: C_7  and  C_8
REMARK    3  A    between atoms: C_8  and  C_9
REMARK    4  A    between atoms: N_11  and  C_12
REMARK    5  A    between atoms: C_12  and  C_13
REMARK                            x       y       z     vdW  Elec       q    Type
REMARK                         _______ _______ _______ _____ _____    ______ ____
ROOT
ATOM      1  C   UNL     1      31.896  22.157  15.703  0.00  0.00    +0.224 C 
ATOM      2  O   UNL     1      32.710  21.273  15.947  0.00  0.00    -0.275 OA
ATOM      3  N   UNL     1      31.850  23.367  16.345  0.00  0.00    -0.309 N 
ATOM      4  H   UNL     1      31.171  24.060  16.063  0.00  0.00    +0.149 HD
ENDROOT
BRANCH   1   5
ATOM      5  C   UNL     1      30.809  21.941  14.681  0.00  0.00    +0.072 C 
ATOM      6  C   UNL     1      30.631  22.980  13.579  0.00  0.00    +0.022 C 
ATOM      7  C   UNL     1      31.257  21.667  13.240  0.00  0.00    +0.022 C 
BRANCH   5  12
ATOM      8  C   UNL     1      28.501  18.912  15.144  0.00  0.00    +0.052 A 
ATOM      9  C   UNL     1      27.412  19.467  15.816  0.00  0.00    +0.019 A 
ATOM     10  C   UNL     1      27.434  20.813  16.179  0.00  0.00    +0.002 A 
ATOM     11  C   UNL     1      28.533  21.613  15.849  0.00  0.00    +0.005 A 
ATOM     12  C   UNL     1      29.630  21.088  15.144  0.00  0.00    -0.031 A 
ATOM     13  C   UNL     1      29.600  19.716  14.829  0.00  0.00    +0.023 A 
BRANCH   8  15
ATOM     14  N   UNL     1      28.487  16.424  14.411  0.00  0.00    -0.191 NA
ATOM     15  C   UNL     1      28.487  17.538  14.744  0.00  0.00    +0.099 C 
ENDBRANCH   8  15
ENDBRANCH   5  12
ENDBRANCH   1   5
BRANCH   3  16
ATOM     16  C   UNL     1      32.727  23.671  17.455  0.00  0.00    +0.159 C 
BRANCH  16  17
ATOM     17  C   UNL     1      32.223  23.136  18.776  0.00  0.00    +0.058 A 
ATOM     18  C   UNL     1      30.862  23.195  19.087  0.00  0.00    +0.028 A 
ATOM     19  C   UNL     1      30.426  22.719  20.323  0.00  0.00    +0.042 A 
ATOM     20  C   UNL     1      31.358  22.197  21.202  0.00  0.00    +0.141 A 
ATOM     21  F   UNL     1      30.976  21.736  22.400  0.00  0.00    -0.204 F 
ATOM     22  C   UNL     1      32.688  22.159  20.823  0.00  0.00    +0.149 A 
ATOM     23  N   UNL     1      33.144  22.610  19.629  0.00  0.00    -0.255 NA
ENDBRANCH  16  17
ENDBRANCH   3  16
TORSDOF 5
ENDMDL
MODEL 5
REMARK VINA RESULT:      -6.4      2.189      3.629
REMARK  Name = ZINC000435351830
REMARK  5 active torsions:
REMARK  status: ('A' for Active; 'I' for Inactive)
REMARK    1  A    between atoms: C_2  and  C_3
REMARK    2  A    between atoms: C_7  and  C_8
REMARK    3  A    between atoms: C_8  and  C_9
REMARK    4  A    between atoms: N_11  and  C_12
REMARK    5  A    between atoms: C_12  and  C_13
REMARK                            x       y       z     vdW  Elec       q    Type
REMARK                         _______ _______ _______ _____ _____    ______ ____
ROOT
ATOM      1  C   UNL     1      30.855  16.783  13.690  0.00  0.00    +0.224 C 
ATOM      2  O   UNL     1      30.289  16.081  12.859  0.00  0.00    -0.275 OA
ATOM      3  N   UNL     1      30.245  17.334  14.785  0.00  0.00    -0.309 N 
ATOM      4  H   UNL     1      30.788  17.874  15.445  0.00  0.00    +0.149 HD
ENDROOT
BRANCH   1   5
ATOM      5  C   UNL     1      32.308  17.150  13.522  0.00  0.00    +0.072 C 
ATOM      6  C   UNL     1      32.863  18.310  14.341  0.00  0.00    +0.022 C 
ATOM      7  C   UNL     1      33.227  16.914  14.727  0.00  0.00    +0.022 C 
BRANCH   5  12
ATOM      8  C   UNL     1      33.884  15.049  10.726  0.00  0.00    +0.052 A 
ATOM      9  C   UNL     1      34.233  16.018   9.785  0.00  0.00    +0.019 A 
ATOM     10  C   UNL     1      33.912  17.356  10.016  0.00  0.00    +0.002 A 
ATOM     11  C   UNL     1      33.265  17.730  11.198  0.00  0.00    +0.005 A 
ATOM     12  C   UNL     1      32.931  16.779  12.178  0.00  0.00    -0.031 A 
ATOM     13  C   UNL     1      33.227  15.431  11.899  0.00  0.00    +0.023 A 
BRANCH   8  15
ATOM     14  N   UNL     1      34.513  12.561  10.355  0.00  0.00    -0.191 NA
ATOM     15  C   UNL     1      34.225  13.675  10.515  0.00  0.00    +0.099 C 
ENDBRANCH   8  15
ENDBRANCH   5  12
ENDBRANCH   1   5
BRANCH   3  16
ATOM     16  C   UNL     1      28.821  17.203  15.007  0.00  0.00    +0.159 C 
BRANCH  16  17
ATOM     17  C   UNL     1      28.169  18.486  15.473  0.00  0.00    +0.058 A 
ATOM     18  C   UNL     1      27.009  18.443  16.251  0.00  0.00    +0.028 A 
ATOM     19  C   UNL     1      26.412  19.639  16.647  0.00  0.00    +0.042 A 
ATOM     20  C   UNL     1      26.994  20.833  16.260  0.00  0.00    +0.141 A 
ATOM     21  F   UNL     1      26.444  22.001  16.616  0.00  0.00    -0.204 F 
ATOM     22  C   UNL     1      28.149  20.800  15.500  0.00  0.00    +0.149 A 
ATOM     23  N   UNL     1      28.755  19.656  15.101  0.00  0.00    -0.255 NA
ENDBRANCH  16  17
ENDBRANCH   3  16
TORSDOF 5
ENDMDL
MODEL 6
REMARK VINA RESULT:      -6.4      1.607      2.641
REMARK  Name = ZINC000435351830
REMARK  5 active torsions:
REMARK  status: ('A' for Active; 'I' for Inactive)
REMARK    1  A    between atoms: C_2  and  C_3
REMARK    2  A    between atoms: C_7  and  C_8
REMARK    3  A    between atoms: C_8  and  C_9
REMARK    4  A    between atoms: N_11  and  C_12
REMARK    5  A    between atoms: C_12  and  C_13
REMARK                            x       y       z     vdW  Elec       q    Type
REMARK                         _______ _______ _______ _____ _____    ______ ____
ROOT
ATOM      1  C   UNL     1      30.644  16.722  13.769  0.00  0.00    +0.224 C 
ATOM      2  O   UNL     1      30.040  16.126  12.885  0.00  0.00    -0.275 OA
ATOM      3  N   UNL     1      30.060  17.232  14.899  0.00  0.00    -0.309 N 
ATOM      4  H   UNL     1      30.631  17.682  15.601  0.00  0.00    +0.149 HD
ENDROOT
BRANCH   1   5
ATOM      5  C   UNL     1      32.120  16.999  13.640  0.00  0.00    +0.072 C 
ATOM      6  C   UNL     1      33.003  15.942  12.987  0.00  0.00    +0.022 C 
ATOM      7  C   UNL     1      32.671  17.180  12.220  0.00  0.00    +0.022 C 
BRANCH   5  12
ATOM      8  C   UNL     1      32.987  20.287  15.416  0.00  0.00    +0.052 A 
ATOM      9  C   UNL     1      33.861  19.864  16.418  0.00  0.00    +0.019 A 
ATOM     10  C   UNL     1      34.136  18.505  16.569  0.00  0.00    +0.002 A 
ATOM     11  C   UNL     1      33.559  17.570  15.704  0.00  0.00    +0.005 A 
ATOM     12  C   UNL     1      32.701  17.972  14.665  0.00  0.00    -0.031 A 
ATOM     13  C   UNL     1      32.405  19.344  14.564  0.00  0.00    +0.023 A 
BRANCH   8  15
ATOM     14  N   UNL     1      32.491  22.809  15.070  0.00  0.00    -0.191 NA
ATOM     15  C   UNL     1      32.710  21.679  15.233  0.00  0.00    +0.099 C 
ENDBRANCH   8  15
ENDBRANCH   5  12
ENDBRANCH   1   5
BRANCH   3  16
ATOM     16  C   UNL     1      28.628  17.185  15.101  0.00  0.00    +0.159 C 
BRANCH  16  17
ATOM     17  C   UNL     1      28.039  18.515  15.512  0.00  0.00    +0.058 A 
ATOM     18  C   UNL     1      28.648  19.708  15.113  0.00  0.00    +0.028 A 
ATOM     19  C   UNL     1      28.101  20.922  15.526  0.00  0.00    +0.042 A 
ATOM     20  C   UNL     1      26.964  20.905  16.316  0.00  0.00    +0.141 A 
ATOM     21  F   UNL     1      26.415  22.052  16.737  0.00  0.00    -0.204 F 
ATOM     22  C   UNL     1      26.408  19.687  16.662  0.00  0.00    +0.149 A 
ATOM     23  N   UNL     1      26.913  18.491  16.275  0.00  0.00    -0.255 NA
ENDBRANCH  16  17
ENDBRANCH   3  16
TORSDOF 5
ENDMDL
MODEL 7
REMARK VINA RESULT:      -6.4      4.745      6.560
REMARK  Name = ZINC000435351830
REMARK  5 active torsions:
REMARK  status: ('A' for Active; 'I' for Inactive)
REMARK    1  A    between atoms: C_2  and  C_3
REMARK    2  A    between atoms: C_7  and  C_8
REMARK    3  A    between atoms: C_8  and  C_9
REMARK    4  A    between atoms: N_11  and  C_12
REMARK    5  A    between atoms: C_12  and  C_13
REMARK                            x       y       z     vdW  Elec       q    Type
REMARK                         _______ _______ _______ _____ _____    ______ ____
ROOT
ATOM      1  C   UNL     1      31.107  23.319  17.593  0.00  0.00    +0.224 C 
ATOM      2  O   UNL     1      30.439  23.623  18.575  0.00  0.00    -0.275 OA
ATOM      3  N   UNL     1      30.583  22.962  16.379  0.00  0.00    -0.309 N 
ATOM      4  H   UNL     1      31.199  22.758  15.605  0.00  0.00    +0.149 HD
ENDROOT
BRANCH   1   5
ATOM      5  C   UNL     1      32.611  23.256  17.676  0.00  0.00    +0.072 C 
ATOM      6  C   UNL     1      33.428  23.899  16.561  0.00  0.00    +0.022 C 
ATOM      7  C   UNL     1      33.350  24.584  17.886  0.00  0.00    +0.022 C 
BRANCH   5  12
ATOM      8  C   UNL     1      34.298  19.909  18.492  0.00  0.00    +0.052 A 
ATOM      9  C   UNL     1      34.118  19.812  19.872  0.00  0.00    +0.019 A 
ATOM     10  C   UNL     1      33.500  20.853  20.565  0.00  0.00    +0.002 A 
ATOM     11  C   UNL     1      33.039  21.980  19.877  0.00  0.00    +0.005 A 
ATOM     12  C   UNL     1      33.179  22.089  18.482  0.00  0.00    -0.031 A 
ATOM     13  C   UNL     1      33.846  21.045  17.814  0.00  0.00    +0.023 A 
BRANCH   8  15
ATOM     14  N   UNL     1      35.412  17.968  17.181  0.00  0.00    -0.191 NA
ATOM     15  C   UNL     1      34.911  18.841  17.762  0.00  0.00    +0.099 C 
ENDBRANCH   8  15
ENDBRANCH   5  12
ENDBRANCH   1   5
BRANCH   3  16
ATOM     16  C   UNL     1      29.156  22.824  16.179  0.00  0.00    +0.159 C 
BRANCH  16  17
ATOM     17  C   UNL     1      28.730  21.406  15.875  0.00  0.00    +0.058 A 
ATOM     18  C   UNL     1      27.600  20.863  16.491  0.00  0.00    +0.028 A 
ATOM     19  C   UNL     1      27.242  19.545  16.215  0.00  0.00    +0.042 A 
ATOM     20  C   UNL     1      28.018  18.815  15.332  0.00  0.00    +0.141 A 
ATOM     21  F   UNL     1      27.708  17.544  15.048  0.00  0.00    -0.204 F 
ATOM     22  C   UNL     1      29.117  19.420  14.749  0.00  0.00    +0.149 A 
ATOM     23  N   UNL     1      29.490  20.700  14.994  0.00  0.00    -0.255 NA
ENDBRANCH  16  17
ENDBRANCH   3  16
TORSDOF 5
ENDMDL
MODEL 8
REMARK VINA RESULT:      -6.3      5.401      7.061
REMARK  Name = ZINC000435351830
REMARK  5 active torsions:
REMARK  status: ('A' for Active; 'I' for Inactive)
REMARK    1  A    between atoms: C_2  and  C_3
REMARK    2  A    between atoms: C_7  and  C_8
REMARK    3  A    between atoms: C_8  and  C_9
REMARK    4  A    between atoms: N_11  and  C_12
REMARK    5  A    between atoms: C_12  and  C_13
REMARK                            x       y       z     vdW  Elec       q    Type
REMARK                         _______ _______ _______ _____ _____    ______ ____
ROOT
ATOM      1  C   UNL     1      30.879  23.370  17.457  0.00  0.00    +0.224 C 
ATOM      2  O   UNL     1      30.098  23.647  18.361  0.00  0.00    -0.275 OA
ATOM      3  N   UNL     1      30.502  22.993  16.194  0.00  0.00    -0.309 N 
ATOM      4  H   UNL     1      31.206  22.814  15.492  0.00  0.00    +0.149 HD
ENDROOT
BRANCH   1   5
ATOM      5  C   UNL     1      32.367  23.367  17.700  0.00  0.00    +0.072 C 
ATOM      6  C   UNL     1      33.284  23.887  16.599  0.00  0.00    +0.022 C 
ATOM      7  C   UNL     1      33.055  24.734  17.808  0.00  0.00    +0.022 C 
BRANCH   5  12
ATOM      8  C   UNL     1      33.020  21.594  21.039  0.00  0.00    +0.052 A 
ATOM      9  C   UNL     1      33.881  20.562  20.665  0.00  0.00    +0.019 A 
ATOM     10  C   UNL     1      34.216  20.391  19.322  0.00  0.00    +0.002 A 
ATOM     11  C   UNL     1      33.712  21.265  18.355  0.00  0.00    +0.005 A 
ATOM     12  C   UNL     1      32.868  22.333  18.707  0.00  0.00    -0.031 A 
ATOM     13  C   UNL     1      32.511  22.456  20.063  0.00  0.00    +0.023 A 
BRANCH   8  15
ATOM     14  N   UNL     1      32.407  21.978  23.529  0.00  0.00    -0.191 NA
ATOM     15  C   UNL     1      32.683  21.798  22.415  0.00  0.00    +0.099 C 
ENDBRANCH   8  15
ENDBRANCH   5  12
ENDBRANCH   1   5
BRANCH   3  16
ATOM     16  C   UNL     1      29.112  22.798  15.844  0.00  0.00    +0.159 C 
BRANCH  16  17
ATOM     17  C   UNL     1      28.741  21.344  15.657  0.00  0.00    +0.058 A 
ATOM     18  C   UNL     1      27.614  20.818  16.293  0.00  0.00    +0.028 A 
ATOM     19  C   UNL     1      27.308  19.468  16.126  0.00  0.00    +0.042 A 
ATOM     20  C   UNL     1      28.130  18.693  15.327  0.00  0.00    +0.141 A 
ATOM     21  F   UNL     1      27.870  17.391  15.150  0.00  0.00    -0.204 F 
ATOM     22  C   UNL     1      29.222  19.284  14.718  0.00  0.00    +0.149 A 
ATOM     23  N   UNL     1      29.546  20.592  14.858  0.00  0.00    -0.255 NA
ENDBRANCH  16  17
ENDBRANCH   3  16
TORSDOF 5
ENDMDL
MODEL 9
REMARK VINA RESULT:      -6.3      4.115      6.122
REMARK  Name = ZINC000435351830
REMARK  5 active torsions:
REMARK  status: ('A' for Active; 'I' for Inactive)
REMARK    1  A    between atoms: C_2  and  C_3
REMARK    2  A    between atoms: C_7  and  C_8
REMARK    3  A    between atoms: C_8  and  C_9
REMARK    4  A    between atoms: N_11  and  C_12
REMARK    5  A    between atoms: C_12  and  C_13
REMARK                            x       y       z     vdW  Elec       q    Type
REMARK                         _______ _______ _______ _____ _____    ______ ____
ROOT
ATOM      1  C   UNL     1      32.140  21.856  15.538  0.00  0.00    +0.224 C 
ATOM      2  O   UNL     1      32.933  21.060  16.029  0.00  0.00    -0.275 OA
ATOM      3  N   UNL     1      31.951  23.138  15.985  0.00  0.00    -0.309 N 
ATOM      4  H   UNL     1      31.303  23.746  15.506  0.00  0.00    +0.149 HD
ENDROOT
BRANCH   1   5
ATOM      5  C   UNL     1      31.240  21.443  14.402  0.00  0.00    +0.072 C 
ATOM      6  C   UNL     1      30.651  22.529  13.509  0.00  0.00    +0.022 C 
ATOM      7  C   UNL     1      31.762  21.683  12.980  0.00  0.00    +0.022 C 
BRANCH   5  12
ATOM      8  C   UNL     1      28.519  18.908  15.345  0.00  0.00    +0.052 A 
ATOM      9  C   UNL     1      29.154  17.688  15.112  0.00  0.00    +0.019 A 
ATOM     10  C   UNL     1      30.448  17.668  14.593  0.00  0.00    +0.002 A 
ATOM     11  C   UNL     1      31.119  18.867  14.330  0.00  0.00    +0.005 A 
ATOM     12  C   UNL     1      30.515  20.110  14.586  0.00  0.00    -0.031 A 
ATOM     13  C   UNL     1      29.193  20.101  15.068  0.00  0.00    +0.023 A 
BRANCH   8  15
ATOM     14  N   UNL     1      26.131  18.994  16.352  0.00  0.00    -0.191 NA
ATOM     15  C   UNL     1      27.200  18.948  15.898  0.00  0.00    +0.099 C 
ENDBRANCH   8  15
ENDBRANCH   5  12
ENDBRANCH   1   5
BRANCH   3  16
ATOM     16  C   UNL     1      32.627  23.638  17.163  0.00  0.00    +0.159 C 
BRANCH  16  17
ATOM     17  C   UNL     1      32.029  23.129  18.455  0.00  0.00    +0.058 A 
ATOM     18  C   UNL     1      30.670  23.311  18.722  0.00  0.00    +0.028 A 
ATOM     19  C   UNL     1      30.148  22.856  19.932  0.00  0.00    +0.042 A 
ATOM     20  C   UNL     1      30.996  22.232  20.830  0.00  0.00    +0.141 A 
ATOM     21  F   UNL     1      30.530  21.788  22.004  0.00  0.00    -0.204 F 
ATOM     22  C   UNL     1      32.328  22.075  20.494  0.00  0.00    +0.149 A 
ATOM     23  N   UNL     1      32.866  22.503  19.326  0.00  0.00    -0.255 NA
ENDBRANCH  16  17
ENDBRANCH   3  16
TORSDOF 5
ENDMDL
