MODEL 1
REMARK VINA RESULT:      -6.8      0.000      0.000
REMARK  Name = ZINC000329563636
REMARK  3 active torsions:
REMARK  status: ('A' for Active; 'I' for Inactive)
REMARK    1  A    between atoms: C_1  and  C_2
REMARK    2  A    between atoms: C_2  and  N_3
REMARK    3  A    between atoms: N_9  and  C_10
REMARK                            x       y       z     vdW  Elec       q    Type
REMARK                         _______ _______ _______ _____ _____    ______ ____
ROOT
ATOM      1  C   UNL     1      31.584  24.111  13.468  0.00  0.00    +0.112 C 
ATOM      2  C   UNL     1      30.618  23.064  14.034  0.00  0.00    +0.075 C 
ATOM      3  C   UNL     1      30.734  22.828  15.547  0.00  0.00    +0.113 C 
ATOM      4  C   UNL     1      29.938  23.830  16.424  0.00  0.00    +0.048 C 
ATOM      5  C   UNL     1      28.805  23.034  17.061  0.00  0.00    +0.004 C 
ATOM      6  C   UNL     1      29.369  21.633  17.190  0.00  0.00    +0.004 C 
ATOM      7  C   UNL     1      30.111  21.446  15.877  0.00  0.00    +0.048 C 
ATOM      8  O   UNL     1      32.108  22.785  15.980  0.00  0.00    -0.485 OA
ATOM      9  C   UNL     1      32.807  23.918  15.657  0.00  0.00    +0.126 A 
ATOM     10  C   UNL     1      33.772  24.356  16.562  0.00  0.00    +0.046 A 
ATOM     11  C   UNL     1      34.488  25.527  16.308  0.00  0.00    +0.004 A 
ATOM     12  C   UNL     1      34.254  26.245  15.137  0.00  0.00    +0.001 A 
ATOM     13  C   UNL     1      33.310  25.785  14.218  0.00  0.00    +0.009 A 
ATOM     14  C   UNL     1      32.576  24.615  14.473  0.00  0.00    +0.015 A 
ENDROOT
BRANCH   1  21
ATOM     15  N   UNL     1      35.351  23.074   8.504  0.00  0.00    -0.299 N 
ATOM     16  C   UNL     1      34.662  24.364   8.522  0.00  0.00    +0.127 C 
ATOM     17  C   UNL     1      33.177  24.203   8.828  0.00  0.00    +0.129 C 
ATOM     18  N   UNL     1      33.034  23.545  10.119  0.00  0.00    -0.275 N 
ATOM     19  C   UNL     1      32.383  24.208  11.135  0.00  0.00    +0.303 C 
ATOM     20  O   UNL     1      31.919  25.338  10.996  0.00  0.00    -0.253 OA
ATOM     21  N   UNL     1      32.308  23.549  12.326  0.00  0.00    -0.292 N 
ATOM     22  C   UNL     1      33.693  22.238  10.207  0.00  0.00    +0.205 C 
ATOM     23  C   UNL     1      34.969  22.043   9.360  0.00  0.00    +0.233 C 
ATOM     24  O   UNL     1      35.595  20.982   9.431  0.00  0.00    -0.274 OA
ATOM     25  H   UNL     1      32.362  22.542  12.316  0.00  0.00    +0.151 HD
BRANCH  15  27
ATOM     26  C   UNL     1      36.543  22.506   6.406  0.00  0.00    +0.024 C 
ATOM     27  C   UNL     1      36.649  22.997   7.842  0.00  0.00    +0.104 C 
ENDBRANCH  15  27
ENDBRANCH   1  21
TORSDOF 2
ENDMDL
MODEL 2
REMARK VINA RESULT:      -6.5      2.809      6.944
REMARK  Name = ZINC000329563636
REMARK  3 active torsions:
REMARK  status: ('A' for Active; 'I' for Inactive)
REMARK    1  A    between atoms: C_1  and  C_2
REMARK    2  A    between atoms: C_2  and  N_3
REMARK    3  A    between atoms: N_9  and  C_10
REMARK                            x       y       z     vdW  Elec       q    Type
REMARK                         _______ _______ _______ _____ _____    ______ ____
ROOT
ATOM      1  C   UNL     1      32.981  25.566  12.893  0.00  0.00    +0.112 C 
ATOM      2  C   UNL     1      33.851  26.647  13.544  0.00  0.00    +0.075 C 
ATOM      3  C   UNL     1      34.929  27.247  12.629  0.00  0.00    +0.113 C 
ATOM      4  C   UNL     1      34.437  28.396  11.710  0.00  0.00    +0.048 C 
ATOM      5  C   UNL     1      35.107  29.667  12.219  0.00  0.00    +0.004 C 
ATOM      6  C   UNL     1      36.420  29.180  12.800  0.00  0.00    +0.004 C 
ATOM      7  C   UNL     1      36.018  27.903  13.518  0.00  0.00    +0.048 C 
ATOM      8  O   UNL     1      35.585  26.237  11.838  0.00  0.00    -0.485 OA
ATOM      9  C   UNL     1      34.713  25.508  11.072  0.00  0.00    +0.126 A 
ATOM     10  C   UNL     1      35.155  25.096   9.816  0.00  0.00    +0.046 A 
ATOM     11  C   UNL     1      34.298  24.386   8.972  0.00  0.00    +0.004 A 
ATOM     12  C   UNL     1      33.010  24.068   9.398  0.00  0.00    +0.001 A 
ATOM     13  C   UNL     1      32.583  24.454  10.669  0.00  0.00    +0.009 A 
ATOM     14  C   UNL     1      33.435  25.179  11.517  0.00  0.00    +0.015 A 
ENDROOT
BRANCH   1  21
ATOM     15  N   UNL     1      31.941  19.894  15.474  0.00  0.00    -0.299 N 
ATOM     16  C   UNL     1      30.762  20.578  14.943  0.00  0.00    +0.127 C 
ATOM     17  C   UNL     1      30.696  22.028  15.410  0.00  0.00    +0.129 C 
ATOM     18  N   UNL     1      31.905  22.714  14.979  0.00  0.00    -0.275 N 
ATOM     19  C   UNL     1      31.792  23.791  14.128  0.00  0.00    +0.303 C 
ATOM     20  O   UNL     1      30.706  24.195  13.715  0.00  0.00    -0.253 OA
ATOM     21  N   UNL     1      32.963  24.372  13.741  0.00  0.00    -0.292 N 
ATOM     22  C   UNL     1      33.149  22.106  15.460  0.00  0.00    +0.205 C 
ATOM     23  C   UNL     1      33.142  20.575  15.664  0.00  0.00    +0.233 C 
ATOM     24  O   UNL     1      34.174  20.000  16.019  0.00  0.00    -0.274 OA
ATOM     25  H   UNL     1      33.765  24.270  14.342  0.00  0.00    +0.151 HD
BRANCH  15  27
ATOM     26  C   UNL     1      31.892  17.855  14.064  0.00  0.00    +0.024 C 
ATOM     27  C   UNL     1      31.950  18.436  15.470  0.00  0.00    +0.104 C 
ENDBRANCH  15  27
ENDBRANCH   1  21
TORSDOF 2
ENDMDL
MODEL 3
REMARK VINA RESULT:      -6.4      2.387      4.764
REMARK  Name = ZINC000329563636
REMARK  3 active torsions:
REMARK  status: ('A' for Active; 'I' for Inactive)
REMARK    1  A    between atoms: C_1  and  C_2
REMARK    2  A    between atoms: C_2  and  N_3
REMARK    3  A    between atoms: N_9  and  C_10
REMARK                            x       y       z     vdW  Elec       q    Type
REMARK                         _______ _______ _______ _____ _____    ______ ____
ROOT
ATOM      1  C   UNL     1      32.646  23.317  16.761  0.00  0.00    +0.112 C 
ATOM      2  C   UNL     1      33.289  24.254  17.790  0.00  0.00    +0.075 C 
ATOM      3  C   UNL     1      32.420  24.558  19.019  0.00  0.00    +0.113 C 
ATOM      4  C   UNL     1      32.495  23.497  20.148  0.00  0.00    +0.048 C 
ATOM      5  C   UNL     1      33.209  24.166  21.317  0.00  0.00    +0.004 C 
ATOM      6  C   UNL     1      32.844  25.631  21.177  0.00  0.00    +0.004 C 
ATOM      7  C   UNL     1      32.942  25.862  19.678  0.00  0.00    +0.048 C 
ATOM      8  O   UNL     1      31.044  24.791  18.659  0.00  0.00    -0.485 OA
ATOM      9  C   UNL     1      30.486  23.744  17.974  0.00  0.00    +0.126 A 
ATOM     10  C   UNL     1      29.141  23.465  18.213  0.00  0.00    +0.046 A 
ATOM     11  C   UNL     1      28.527  22.385  17.576  0.00  0.00    +0.004 A 
ATOM     12  C   UNL     1      29.253  21.601  16.683  0.00  0.00    +0.001 A 
ATOM     13  C   UNL     1      30.590  21.903  16.421  0.00  0.00    +0.009 A 
ATOM     14  C   UNL     1      31.218  22.980  17.068  0.00  0.00    +0.015 A 
ENDROOT
BRANCH   1  21
ATOM     15  N   UNL     1      33.339  24.516  10.597  0.00  0.00    -0.299 N 
ATOM     16  C   UNL     1      34.370  23.672  11.201  0.00  0.00    +0.127 C 
ATOM     17  C   UNL     1      34.892  24.269  12.503  0.00  0.00    +0.129 C 
ATOM     18  N   UNL     1      33.777  24.429  13.425  0.00  0.00    -0.275 N 
ATOM     19  C   UNL     1      33.803  23.753  14.625  0.00  0.00    +0.303 C 
ATOM     20  O   UNL     1      34.732  23.015  14.947  0.00  0.00    -0.253 OA
ATOM     21  N   UNL     1      32.716  23.924  15.430  0.00  0.00    -0.292 N 
ATOM     22  C   UNL     1      32.685  25.262  12.913  0.00  0.00    +0.205 C 
ATOM     23  C   UNL     1      32.449  25.240  11.387  0.00  0.00    +0.233 C 
ATOM     24  O   UNL     1      31.513  25.882  10.903  0.00  0.00    -0.274 OA
ATOM     25  H   UNL     1      32.173  24.766  15.322  0.00  0.00    +0.151 HD
BRANCH  15  27
ATOM     26  C   UNL     1      34.259  23.955   8.364  0.00  0.00    +0.024 C 
ATOM     27  C   UNL     1      33.031  24.319   9.185  0.00  0.00    +0.104 C 
ENDBRANCH  15  27
ENDBRANCH   1  21
TORSDOF 2
ENDMDL
MODEL 4
REMARK VINA RESULT:      -6.3      4.268      5.974
REMARK  Name = ZINC000329563636
REMARK  3 active torsions:
REMARK  status: ('A' for Active; 'I' for Inactive)
REMARK    1  A    between atoms: C_1  and  C_2
REMARK    2  A    between atoms: C_2  and  N_3
REMARK    3  A    between atoms: N_9  and  C_10
REMARK                            x       y       z     vdW  Elec       q    Type
REMARK                         _______ _______ _______ _____ _____    ______ ____
ROOT
ATOM      1  C   UNL     1      33.449  22.503  14.279  0.00  0.00    +0.112 C 
ATOM      2  C   UNL     1      33.280  23.439  13.077  0.00  0.00    +0.075 C 
ATOM      3  C   UNL     1      32.057  24.365  13.145  0.00  0.00    +0.113 C 
ATOM      4  C   UNL     1      32.275  25.672  13.952  0.00  0.00    +0.048 C 
ATOM      5  C   UNL     1      32.248  26.810  12.938  0.00  0.00    +0.004 C 
ATOM      6  C   UNL     1      31.321  26.307  11.848  0.00  0.00    +0.004 C 
ATOM      7  C   UNL     1      31.727  24.849  11.708  0.00  0.00    +0.048 C 
ATOM      8  O   UNL     1      30.889  23.679  13.636  0.00  0.00    -0.485 OA
ATOM      9  C   UNL     1      31.082  23.112  14.869  0.00  0.00    +0.126 A 
ATOM     10  C   UNL     1      29.999  23.106  15.747  0.00  0.00    +0.046 A 
ATOM     11  C   UNL     1      30.145  22.580  17.032  0.00  0.00    +0.004 A 
ATOM     12  C   UNL     1      31.366  22.039  17.428  0.00  0.00    +0.001 A 
ATOM     13  C   UNL     1      32.438  22.017  16.534  0.00  0.00    +0.009 A 
ATOM     14  C   UNL     1      32.302  22.556  15.245  0.00  0.00    +0.015 A 
ENDROOT
BRANCH   1  21
ATOM     15  N   UNL     1      35.191  16.495  13.402  0.00  0.00    -0.299 N 
ATOM     16  C   UNL     1      36.276  17.441  13.659  0.00  0.00    +0.127 C 
ATOM     17  C   UNL     1      36.152  18.688  12.791  0.00  0.00    +0.129 C 
ATOM     18  N   UNL     1      34.868  19.319  13.059  0.00  0.00    -0.275 N 
ATOM     19  C   UNL     1      34.847  20.603  13.557  0.00  0.00    +0.303 C 
ATOM     20  O   UNL     1      35.876  21.238  13.787  0.00  0.00    -0.253 OA
ATOM     21  N   UNL     1      33.615  21.126  13.812  0.00  0.00    -0.292 N 
ATOM     22  C   UNL     1      33.709  18.451  12.831  0.00  0.00    +0.205 C 
ATOM     23  C   UNL     1      33.911  16.940  13.077  0.00  0.00    +0.233 C 
ATOM     24  O   UNL     1      32.960  16.166  12.949  0.00  0.00    -0.274 OA
ATOM     25  H   UNL     1      32.828  20.756  13.303  0.00  0.00    +0.151 HD
BRANCH  15  27
ATOM     26  C   UNL     1      35.438  14.970  15.340  0.00  0.00    +0.024 C 
ATOM     27  C   UNL     1      35.371  15.111  13.827  0.00  0.00    +0.104 C 
ENDBRANCH  15  27
ENDBRANCH   1  21
TORSDOF 2
ENDMDL
MODEL 5
REMARK VINA RESULT:      -6.2      3.847      8.536
REMARK  Name = ZINC000329563636
REMARK  3 active torsions:
REMARK  status: ('A' for Active; 'I' for Inactive)
REMARK    1  A    between atoms: C_1  and  C_2
REMARK    2  A    between atoms: C_2  and  N_3
REMARK    3  A    between atoms: N_9  and  C_10
REMARK                            x       y       z     vdW  Elec       q    Type
REMARK                         _______ _______ _______ _____ _____    ______ ____
ROOT
ATOM      1  C   UNL     1      31.636  24.185  14.807  0.00  0.00    +0.112 C 
ATOM      2  C   UNL     1      31.897  25.364  13.864  0.00  0.00    +0.075 C 
ATOM      3  C   UNL     1      32.839  25.059  12.691  0.00  0.00    +0.113 C 
ATOM      4  C   UNL     1      32.155  24.409  11.459  0.00  0.00    +0.048 C 
ATOM      5  C   UNL     1      32.192  25.452  10.349  0.00  0.00    +0.004 C 
ATOM      6  C   UNL     1      33.446  26.253  10.642  0.00  0.00    +0.004 C 
ATOM      7  C   UNL     1      33.406  26.399  12.155  0.00  0.00    +0.048 C 
ATOM      8  O   UNL     1      33.966  24.259  13.101  0.00  0.00    -0.485 OA
ATOM      9  C   UNL     1      33.597  23.078  13.689  0.00  0.00    +0.126 A 
ATOM     10  C   UNL     1      34.403  21.965  13.451  0.00  0.00    +0.046 A 
ATOM     11  C   UNL     1      34.056  20.724  13.990  0.00  0.00    +0.004 A 
ATOM     12  C   UNL     1      32.918  20.604  14.784  0.00  0.00    +0.001 A 
ATOM     13  C   UNL     1      32.133  21.727  15.046  0.00  0.00    +0.009 A 
ATOM     14  C   UNL     1      32.468  22.976  14.498  0.00  0.00    +0.015 A 
ENDROOT
BRANCH   1  21
ATOM     15  N   UNL     1      32.319  24.503  21.079  0.00  0.00    -0.299 N 
ATOM     16  C   UNL     1      31.125  23.805  20.604  0.00  0.00    +0.127 C 
ATOM     17  C   UNL     1      30.393  24.608  19.535  0.00  0.00    +0.129 C 
ATOM     18  N   UNL     1      31.303  24.850  18.425  0.00  0.00    -0.275 N 
ATOM     19  C   UNL     1      30.980  24.358  17.180  0.00  0.00    +0.303 C 
ATOM     20  O   UNL     1      29.951  23.717  16.970  0.00  0.00    -0.253 OA
ATOM     21  N   UNL     1      31.888  24.594  16.190  0.00  0.00    -0.292 N 
ATOM     22  C   UNL     1      32.537  25.548  18.797  0.00  0.00    +0.205 C 
ATOM     23  C   UNL     1      33.080  25.294  20.220  0.00  0.00    +0.233 C 
ATOM     24  O   UNL     1      34.141  25.814  20.573  0.00  0.00    -0.274 OA
ATOM     25  H   UNL     1      32.503  25.386  16.290  0.00  0.00    +0.151 HD
BRANCH  15  27
ATOM     26  C   UNL     1      31.836  23.757  23.394  0.00  0.00    +0.024 C 
ATOM     27  C   UNL     1      32.896  24.089  22.353  0.00  0.00    +0.104 C 
ENDBRANCH  15  27
ENDBRANCH   1  21
TORSDOF 2
ENDMDL
MODEL 6
REMARK VINA RESULT:      -6.2      2.796      3.828
REMARK  Name = ZINC000329563636
REMARK  3 active torsions:
REMARK  status: ('A' for Active; 'I' for Inactive)
REMARK    1  A    between atoms: C_1  and  C_2
REMARK    2  A    between atoms: C_2  and  N_3
REMARK    3  A    between atoms: N_9  and  C_10
REMARK                            x       y       z     vdW  Elec       q    Type
REMARK                         _______ _______ _______ _____ _____    ______ ____
ROOT
ATOM      1  C   UNL     1      33.454  21.466  13.737  0.00  0.00    +0.112 C 
ATOM      2  C   UNL     1      32.275  22.262  14.308  0.00  0.00    +0.075 C 
ATOM      3  C   UNL     1      31.183  21.411  14.973  0.00  0.00    +0.113 C 
ATOM      4  C   UNL     1      31.462  21.037  16.452  0.00  0.00    +0.048 C 
ATOM      5  C   UNL     1      30.441  21.802  17.287  0.00  0.00    +0.004 C 
ATOM      6  C   UNL     1      29.241  21.929  16.370  0.00  0.00    +0.004 C 
ATOM      7  C   UNL     1      29.876  22.245  15.026  0.00  0.00    +0.048 C 
ATOM      8  O   UNL     1      30.892  20.221  14.215  0.00  0.00    -0.485 OA
ATOM      9  C   UNL     1      31.996  19.436  14.008  0.00  0.00    +0.126 A 
ATOM     10  C   UNL     1      31.809  18.055  14.007  0.00  0.00    +0.046 A 
ATOM     11  C   UNL     1      32.903  17.202  13.842  0.00  0.00    +0.004 A 
ATOM     12  C   UNL     1      34.177  17.733  13.654  0.00  0.00    +0.001 A 
ATOM     13  C   UNL     1      34.354  19.117  13.623  0.00  0.00    +0.009 A 
ATOM     14  C   UNL     1      33.261  19.981  13.801  0.00  0.00    +0.015 A 
ENDROOT
BRANCH   1  21
ATOM     15  N   UNL     1      35.659  23.879   8.331  0.00  0.00    -0.299 N 
ATOM     16  C   UNL     1      35.658  24.785   9.479  0.00  0.00    +0.127 C 
ATOM     17  C   UNL     1      34.320  24.765  10.209  0.00  0.00    +0.129 C 
ATOM     18  N   UNL     1      34.048  23.404  10.649  0.00  0.00    -0.275 N 
ATOM     19  C   UNL     1      33.911  23.155  11.997  0.00  0.00    +0.303 C 
ATOM     20  O   UNL     1      34.014  24.040  12.845  0.00  0.00    -0.253 OA
ATOM     21  N   UNL     1      33.685  21.857  12.345  0.00  0.00    -0.292 N 
ATOM     22  C   UNL     1      34.027  22.413   9.570  0.00  0.00    +0.205 C 
ATOM     23  C   UNL     1      34.950  22.680   8.361  0.00  0.00    +0.233 C 
ATOM     24  O   UNL     1      35.013  21.856   7.445  0.00  0.00    -0.274 OA
ATOM     25  H   UNL     1      33.263  21.249  11.661  0.00  0.00    +0.151 HD
BRANCH  15  27
ATOM     26  C   UNL     1      36.406  25.284   6.430  0.00  0.00    +0.024 C 
ATOM     27  C   UNL     1      36.679  24.070   7.305  0.00  0.00    +0.104 C 
ENDBRANCH  15  27
ENDBRANCH   1  21
TORSDOF 2
ENDMDL
MODEL 7
REMARK VINA RESULT:      -6.0      4.295      6.235
REMARK  Name = ZINC000329563636
REMARK  3 active torsions:
REMARK  status: ('A' for Active; 'I' for Inactive)
REMARK    1  A    between atoms: C_1  and  C_2
REMARK    2  A    between atoms: C_2  and  N_3
REMARK    3  A    between atoms: N_9  and  C_10
REMARK                            x       y       z     vdW  Elec       q    Type
REMARK                         _______ _______ _______ _____ _____    ______ ____
ROOT
ATOM      1  C   UNL     1      34.433  21.355  15.785  0.00  0.00    +0.112 C 
ATOM      2  C   UNL     1      34.699  21.353  17.294  0.00  0.00    +0.075 C 
ATOM      3  C   UNL     1      34.091  20.167  18.056  0.00  0.00    +0.113 C 
ATOM      4  C   UNL     1      34.953  18.877  18.046  0.00  0.00    +0.048 C 
ATOM      5  C   UNL     1      35.448  18.683  19.475  0.00  0.00    +0.004 C 
ATOM      6  C   UNL     1      34.353  19.293  20.328  0.00  0.00    +0.004 C 
ATOM      7  C   UNL     1      33.986  20.550  19.556  0.00  0.00    +0.048 C 
ATOM      8  O   UNL     1      32.757  19.865  17.605  0.00  0.00    -0.485 OA
ATOM      9  C   UNL     1      32.693  19.604  16.261  0.00  0.00    +0.126 A 
ATOM     10  C   UNL     1      31.781  18.638  15.839  0.00  0.00    +0.046 A 
ATOM     11  C   UNL     1      31.700  18.298  14.486  0.00  0.00    +0.004 A 
ATOM     12  C   UNL     1      32.513  18.943  13.557  0.00  0.00    +0.001 A 
ATOM     13  C   UNL     1      33.401  19.933  13.981  0.00  0.00    +0.009 A 
ATOM     14  C   UNL     1      33.498  20.270  15.340  0.00  0.00    +0.015 A 
ENDROOT
BRANCH   1  21
ATOM     15  N   UNL     1      33.411  27.085  13.329  0.00  0.00    -0.299 N 
ATOM     16  C   UNL     1      34.739  26.866  13.902  0.00  0.00    +0.127 C 
ATOM     17  C   UNL     1      34.655  26.231  15.286  0.00  0.00    +0.129 C 
ATOM     18  N   UNL     1      33.945  24.966  15.178  0.00  0.00    -0.275 N 
ATOM     19  C   UNL     1      34.595  23.804  15.532  0.00  0.00    +0.303 C 
ATOM     20  O   UNL     1      35.758  23.795  15.933  0.00  0.00    -0.253 OA
ATOM     21  N   UNL     1      33.884  22.651  15.382  0.00  0.00    -0.292 N 
ATOM     22  C   UNL     1      32.597  25.076  14.613  0.00  0.00    +0.205 C 
ATOM     23  C   UNL     1      32.364  26.200  13.580  0.00  0.00    +0.233 C 
ATOM     24  O   UNL     1      31.265  26.311  13.033  0.00  0.00    -0.274 OA
ATOM     25  H   UNL     1      32.878  22.708  15.404  0.00  0.00    +0.151 HD
BRANCH  15  27
ATOM     26  C   UNL     1      34.453  29.006  12.157  0.00  0.00    +0.024 C 
ATOM     27  C   UNL     1      33.286  28.030  12.225  0.00  0.00    +0.104 C 
ENDBRANCH  15  27
ENDBRANCH   1  21
TORSDOF 2
ENDMDL
MODEL 8
REMARK VINA RESULT:      -5.9      3.977      7.913
REMARK  Name = ZINC000329563636
REMARK  3 active torsions:
REMARK  status: ('A' for Active; 'I' for Inactive)
REMARK    1  A    between atoms: C_1  and  C_2
REMARK    2  A    between atoms: C_2  and  N_3
REMARK    3  A    between atoms: N_9  and  C_10
REMARK                            x       y       z     vdW  Elec       q    Type
REMARK                         _______ _______ _______ _____ _____    ______ ____
ROOT
ATOM      1  C   UNL     1      32.761  24.566  16.111  0.00  0.00    +0.112 C 
ATOM      2  C   UNL     1      33.222  24.899  14.688  0.00  0.00    +0.075 C 
ATOM      3  C   UNL     1      32.237  24.502  13.579  0.00  0.00    +0.113 C 
ATOM      4  C   UNL     1      31.114  25.537  13.306  0.00  0.00    +0.048 C 
ATOM      5  C   UNL     1      31.397  26.120  11.926  0.00  0.00    +0.004 C 
ATOM      6  C   UNL     1      32.085  24.990  11.186  0.00  0.00    +0.004 C 
ATOM      7  C   UNL     1      33.015  24.414  12.240  0.00  0.00    +0.048 C 
ATOM      8  O   UNL     1      31.657  23.204  13.815  0.00  0.00    -0.485 OA
ATOM      9  C   UNL     1      31.018  23.116  15.024  0.00  0.00    +0.126 A 
ATOM     10  C   UNL     1      29.868  22.331  15.085  0.00  0.00    +0.046 A 
ATOM     11  C   UNL     1      29.150  22.235  16.278  0.00  0.00    +0.004 A 
ATOM     12  C   UNL     1      29.598  22.904  17.415  0.00  0.00    +0.001 A 
ATOM     13  C   UNL     1      30.768  23.662  17.358  0.00  0.00    +0.009 A 
ATOM     14  C   UNL     1      31.488  23.774  16.158  0.00  0.00    +0.015 A 
ENDROOT
BRANCH   1  21
ATOM     15  N   UNL     1      36.275  21.355  20.265  0.00  0.00    -0.299 N 
ATOM     16  C   UNL     1      35.559  22.514  20.798  0.00  0.00    +0.127 C 
ATOM     17  C   UNL     1      35.746  23.744  19.917  0.00  0.00    +0.129 C 
ATOM     18  N   UNL     1      35.269  23.438  18.577  0.00  0.00    -0.275 N 
ATOM     19  C   UNL     1      34.229  24.175  18.056  0.00  0.00    +0.303 C 
ATOM     20  O   UNL     1      33.685  25.084  18.682  0.00  0.00    -0.253 OA
ATOM     21  N   UNL     1      33.811  23.820  16.808  0.00  0.00    -0.292 N 
ATOM     22  C   UNL     1      35.925  22.287  17.950  0.00  0.00    +0.205 C 
ATOM     23  C   UNL     1      36.407  21.162  18.891  0.00  0.00    +0.233 C 
ATOM     24  O   UNL     1      36.922  20.145  18.418  0.00  0.00    -0.274 OA
ATOM     25  H   UNL     1      34.467  23.351  16.204  0.00  0.00    +0.151 HD
BRANCH  15  27
ATOM     26  C   UNL     1      37.432  20.628  22.333  0.00  0.00    +0.024 C 
ATOM     27  C   UNL     1      36.540  20.237  21.164  0.00  0.00    +0.104 C 
ENDBRANCH  15  27
ENDBRANCH   1  21
TORSDOF 2
ENDMDL
MODEL 9
REMARK VINA RESULT:      -5.9      3.559      6.704
REMARK  Name = ZINC000329563636
REMARK  3 active torsions:
REMARK  status: ('A' for Active; 'I' for Inactive)
REMARK    1  A    between atoms: C_1  and  C_2
REMARK    2  A    between atoms: C_2  and  N_3
REMARK    3  A    between atoms: N_9  and  C_10
REMARK                            x       y       z     vdW  Elec       q    Type
REMARK                         _______ _______ _______ _____ _____    ______ ____
ROOT
ATOM      1  C   UNL     1      33.144  23.953  12.754  0.00  0.00    +0.112 C 
ATOM      2  C   UNL     1      33.571  25.252  13.446  0.00  0.00    +0.075 C 
ATOM      3  C   UNL     1      34.204  26.301  12.520  0.00  0.00    +0.113 C 
ATOM      4  C   UNL     1      33.189  27.201  11.768  0.00  0.00    +0.048 C 
ATOM      5  C   UNL     1      33.342  28.600  12.355  0.00  0.00    +0.004 C 
ATOM      6  C   UNL     1      34.797  28.661  12.778  0.00  0.00    +0.004 C 
ATOM      7  C   UNL     1      35.029  27.288  13.387  0.00  0.00    +0.048 C 
ATOM      8  O   UNL     1      35.117  25.704  11.578  0.00  0.00    -0.485 OA
ATOM      9  C   UNL     1      34.533  24.732  10.809  0.00  0.00    +0.126 A 
ATOM     10  C   UNL     1      34.957  24.621   9.486  0.00  0.00    +0.046 A 
ATOM     11  C   UNL     1      34.369  23.677   8.641  0.00  0.00    +0.004 A 
ATOM     12  C   UNL     1      33.377  22.830   9.128  0.00  0.00    +0.001 A 
ATOM     13  C   UNL     1      32.979  22.923  10.463  0.00  0.00    +0.009 A 
ATOM     14  C   UNL     1      33.555  23.878  11.314  0.00  0.00    +0.015 A 
ENDROOT
BRANCH   1  21
ATOM     15  N   UNL     1      34.362  18.272  15.234  0.00  0.00    -0.299 N 
ATOM     16  C   UNL     1      32.963  18.698  15.276  0.00  0.00    +0.127 C 
ATOM     17  C   UNL     1      32.826  20.122  15.804  0.00  0.00    +0.129 C 
ATOM     18  N   UNL     1      33.592  21.015  14.947  0.00  0.00    -0.275 N 
ATOM     19  C   UNL     1      32.935  22.023  14.277  0.00  0.00    +0.303 C 
ATOM     20  O   UNL     1      31.721  22.196  14.373  0.00  0.00    -0.253 OA
ATOM     21  N   UNL     1      33.705  22.806  13.470  0.00  0.00    -0.292 N 
ATOM     22  C   UNL     1      35.014  20.673  14.836  0.00  0.00    +0.205 C 
ATOM     23  C   UNL     1      35.381  19.178  14.945  0.00  0.00    +0.233 C 
ATOM     24  O   UNL     1      36.555  18.823  14.810  0.00  0.00    -0.274 OA
ATOM     25  H   UNL     1      34.688  22.879  13.678  0.00  0.00    +0.151 HD
BRANCH  15  27
ATOM     26  C   UNL     1      34.389  16.278  13.761  0.00  0.00    +0.024 C 
ATOM     27  C   UNL     1      34.643  16.843  15.151  0.00  0.00    +0.104 C 
ENDBRANCH  15  27
ENDBRANCH   1  21
TORSDOF 2
ENDMDL
