MODEL 1
REMARK VINA RESULT:      -7.8      0.000      0.000
REMARK  Name = ZINC000870248439
REMARK  2 active torsions:
REMARK  status: ('A' for Active; 'I' for Inactive)
REMARK    1  A    between atoms: C_2  and  C_4
REMARK    2  A    between atoms: C_7  and  C_8
REMARK                            x       y       z     vdW  Elec       q    Type
REMARK                         _______ _______ _______ _____ _____    ______ ____
ROOT
ATOM      1  C   UNL     1      28.797  16.786  14.263  0.00  0.00    +0.247 C 
ATOM      2  O   UNL     1      28.086  15.853  13.890  0.00  0.00    -0.270 OA
ATOM      3  N   UNL     1      30.181  16.830  14.048  0.00  0.00    -0.297 N 
ATOM      4  C   UNL     1      31.079  17.895  14.500  0.00  0.00    +0.108 C 
ATOM      5  C   UNL     1      32.184  18.216  13.500  0.00  0.00    +0.026 C 
ATOM      6  C   UNL     1      32.950  16.971  13.004  0.00  0.00    -0.025 C 
ATOM      7  C   UNL     1      33.875  17.426  11.848  0.00  0.00    +0.017 C 
ATOM      8  C   UNL     1      34.746  16.330  11.249  0.00  0.00    +0.069 C 
ATOM      9  S   UNL     1      35.864  15.592  12.472  0.00  0.00    -0.161 S 
ATOM     10  C   UNL     1      34.663  15.187  13.769  0.00  0.00    +0.069 C 
ATOM     11  C   UNL     1      33.814  16.393  14.155  0.00  0.00    +0.017 C 
ATOM     12  C   UNL     1      31.892  15.960  12.489  0.00  0.00    +0.026 C 
ATOM     13  C   UNL     1      30.827  15.626  13.533  0.00  0.00    +0.108 C 
ENDROOT
BRANCH   1  17
ATOM     14  C   UNL     1      27.096  20.136  16.291  0.00  0.00    +0.037 A 
ATOM     15  C   UNL     1      26.701  18.843  16.653  0.00  0.00    +0.014 A 
ATOM     16  C   UNL     1      27.176  17.748  15.933  0.00  0.00    +0.014 A 
ATOM     17  C   UNL     1      28.119  17.933  14.916  0.00  0.00    +0.037 A 
ATOM     18  C   UNL     1      28.443  19.229  14.496  0.00  0.00    +0.014 A 
ATOM     19  C   UNL     1      27.922  20.332  15.178  0.00  0.00    +0.014 A 
BRANCH  14  21
ATOM     20  N   UNL     1      27.514  21.799  18.013  0.00  0.00    -0.325 N 
ATOM     21  C   UNL     1      26.649  21.317  17.071  0.00  0.00    +0.242 C 
ATOM     22  O   UNL     1      25.582  21.868  16.846  0.00  0.00    -0.270 OA
ATOM     23  H   UNL     1      27.253  22.674  18.450  0.00  0.00    +0.145 HD
ATOM     24  H   UNL     1      28.490  21.537  18.037  0.00  0.00    +0.145 HD
ENDBRANCH  14  21
ENDBRANCH   1  17
TORSDOF 2
ENDMDL
MODEL 2
REMARK VINA RESULT:      -7.5      4.744      7.446
REMARK  Name = ZINC000870248439
REMARK  2 active torsions:
REMARK  status: ('A' for Active; 'I' for Inactive)
REMARK    1  A    between atoms: C_2  and  C_4
REMARK    2  A    between atoms: C_7  and  C_8
REMARK                            x       y       z     vdW  Elec       q    Type
REMARK                         _______ _______ _______ _____ _____    ______ ____
ROOT
ATOM      1  C   UNL     1      28.336  21.379  17.146  0.00  0.00    +0.247 C 
ATOM      2  O   UNL     1      27.284  21.977  17.368  0.00  0.00    -0.270 OA
ATOM      3  N   UNL     1      29.564  21.750  17.710  0.00  0.00    -0.297 N 
ATOM      4  C   UNL     1      30.850  21.099  17.454  0.00  0.00    +0.108 C 
ATOM      5  C   UNL     1      31.740  21.016  18.688  0.00  0.00    +0.026 C 
ATOM      6  C   UNL     1      31.899  22.362  19.427  0.00  0.00    -0.025 C 
ATOM      7  C   UNL     1      32.636  22.075  20.760  0.00  0.00    +0.017 C 
ATOM      8  C   UNL     1      32.918  23.301  21.618  0.00  0.00    +0.069 C 
ATOM      9  S   UNL     1      33.961  24.514  20.765  0.00  0.00    -0.161 S 
ATOM     10  C   UNL     1      33.022  24.685  19.224  0.00  0.00    +0.069 C 
ATOM     11  C   UNL     1      32.750  23.335  18.570  0.00  0.00    +0.017 C 
ATOM     12  C   UNL     1      30.471  22.903  19.701  0.00  0.00    +0.026 C 
ATOM     13  C   UNL     1      29.622  23.017  18.435  0.00  0.00    +0.108 C 
ENDROOT
BRANCH   1  17
ATOM     14  C   UNL     1      28.321  17.788  14.836  0.00  0.00    +0.037 A 
ATOM     15  C   UNL     1      28.934  18.933  14.317  0.00  0.00    +0.014 A 
ATOM     16  C   UNL     1      28.860  20.136  15.020  0.00  0.00    +0.014 A 
ATOM     17  C   UNL     1      28.260  20.174  16.283  0.00  0.00    +0.037 A 
ATOM     18  C   UNL     1      27.570  19.052  16.760  0.00  0.00    +0.014 A 
ATOM     19  C   UNL     1      27.591  17.860  16.030  0.00  0.00    +0.014 A 
BRANCH  14  21
ATOM     20  N   UNL     1      29.669  16.113  13.703  0.00  0.00    -0.325 N 
ATOM     21  C   UNL     1      28.427  16.482  14.139  0.00  0.00    +0.242 C 
ATOM     22  O   UNL     1      27.462  15.745  14.007  0.00  0.00    -0.270 OA
ATOM     23  H   UNL     1      29.752  15.171  13.341  0.00  0.00    +0.145 HD
ATOM     24  H   UNL     1      30.513  16.565  14.026  0.00  0.00    +0.145 HD
ENDBRANCH  14  21
ENDBRANCH   1  17
TORSDOF 2
ENDMDL
MODEL 3
REMARK VINA RESULT:      -7.3      4.652      5.466
REMARK  Name = ZINC000870248439
REMARK  2 active torsions:
REMARK  status: ('A' for Active; 'I' for Inactive)
REMARK    1  A    between atoms: C_2  and  C_4
REMARK    2  A    between atoms: C_7  and  C_8
REMARK                            x       y       z     vdW  Elec       q    Type
REMARK                         _______ _______ _______ _____ _____    ______ ____
ROOT
ATOM      1  C   UNL     1      31.545  19.804  13.605  0.00  0.00    +0.247 C 
ATOM      2  O   UNL     1      32.138  18.741  13.425  0.00  0.00    -0.270 OA
ATOM      3  N   UNL     1      31.908  21.002  12.975  0.00  0.00    -0.297 N 
ATOM      4  C   UNL     1      31.262  22.301  13.178  0.00  0.00    +0.108 C 
ATOM      5  C   UNL     1      31.161  23.129  11.903  0.00  0.00    +0.026 C 
ATOM      6  C   UNL     1      32.494  23.249  11.135  0.00  0.00    -0.025 C 
ATOM      7  C   UNL     1      32.186  23.920   9.773  0.00  0.00    +0.017 C 
ATOM      8  C   UNL     1      33.398  24.157   8.882  0.00  0.00    +0.069 C 
ATOM      9  S   UNL     1      34.626  25.239   9.663  0.00  0.00    -0.161 S 
ATOM     10  C   UNL     1      34.821  24.377  11.246  0.00  0.00    +0.069 C 
ATOM     11  C   UNL     1      33.482  24.139  11.934  0.00  0.00    +0.017 C 
ATOM     12  C   UNL     1      33.029  21.808  10.923  0.00  0.00    +0.026 C 
ATOM     13  C   UNL     1      33.163  21.023  12.228  0.00  0.00    +0.108 C 
ENDROOT
BRANCH   1  17
ATOM     14  C   UNL     1      28.000  19.924  15.982  0.00  0.00    +0.037 A 
ATOM     15  C   UNL     1      29.180  20.483  16.484  0.00  0.00    +0.014 A 
ATOM     16  C   UNL     1      30.365  20.363  15.758  0.00  0.00    +0.014 A 
ATOM     17  C   UNL     1      30.354  19.772  14.490  0.00  0.00    +0.037 A 
ATOM     18  C   UNL     1      29.195  19.135  14.030  0.00  0.00    +0.014 A 
ATOM     19  C   UNL     1      28.019  19.201  14.782  0.00  0.00    +0.014 A 
BRANCH  14  21
ATOM     20  N   UNL     1      26.128  18.940  17.180  0.00  0.00    -0.325 N 
ATOM     21  C   UNL     1      26.713  20.080  16.705  0.00  0.00    +0.242 C 
ATOM     22  O   UNL     1      26.225  21.180  16.914  0.00  0.00    -0.270 OA
ATOM     23  H   UNL     1      25.319  19.069  17.774  0.00  0.00    +0.145 HD
ATOM     24  H   UNL     1      26.628  18.065  17.255  0.00  0.00    +0.145 HD
ENDBRANCH  14  21
ENDBRANCH   1  17
TORSDOF 2
ENDMDL
MODEL 4
REMARK VINA RESULT:      -6.9      1.486      1.739
REMARK  Name = ZINC000870248439
REMARK  2 active torsions:
REMARK  status: ('A' for Active; 'I' for Inactive)
REMARK    1  A    between atoms: C_2  and  C_4
REMARK    2  A    between atoms: C_7  and  C_8
REMARK                            x       y       z     vdW  Elec       q    Type
REMARK                         _______ _______ _______ _____ _____    ______ ____
ROOT
ATOM      1  C   UNL     1      30.018  16.242  13.816  0.00  0.00    +0.247 C 
ATOM      2  O   UNL     1      29.468  15.457  13.044  0.00  0.00    -0.270 OA
ATOM      3  N   UNL     1      31.384  16.184  14.126  0.00  0.00    -0.297 N 
ATOM      4  C   UNL     1      32.082  17.067  15.062  0.00  0.00    +0.108 C 
ATOM      5  C   UNL     1      33.489  17.436  14.606  0.00  0.00    +0.026 C 
ATOM      6  C   UNL     1      34.345  16.220  14.194  0.00  0.00    -0.025 C 
ATOM      7  C   UNL     1      35.648  16.765  13.555  0.00  0.00    +0.017 C 
ATOM      8  C   UNL     1      36.644  15.701  13.115  0.00  0.00    +0.069 C 
ATOM      9  S   UNL     1      37.203  14.666  14.495  0.00  0.00    -0.161 S 
ATOM     10  C   UNL     1      35.595  14.175  15.172  0.00  0.00    +0.069 C 
ATOM     11  C   UNL     1      34.701  15.379  15.447  0.00  0.00    +0.017 C 
ATOM     12  C   UNL     1      33.523  15.416  13.152  0.00  0.00    +0.026 C 
ATOM     13  C   UNL     1      32.136  15.022  13.660  0.00  0.00    +0.108 C 
ENDROOT
BRANCH   1  17
ATOM     14  C   UNL     1      27.848  19.450  15.613  0.00  0.00    +0.037 A 
ATOM     15  C   UNL     1      27.583  18.136  16.013  0.00  0.00    +0.014 A 
ATOM     16  C   UNL     1      28.216  17.075  15.364  0.00  0.00    +0.014 A 
ATOM     17  C   UNL     1      29.182  17.328  14.385  0.00  0.00    +0.037 A 
ATOM     18  C   UNL     1      29.380  18.636  13.924  0.00  0.00    +0.014 A 
ATOM     19  C   UNL     1      28.703  19.697  14.532  0.00  0.00    +0.014 A 
BRANCH  14  21
ATOM     20  N   UNL     1      27.866  21.807  16.205  0.00  0.00    -0.325 N 
ATOM     21  C   UNL     1      27.232  20.602  16.318  0.00  0.00    +0.242 C 
ATOM     22  O   UNL     1      26.178  20.492  16.926  0.00  0.00    -0.270 OA
ATOM     23  H   UNL     1      27.374  22.606  16.585  0.00  0.00    +0.145 HD
ATOM     24  H   UNL     1      28.575  21.983  15.507  0.00  0.00    +0.145 HD
ENDBRANCH  14  21
ENDBRANCH   1  17
TORSDOF 2
ENDMDL
MODEL 5
REMARK VINA RESULT:      -6.8      1.970      2.768
REMARK  Name = ZINC000870248439
REMARK  2 active torsions:
REMARK  status: ('A' for Active; 'I' for Inactive)
REMARK    1  A    between atoms: C_2  and  C_4
REMARK    2  A    between atoms: C_7  and  C_8
REMARK                            x       y       z     vdW  Elec       q    Type
REMARK                         _______ _______ _______ _____ _____    ______ ____
ROOT
ATOM      1  C   UNL     1      31.039  19.448  13.966  0.00  0.00    +0.247 C 
ATOM      2  O   UNL     1      31.645  20.355  13.397  0.00  0.00    -0.270 OA
ATOM      3  N   UNL     1      31.348  18.092  13.796  0.00  0.00    -0.297 N 
ATOM      4  C   UNL     1      30.639  16.972  14.418  0.00  0.00    +0.108 C 
ATOM      5  C   UNL     1      31.561  15.833  14.838  0.00  0.00    +0.026 C 
ATOM      6  C   UNL     1      32.524  15.373  13.722  0.00  0.00    -0.025 C 
ATOM      7  C   UNL     1      33.529  14.381  14.358  0.00  0.00    +0.017 C 
ATOM      8  C   UNL     1      34.546  13.786  13.393  0.00  0.00    +0.069 C 
ATOM      9  S   UNL     1      33.760  12.852  12.052  0.00  0.00    -0.161 S 
ATOM     10  C   UNL     1      32.581  14.100  11.469  0.00  0.00    +0.069 C 
ATOM     11  C   UNL     1      31.726  14.651  12.606  0.00  0.00    +0.017 C 
ATOM     12  C   UNL     1      33.259  16.637  13.205  0.00  0.00    +0.026 C 
ATOM     13  C   UNL     1      32.304  17.740  12.749  0.00  0.00    +0.108 C 
ENDROOT
BRANCH   1  17
ATOM     14  C   UNL     1      27.886  20.791  16.513  0.00  0.00    +0.037 A 
ATOM     15  C   UNL     1      29.210  21.098  16.843  0.00  0.00    +0.014 A 
ATOM     16  C   UNL     1      30.252  20.582  16.072  0.00  0.00    +0.014 A 
ATOM     17  C   UNL     1      29.971  19.843  14.918  0.00  0.00    +0.037 A 
ATOM     18  C   UNL     1      28.652  19.462  14.640  0.00  0.00    +0.014 A 
ATOM     19  C   UNL     1      27.609  19.928  15.445  0.00  0.00    +0.014 A 
BRANCH  14  21
ATOM     20  N   UNL     1      26.948  21.554  18.621  0.00  0.00    -0.325 N 
ATOM     21  C   UNL     1      26.754  21.367  17.281  0.00  0.00    +0.242 C 
ATOM     22  O   UNL     1      25.716  21.709  16.735  0.00  0.00    -0.270 OA
ATOM     23  H   UNL     1      26.219  22.059  19.110  0.00  0.00    +0.145 HD
ATOM     24  H   UNL     1      27.865  21.531  19.044  0.00  0.00    +0.145 HD
ENDBRANCH  14  21
ENDBRANCH   1  17
TORSDOF 2
ENDMDL
MODEL 6
REMARK VINA RESULT:      -6.7     20.529     22.087
REMARK  Name = ZINC000870248439
REMARK  2 active torsions:
REMARK  status: ('A' for Active; 'I' for Inactive)
REMARK    1  A    between atoms: C_2  and  C_4
REMARK    2  A    between atoms: C_7  and  C_8
REMARK                            x       y       z     vdW  Elec       q    Type
REMARK                         _______ _______ _______ _____ _____    ______ ____
ROOT
ATOM      1  C   UNL     1      18.203   4.318  27.475  0.00  0.00    +0.247 C 
ATOM      2  O   UNL     1      17.593   3.943  26.474  0.00  0.00    -0.270 OA
ATOM      3  N   UNL     1      19.538   3.978  27.733  0.00  0.00    -0.297 N 
ATOM      4  C   UNL     1      20.301   4.365  28.922  0.00  0.00    +0.108 C 
ATOM      5  C   UNL     1      21.759   4.691  28.622  0.00  0.00    +0.026 C 
ATOM      6  C   UNL     1      22.477   3.608  27.789  0.00  0.00    -0.025 C 
ATOM      7  C   UNL     1      23.861   4.175  27.384  0.00  0.00    +0.017 C 
ATOM      8  C   UNL     1      24.737   3.225  26.580  0.00  0.00    +0.069 C 
ATOM      9  S   UNL     1      25.111   1.698  27.485  0.00  0.00    -0.161 S 
ATOM     10  C   UNL     1      23.428   1.205  27.948  0.00  0.00    +0.069 C 
ATOM     11  C   UNL     1      22.677   2.332  28.649  0.00  0.00    +0.017 C 
ATOM     12  C   UNL     1      21.606   3.348  26.532  0.00  0.00    +0.026 C 
ATOM     13  C   UNL     1      20.162   2.977  26.872  0.00  0.00    +0.108 C 
ENDROOT
BRANCH   1  17
ATOM     14  C   UNL     1      16.384   6.944  30.307  0.00  0.00    +0.037 A 
ATOM     15  C   UNL     1      16.072   5.580  30.340  0.00  0.00    +0.014 A 
ATOM     16  C   UNL     1      16.584   4.731  29.359  0.00  0.00    +0.014 A 
ATOM     17  C   UNL     1      17.483   5.222  28.406  0.00  0.00    +0.037 A 
ATOM     18  C   UNL     1      17.723   6.599  28.320  0.00  0.00    +0.014 A 
ATOM     19  C   UNL     1      17.163   7.463  29.266  0.00  0.00    +0.014 A 
BRANCH  14  21
ATOM     20  N   UNL     1      14.946   8.775  31.004  0.00  0.00    -0.325 N 
ATOM     21  C   UNL     1      15.897   7.864  31.366  0.00  0.00    +0.242 C 
ATOM     22  O   UNL     1      16.287   7.776  32.520  0.00  0.00    -0.270 OA
ATOM     23  H   UNL     1      14.534   9.312  31.757  0.00  0.00    +0.145 HD
ATOM     24  H   UNL     1      14.421   8.698  30.144  0.00  0.00    +0.145 HD
ENDBRANCH  14  21
ENDBRANCH   1  17
TORSDOF 2
ENDMDL
MODEL 7
REMARK VINA RESULT:      -6.7      4.984      5.825
REMARK  Name = ZINC000870248439
REMARK  2 active torsions:
REMARK  status: ('A' for Active; 'I' for Inactive)
REMARK    1  A    between atoms: C_2  and  C_4
REMARK    2  A    between atoms: C_7  and  C_8
REMARK                            x       y       z     vdW  Elec       q    Type
REMARK                         _______ _______ _______ _____ _____    ______ ____
ROOT
ATOM      1  C   UNL     1      31.387  20.570  13.946  0.00  0.00    +0.247 C 
ATOM      2  O   UNL     1      31.612  19.393  13.663  0.00  0.00    -0.270 OA
ATOM      3  N   UNL     1      31.852  21.646  13.178  0.00  0.00    -0.297 N 
ATOM      4  C   UNL     1      31.645  23.063  13.485  0.00  0.00    +0.108 C 
ATOM      5  C   UNL     1      31.403  23.918  12.247  0.00  0.00    +0.026 C 
ATOM      6  C   UNL     1      32.448  23.704  11.131  0.00  0.00    -0.025 C 
ATOM      7  C   UNL     1      31.948  24.464   9.876  0.00  0.00    +0.017 C 
ATOM      8  C   UNL     1      32.876  24.397   8.671  0.00  0.00    +0.069 C 
ATOM      9  S   UNL     1      34.510  25.102   9.019  0.00  0.00    -0.161 S 
ATOM     10  C   UNL     1      34.919  24.183  10.527  0.00  0.00    +0.069 C 
ATOM     11  C   UNL     1      33.815  24.287  11.574  0.00  0.00    +0.017 C 
ATOM     12  C   UNL     1      32.512  22.179  10.855  0.00  0.00    +0.026 C 
ATOM     13  C   UNL     1      32.804  21.356  12.109  0.00  0.00    +0.108 C 
ENDROOT
BRANCH   1  17
ATOM     14  C   UNL     1      28.902  21.598  17.262  0.00  0.00    +0.037 A 
ATOM     15  C   UNL     1      30.267  21.374  17.473  0.00  0.00    +0.014 A 
ATOM     16  C   UNL     1      31.068  20.943  16.415  0.00  0.00    +0.014 A 
ATOM     17  C   UNL     1      30.530  20.829  15.129  0.00  0.00    +0.037 A 
ATOM     18  C   UNL     1      29.149  20.966  14.938  0.00  0.00    +0.014 A 
ATOM     19  C   UNL     1      28.333  21.341  16.009  0.00  0.00    +0.014 A 
BRANCH  14  21
ATOM     20  N   UNL     1      28.570  23.059  19.176  0.00  0.00    -0.325 N 
ATOM     21  C   UNL     1      28.035  22.107  18.353  0.00  0.00    +0.242 C 
ATOM     22  O   UNL     1      26.878  21.735  18.480  0.00  0.00    -0.270 OA
ATOM     23  H   UNL     1      27.932  23.486  19.836  0.00  0.00    +0.145 HD
ATOM     24  H   UNL     1      29.409  23.569  18.939  0.00  0.00    +0.145 HD
ENDBRANCH  14  21
ENDBRANCH   1  17
TORSDOF 2
ENDMDL
MODEL 8
REMARK VINA RESULT:      -6.7      6.425      8.156
REMARK  Name = ZINC000870248439
REMARK  2 active torsions:
REMARK  status: ('A' for Active; 'I' for Inactive)
REMARK    1  A    between atoms: C_2  and  C_4
REMARK    2  A    between atoms: C_7  and  C_8
REMARK                            x       y       z     vdW  Elec       q    Type
REMARK                         _______ _______ _______ _____ _____    ______ ____
ROOT
ATOM      1  C   UNL     1      30.585  22.212  13.467  0.00  0.00    +0.247 C 
ATOM      2  O   UNL     1      29.544  21.616  13.192  0.00  0.00    -0.270 OA
ATOM      3  N   UNL     1      31.136  22.242  14.755  0.00  0.00    -0.297 N 
ATOM      4  C   UNL     1      32.350  22.962  15.145  0.00  0.00    +0.108 C 
ATOM      5  C   UNL     1      33.195  22.210  16.167  0.00  0.00    +0.026 C 
ATOM      6  C   UNL     1      32.391  21.707  17.385  0.00  0.00    -0.025 C 
ATOM      7  C   UNL     1      33.326  20.786  18.209  0.00  0.00    +0.017 C 
ATOM      8  C   UNL     1      32.713  20.218  19.482  0.00  0.00    +0.069 C 
ATOM      9  S   UNL     1      32.204  21.517  20.641  0.00  0.00    -0.161 S 
ATOM     10  C   UNL     1      31.197  22.534  19.527  0.00  0.00    +0.069 C 
ATOM     11  C   UNL     1      31.955  22.911  18.259  0.00  0.00    +0.017 C 
ATOM     12  C   UNL     1      31.184  20.903  16.834  0.00  0.00    +0.026 C 
ATOM     13  C   UNL     1      30.332  21.704  15.849  0.00  0.00    +0.108 C 
ENDROOT
BRANCH   1  17
ATOM     14  C   UNL     1      32.412  24.057  10.077  0.00  0.00    +0.037 A 
ATOM     15  C   UNL     1      32.853  22.795  10.490  0.00  0.00    +0.014 A 
ATOM     16  C   UNL     1      32.332  22.227  11.652  0.00  0.00    +0.014 A 
ATOM     17  C   UNL     1      31.302  22.871  12.347  0.00  0.00    +0.037 A 
ATOM     18  C   UNL     1      30.926  24.171  11.985  0.00  0.00    +0.014 A 
ATOM     19  C   UNL     1      31.490  24.769  10.855  0.00  0.00    +0.014 A 
BRANCH  14  21
ATOM     20  N   UNL     1      32.412  24.159   7.649  0.00  0.00    -0.325 N 
ATOM     21  C   UNL     1      32.909  24.665   8.817  0.00  0.00    +0.242 C 
ATOM     22  O   UNL     1      33.683  25.609   8.823  0.00  0.00    -0.270 OA
ATOM     23  H   UNL     1      32.662  24.660   6.805  0.00  0.00    +0.145 HD
ATOM     24  H   UNL     1      31.589  23.574   7.618  0.00  0.00    +0.145 HD
ENDBRANCH  14  21
ENDBRANCH   1  17
TORSDOF 2
ENDMDL
MODEL 9
REMARK VINA RESULT:      -6.7      4.785      7.600
REMARK  Name = ZINC000870248439
REMARK  2 active torsions:
REMARK  status: ('A' for Active; 'I' for Inactive)
REMARK    1  A    between atoms: C_2  and  C_4
REMARK    2  A    between atoms: C_7  and  C_8
REMARK                            x       y       z     vdW  Elec       q    Type
REMARK                         _______ _______ _______ _____ _____    ______ ____
ROOT
ATOM      1  C   UNL     1      29.591  20.840  15.682  0.00  0.00    +0.247 C 
ATOM      2  O   UNL     1      28.517  21.394  15.452  0.00  0.00    -0.270 OA
ATOM      3  N   UNL     1      30.482  21.272  16.674  0.00  0.00    -0.297 N 
ATOM      4  C   UNL     1      31.786  20.673  16.966  0.00  0.00    +0.108 C 
ATOM      5  C   UNL     1      32.117  20.645  18.453  0.00  0.00    +0.026 C 
ATOM      6  C   UNL     1      31.923  22.006  19.156  0.00  0.00    -0.025 C 
ATOM      7  C   UNL     1      32.082  21.769  20.679  0.00  0.00    +0.017 C 
ATOM      8  C   UNL     1      31.958  23.017  21.542  0.00  0.00    +0.069 C 
ATOM      9  S   UNL     1      33.211  24.263  21.136  0.00  0.00    -0.161 S 
ATOM     10  C   UNL     1      32.954  24.373  19.345  0.00  0.00    +0.069 C 
ATOM     11  C   UNL     1      33.010  23.004  18.676  0.00  0.00    +0.017 C 
ATOM     12  C   UNL     1      30.486  22.488  18.827  0.00  0.00    +0.026 C 
ATOM     13  C   UNL     1      30.205  22.549  17.326  0.00  0.00    +0.108 C 
ENDROOT
BRANCH   1  17
ATOM     14  C   UNL     1      30.613  17.220  13.661  0.00  0.00    +0.037 A 
ATOM     15  C   UNL     1      31.353  18.379  13.405  0.00  0.00    +0.014 A 
ATOM     16  C   UNL     1      30.967  19.588  13.985  0.00  0.00    +0.014 A 
ATOM     17  C   UNL     1      29.905  19.621  14.895  0.00  0.00    +0.037 A 
ATOM     18  C   UNL     1      29.112  18.482  15.080  0.00  0.00    +0.014 A 
ATOM     19  C   UNL     1      29.460  17.282  14.454  0.00  0.00    +0.014 A 
BRANCH  14  21
ATOM     20  N   UNL     1      32.372  15.686  12.981  0.00  0.00    -0.325 N 
ATOM     21  C   UNL     1      31.029  15.909  13.102  0.00  0.00    +0.242 C 
ATOM     22  O   UNL     1      30.213  15.048  12.813  0.00  0.00    -0.270 OA
ATOM     23  H   UNL     1      32.645  14.749  12.716  0.00  0.00    +0.145 HD
ATOM     24  H   UNL     1      33.060  16.259  13.449  0.00  0.00    +0.145 HD
ENDBRANCH  14  21
ENDBRANCH   1  17
TORSDOF 2
ENDMDL
