MODEL 1
REMARK VINA RESULT:      -7.4      0.000      0.000
REMARK  Name = ZINC000543478179
REMARK  8 active torsions:
REMARK  status: ('A' for Active; 'I' for Inactive)
REMARK    1  A    between atoms: C_1  and  C_2
REMARK    2  A    between atoms: C_2  and  N_3
REMARK    3  A    between atoms: N_9  and  C_10
REMARK    4  A    between atoms: C_10  and  C_11
REMARK    5  A    between atoms: C_10  and  C_12
REMARK    6  A    between atoms: C_15  and  O_16
REMARK    7  A    between atoms: O_16  and  C_17
REMARK    8  A    between atoms: C_17  and  C_18
REMARK                            x       y       z     vdW  Elec       q    Type
REMARK                         _______ _______ _______ _____ _____    ______ ____
ROOT
ATOM      1  C   UNL     1      11.027   5.548   8.155  0.00  0.00    +0.102 C 
ATOM      2  C   UNL     1       9.614   6.026   7.814  0.00  0.00    +0.033 C 
ENDROOT
BRANCH   1   9
ATOM      3  N   UNL     1      15.187   2.263   6.933  0.00  0.00    -0.299 N 
ATOM      4  C   UNL     1      15.819   3.531   6.573  0.00  0.00    +0.127 C 
ATOM      5  C   UNL     1      14.859   4.450   5.813  0.00  0.00    +0.129 C 
ATOM      6  N   UNL     1      13.650   4.694   6.606  0.00  0.00    -0.275 N 
ATOM      7  C   UNL     1      13.167   5.967   6.711  0.00  0.00    +0.303 C 
ATOM      8  O   UNL     1      13.737   6.920   6.169  0.00  0.00    -0.253 OA
ATOM      9  N   UNL     1      12.056   6.275   7.416  0.00  0.00    -0.293 N 
ATOM     10  C   UNL     1      13.067   3.501   7.202  0.00  0.00    +0.205 C 
ATOM     11  C   UNL     1      13.825   2.175   7.140  0.00  0.00    +0.233 C 
ATOM     12  O   UNL     1      13.244   1.118   7.396  0.00  0.00    -0.274 OA
ATOM     13  H   UNL     1      11.913   7.276   7.364  0.00  0.00    +0.151 HD
BRANCH   3  15
ATOM     14  C   UNL     1      17.358   1.431   7.696  0.00  0.00    +0.024 C 
ATOM     15  C   UNL     1      16.004   1.077   7.108  0.00  0.00    +0.104 C 
ENDBRANCH   3  15
ENDBRANCH   1   9
BRANCH   1  16
ATOM     16  C   UNL     1      11.310   5.618   9.645  0.00  0.00    -0.024 A 
ATOM     17  C   UNL     1      10.351   6.078  10.554  0.00  0.00    +0.009 A 
ATOM     18  C   UNL     1      10.636   6.154  11.919  0.00  0.00    +0.049 A 
ATOM     19  C   UNL     1      11.906   5.809  12.399  0.00  0.00    +0.156 A 
ATOM     20  C   UNL     1      12.848   5.315  11.499  0.00  0.00    +0.165 A 
ATOM     21  F   UNL     1      14.062   4.935  11.926  0.00  0.00    -0.202 F 
ATOM     22  C   UNL     1      12.567   5.229  10.137  0.00  0.00    +0.047 A 
BRANCH  19  23
ATOM     23  O   UNL     1      12.297   5.929  13.703  0.00  0.00    -0.489 OA
BRANCH  23  24
ATOM     24  C   UNL     1      12.260   4.718  14.458  0.00  0.00    +0.232 C 
BRANCH  24  25
ATOM     25  C   UNL     1      13.602   4.474  15.071  0.00  0.00    +0.027 C 
ATOM     26  C   UNL     1      14.303   3.163  14.814  0.00  0.00    +0.007 C 
ATOM     27  C   UNL     1      13.759   3.467  16.183  0.00  0.00    +0.007 C 
ENDBRANCH  24  25
ENDBRANCH  23  24
ENDBRANCH  19  23
ENDBRANCH   1  16
TORSDOF 6
ENDMDL
MODEL 2
REMARK VINA RESULT:      -7.2     23.444     24.768
REMARK  Name = ZINC000543478179
REMARK  8 active torsions:
REMARK  status: ('A' for Active; 'I' for Inactive)
REMARK    1  A    between atoms: C_1  and  C_2
REMARK    2  A    between atoms: C_2  and  N_3
REMARK    3  A    between atoms: N_9  and  C_10
REMARK    4  A    between atoms: C_10  and  C_11
REMARK    5  A    between atoms: C_10  and  C_12
REMARK    6  A    between atoms: C_15  and  O_16
REMARK    7  A    between atoms: O_16  and  C_17
REMARK    8  A    between atoms: C_17  and  C_18
REMARK                            x       y       z     vdW  Elec       q    Type
REMARK                         _______ _______ _______ _____ _____    ______ ____
ROOT
ATOM      1  C   UNL     1      29.115  20.715  16.855  0.00  0.00    +0.102 C 
ATOM      2  C   UNL     1      27.748  20.827  17.534  0.00  0.00    +0.033 C 
ENDROOT
BRANCH   1   9
ATOM      3  N   UNL     1      32.883  23.401  13.995  0.00  0.00    -0.299 N 
ATOM      4  C   UNL     1      33.644  23.245  15.233  0.00  0.00    +0.127 C 
ATOM      5  C   UNL     1      32.779  23.508  16.469  0.00  0.00    +0.129 C 
ATOM      6  N   UNL     1      31.613  22.620  16.475  0.00  0.00    -0.275 N 
ATOM      7  C   UNL     1      31.270  21.977  17.630  0.00  0.00    +0.303 C 
ATOM      8  O   UNL     1      31.933  22.112  18.664  0.00  0.00    -0.253 OA
ATOM      9  N   UNL     1      30.208  21.147  17.722  0.00  0.00    -0.293 N 
ATOM     10  C   UNL     1      30.912  22.532  15.203  0.00  0.00    +0.205 C 
ATOM     11  C   UNL     1      31.522  23.173  13.957  0.00  0.00    +0.233 C 
ATOM     12  O   UNL     1      30.833  23.341  12.947  0.00  0.00    -0.274 OA
ATOM     13  H   UNL     1      30.172  20.777  18.664  0.00  0.00    +0.151 HD
BRANCH   3  15
ATOM     14  C   UNL     1      34.208  22.559  12.117  0.00  0.00    +0.024 C 
ATOM     15  C   UNL     1      33.570  23.771  12.772  0.00  0.00    +0.104 C 
ENDBRANCH   3  15
ENDBRANCH   1   9
BRANCH   1  16
ATOM     16  C   UNL     1      29.384  19.312  16.340  0.00  0.00    -0.024 A 
ATOM     17  C   UNL     1      28.807  18.186  16.940  0.00  0.00    +0.009 A 
ATOM     18  C   UNL     1      29.083  16.903  16.466  0.00  0.00    +0.049 A 
ATOM     19  C   UNL     1      29.976  16.714  15.403  0.00  0.00    +0.156 A 
ATOM     20  C   UNL     1      30.520  17.836  14.782  0.00  0.00    +0.165 A 
ATOM     21  F   UNL     1      31.348  17.699  13.735  0.00  0.00    -0.202 F 
ATOM     22  C   UNL     1      30.243  19.121  15.245  0.00  0.00    +0.047 A 
BRANCH  19  23
ATOM     23  O   UNL     1      30.364  15.493  14.929  0.00  0.00    -0.489 OA
BRANCH  23  24
ATOM     24  C   UNL     1      29.391  14.819  14.131  0.00  0.00    +0.232 C 
BRANCH  24  25
ATOM     25  C   UNL     1      29.568  15.208  12.698  0.00  0.00    +0.027 C 
ATOM     26  C   UNL     1      29.441  14.154  11.627  0.00  0.00    +0.007 C 
ATOM     27  C   UNL     1      30.785  14.756  11.931  0.00  0.00    +0.007 C 
ENDBRANCH  24  25
ENDBRANCH  23  24
ENDBRANCH  19  23
ENDBRANCH   1  16
TORSDOF 6
ENDMDL
MODEL 3
REMARK VINA RESULT:      -7.0     23.905     25.525
REMARK  Name = ZINC000543478179
REMARK  8 active torsions:
REMARK  status: ('A' for Active; 'I' for Inactive)
REMARK    1  A    between atoms: C_1  and  C_2
REMARK    2  A    between atoms: C_2  and  N_3
REMARK    3  A    between atoms: N_9  and  C_10
REMARK    4  A    between atoms: C_10  and  C_11
REMARK    5  A    between atoms: C_10  and  C_12
REMARK    6  A    between atoms: C_15  and  O_16
REMARK    7  A    between atoms: O_16  and  C_17
REMARK    8  A    between atoms: C_17  and  C_18
REMARK                            x       y       z     vdW  Elec       q    Type
REMARK                         _______ _______ _______ _____ _____    ______ ____
ROOT
ATOM      1  C   UNL     1      30.461  20.819  15.074  0.00  0.00    +0.102 C 
ATOM      2  C   UNL     1      29.809  21.503  13.870  0.00  0.00    +0.033 C 
ENDROOT
BRANCH   1   9
ATOM      3  N   UNL     1      33.133  23.608  18.904  0.00  0.00    -0.299 N 
ATOM      4  C   UNL     1      32.045  23.108  19.742  0.00  0.00    +0.127 C 
ATOM      5  C   UNL     1      30.692  23.200  19.030  0.00  0.00    +0.129 C 
ATOM      6  N   UNL     1      30.732  22.467  17.761  0.00  0.00    -0.275 N 
ATOM      7  C   UNL     1      29.697  21.637  17.437  0.00  0.00    +0.303 C 
ATOM      8  O   UNL     1      28.738  21.474  18.199  0.00  0.00    -0.253 OA
ATOM      9  N   UNL     1      29.653  20.932  16.286  0.00  0.00    -0.293 N 
ATOM     10  C   UNL     1      31.908  22.731  16.947  0.00  0.00    +0.205 C 
ATOM     11  C   UNL     1      33.062  23.549  17.526  0.00  0.00    +0.233 C 
ATOM     12  O   UNL     1      33.935  24.003  16.781  0.00  0.00    -0.274 OA
ATOM     13  H   UNL     1      28.806  20.377  16.283  0.00  0.00    +0.151 HD
BRANCH   3  15
ATOM     14  C   UNL     1      34.319  23.907  21.023  0.00  0.00    +0.024 C 
ATOM     15  C   UNL     1      34.328  24.149  19.525  0.00  0.00    +0.104 C 
ENDBRANCH   3  15
ENDBRANCH   1   9
BRANCH   1  16
ATOM     16  C   UNL     1      30.783  19.362  14.798  0.00  0.00    -0.024 A 
ATOM     17  C   UNL     1      31.876  18.988  14.007  0.00  0.00    +0.009 A 
ATOM     18  C   UNL     1      32.144  17.643  13.747  0.00  0.00    +0.049 A 
ATOM     19  C   UNL     1      31.298  16.641  14.241  0.00  0.00    +0.156 A 
ATOM     20  C   UNL     1      30.234  17.011  15.060  0.00  0.00    +0.165 A 
ATOM     21  F   UNL     1      29.425  16.078  15.587  0.00  0.00    -0.202 F 
ATOM     22  C   UNL     1      29.965  18.351  15.330  0.00  0.00    +0.047 A 
BRANCH  19  23
ATOM     23  O   UNL     1      31.439  15.309  13.970  0.00  0.00    -0.489 OA
BRANCH  23  24
ATOM     24  C   UNL     1      31.642  14.993  12.592  0.00  0.00    +0.232 C 
BRANCH  24  25
ATOM     25  C   UNL     1      30.343  15.109  11.861  0.00  0.00    +0.027 C 
ATOM     26  C   UNL     1      29.082  14.599  12.513  0.00  0.00    +0.007 C 
ATOM     27  C   UNL     1      29.658  13.876  11.326  0.00  0.00    +0.007 C 
ENDBRANCH  24  25
ENDBRANCH  23  24
ENDBRANCH  19  23
ENDBRANCH   1  16
TORSDOF 6
ENDMDL
MODEL 4
REMARK VINA RESULT:      -6.9     21.994     23.059
REMARK  Name = ZINC000543478179
REMARK  8 active torsions:
REMARK  status: ('A' for Active; 'I' for Inactive)
REMARK    1  A    between atoms: C_1  and  C_2
REMARK    2  A    between atoms: C_2  and  N_3
REMARK    3  A    between atoms: N_9  and  C_10
REMARK    4  A    between atoms: C_10  and  C_11
REMARK    5  A    between atoms: C_10  and  C_12
REMARK    6  A    between atoms: C_15  and  O_16
REMARK    7  A    between atoms: O_16  and  C_17
REMARK    8  A    between atoms: C_17  and  C_18
REMARK                            x       y       z     vdW  Elec       q    Type
REMARK                         _______ _______ _______ _____ _____    ______ ____
ROOT
ATOM      1  C   UNL     1      29.952  15.371  14.671  0.00  0.00    +0.102 C 
ATOM      2  C   UNL     1      28.733  14.508  15.005  0.00  0.00    +0.033 C 
ENDROOT
BRANCH   1   9
ATOM      3  N   UNL     1      35.294  15.694  13.697  0.00  0.00    -0.299 N 
ATOM      4  C   UNL     1      34.824  16.007  12.349  0.00  0.00    +0.127 C 
ATOM      5  C   UNL     1      33.663  15.103  11.926  0.00  0.00    +0.129 C 
ATOM      6  N   UNL     1      32.559  15.209  12.886  0.00  0.00    -0.275 N 
ATOM      7  C   UNL     1      31.282  15.347  12.420  0.00  0.00    +0.303 C 
ATOM      8  O   UNL     1      31.040  15.405  11.210  0.00  0.00    -0.253 OA
ATOM      9  N   UNL     1      30.210  15.444  13.236  0.00  0.00    -0.293 N 
ATOM     10  C   UNL     1      32.961  15.134  14.282  0.00  0.00    +0.205 C 
ATOM     11  C   UNL     1      34.445  15.158  14.645  0.00  0.00    +0.233 C 
ATOM     12  O   UNL     1      34.811  14.833  15.777  0.00  0.00    -0.274 OA
ATOM     13  H   UNL     1      29.383  15.560  12.663  0.00  0.00    +0.151 HD
BRANCH   3  15
ATOM     14  C   UNL     1      36.829  17.421  14.503  0.00  0.00    +0.024 C 
ATOM     15  C   UNL     1      36.669  15.978  14.062  0.00  0.00    +0.104 C 
ENDBRANCH   3  15
ENDBRANCH   1   9
BRANCH   1  16
ATOM     16  C   UNL     1      29.839  16.769  15.251  0.00  0.00    -0.024 A 
ATOM     17  C   UNL     1      29.154  17.016  16.447  0.00  0.00    +0.009 A 
ATOM     18  C   UNL     1      29.042  18.311  16.954  0.00  0.00    +0.049 A 
ATOM     19  C   UNL     1      29.581  19.398  16.252  0.00  0.00    +0.156 A 
ATOM     20  C   UNL     1      30.296  19.148  15.083  0.00  0.00    +0.165 A 
ATOM     21  F   UNL     1      30.862  20.157  14.403  0.00  0.00    -0.202 F 
ATOM     22  C   UNL     1      30.418  17.856  14.575  0.00  0.00    +0.047 A 
BRANCH  19  23
ATOM     23  O   UNL     1      29.449  20.704  16.632  0.00  0.00    -0.489 OA
BRANCH  23  24
ATOM     24  C   UNL     1      28.273  21.356  16.153  0.00  0.00    +0.232 C 
BRANCH  24  25
ATOM     25  C   UNL     1      27.241  21.375  17.235  0.00  0.00    +0.027 C 
ATOM     26  C   UNL     1      26.072  20.426  17.155  0.00  0.00    +0.007 C 
ATOM     27  C   UNL     1      25.855  21.901  16.955  0.00  0.00    +0.007 C 
ENDBRANCH  24  25
ENDBRANCH  23  24
ENDBRANCH  19  23
ENDBRANCH   1  16
TORSDOF 6
ENDMDL
MODEL 5
REMARK VINA RESULT:      -6.7      3.725      6.992
REMARK  Name = ZINC000543478179
REMARK  8 active torsions:
REMARK  status: ('A' for Active; 'I' for Inactive)
REMARK    1  A    between atoms: C_1  and  C_2
REMARK    2  A    between atoms: C_2  and  N_3
REMARK    3  A    between atoms: N_9  and  C_10
REMARK    4  A    between atoms: C_10  and  C_11
REMARK    5  A    between atoms: C_10  and  C_12
REMARK    6  A    between atoms: C_15  and  O_16
REMARK    7  A    between atoms: O_16  and  C_17
REMARK    8  A    between atoms: C_17  and  C_18
REMARK                            x       y       z     vdW  Elec       q    Type
REMARK                         _______ _______ _______ _____ _____    ______ ____
ROOT
ATOM      1  C   UNL     1      11.660   5.604   7.972  0.00  0.00    +0.102 C 
ATOM      2  C   UNL     1      11.054   4.965   9.224  0.00  0.00    +0.033 C 
ENDROOT
BRANCH   1   9
ATOM      3  N   UNL     1      16.822   3.993   8.557  0.00  0.00    -0.299 N 
ATOM      4  C   UNL     1      16.571   3.392   7.249  0.00  0.00    +0.127 C 
ATOM      5  C   UNL     1      15.193   2.729   7.182  0.00  0.00    +0.129 C 
ATOM      6  N   UNL     1      14.143   3.700   7.504  0.00  0.00    -0.275 N 
ATOM      7  C   UNL     1      13.025   3.757   6.722  0.00  0.00    +0.303 C 
ATOM      8  O   UNL     1      12.889   3.023   5.738  0.00  0.00    -0.253 OA
ATOM      9  N   UNL     1      12.009   4.617   6.954  0.00  0.00    -0.293 N 
ATOM     10  C   UNL     1      14.411   4.514   8.680  0.00  0.00    +0.205 C 
ATOM     11  C   UNL     1      15.786   4.454   9.345  0.00  0.00    +0.233 C 
ATOM     12  O   UNL     1      15.948   4.922  10.475  0.00  0.00    -0.274 OA
ATOM     13  H   UNL     1      11.310   4.487   6.232  0.00  0.00    +0.151 HD
BRANCH   3  15
ATOM     14  C   UNL     1      18.901   2.801   9.055  0.00  0.00    +0.024 C 
ATOM     15  C   UNL     1      18.186   4.140   9.031  0.00  0.00    +0.104 C 
ENDBRANCH   3  15
ENDBRANCH   1   9
BRANCH   1  16
ATOM     16  C   UNL     1      10.753   6.666   7.377  0.00  0.00    -0.024 A 
ATOM     17  C   UNL     1       9.362   6.606   7.516  0.00  0.00    +0.009 A 
ATOM     18  C   UNL     1       8.543   7.581   6.944  0.00  0.00    +0.049 A 
ATOM     19  C   UNL     1       9.098   8.619   6.183  0.00  0.00    +0.156 A 
ATOM     20  C   UNL     1      10.484   8.700   6.078  0.00  0.00    +0.165 A 
ATOM     21  F   UNL     1      11.057   9.702   5.392  0.00  0.00    -0.202 F 
ATOM     22  C   UNL     1      11.309   7.734   6.652  0.00  0.00    +0.047 A 
BRANCH  19  23
ATOM     23  O   UNL     1       8.368   9.567   5.523  0.00  0.00    -0.489 OA
BRANCH  23  24
ATOM     24  C   UNL     1       7.343   9.054   4.672  0.00  0.00    +0.232 C 
BRANCH  24  25
ATOM     25  C   UNL     1       7.961   8.497   3.430  0.00  0.00    +0.027 C 
ATOM     26  C   UNL     1       8.741   9.413   2.521  0.00  0.00    +0.007 C 
ATOM     27  C   UNL     1       7.413   8.868   2.075  0.00  0.00    +0.007 C 
ENDBRANCH  24  25
ENDBRANCH  23  24
ENDBRANCH  19  23
ENDBRANCH   1  16
TORSDOF 6
ENDMDL
MODEL 6
REMARK VINA RESULT:      -6.6     21.425     22.511
REMARK  Name = ZINC000543478179
REMARK  8 active torsions:
REMARK  status: ('A' for Active; 'I' for Inactive)
REMARK    1  A    between atoms: C_1  and  C_2
REMARK    2  A    between atoms: C_2  and  N_3
REMARK    3  A    between atoms: N_9  and  C_10
REMARK    4  A    between atoms: C_10  and  C_11
REMARK    5  A    between atoms: C_10  and  C_12
REMARK    6  A    between atoms: C_15  and  O_16
REMARK    7  A    between atoms: O_16  and  C_17
REMARK    8  A    between atoms: C_17  and  C_18
REMARK                            x       y       z     vdW  Elec       q    Type
REMARK                         _______ _______ _______ _____ _____    ______ ____
ROOT
ATOM      1  C   UNL     1      30.950  14.900  12.361  0.00  0.00    +0.102 C 
ATOM      2  C   UNL     1      29.830  14.220  11.570  0.00  0.00    +0.033 C 
ENDROOT
BRANCH   1   9
ATOM      3  N   UNL     1      36.120  13.209  12.363  0.00  0.00    -0.299 N 
ATOM      4  C   UNL     1      36.332  14.504  11.719  0.00  0.00    +0.127 C 
ATOM      5  C   UNL     1      35.253  14.804  10.674  0.00  0.00    +0.129 C 
ATOM      6  N   UNL     1      33.922  14.754  11.287  0.00  0.00    -0.275 N 
ATOM      7  C   UNL     1      33.023  15.744  11.010  0.00  0.00    +0.303 C 
ATOM      8  O   UNL     1      33.315  16.692  10.272  0.00  0.00    -0.253 OA
ATOM      9  N   UNL     1      31.776  15.769  11.527  0.00  0.00    -0.293 N 
ATOM     10  C   UNL     1      33.691  13.598  12.140  0.00  0.00    +0.205 C 
ATOM     11  C   UNL     1      34.855  12.671  12.490  0.00  0.00    +0.233 C 
ATOM     12  O   UNL     1      34.636  11.561  12.981  0.00  0.00    -0.274 OA
ATOM     13  H   UNL     1      31.310  16.606  11.197  0.00  0.00    +0.151 HD
BRANCH   3  15
ATOM     14  C   UNL     1      37.618  13.003  14.286  0.00  0.00    +0.024 C 
ATOM     15  C   UNL     1      37.252  12.484  12.908  0.00  0.00    +0.104 C 
ENDBRANCH   3  15
ENDBRANCH   1   9
BRANCH   1  16
ATOM     16  C   UNL     1      30.418  15.676  13.553  0.00  0.00    -0.024 A 
ATOM     17  C   UNL     1      30.922  16.937  13.893  0.00  0.00    +0.009 A 
ATOM     18  C   UNL     1      30.435  17.626  15.005  0.00  0.00    +0.049 A 
ATOM     19  C   UNL     1      29.457  17.049  15.826  0.00  0.00    +0.156 A 
ATOM     20  C   UNL     1      28.929  15.812  15.466  0.00  0.00    +0.165 A 
ATOM     21  F   UNL     1      27.962  15.244  16.204  0.00  0.00    -0.202 F 
ATOM     22  C   UNL     1      29.405  15.121  14.353  0.00  0.00    +0.047 A 
BRANCH  19  23
ATOM     23  O   UNL     1      28.983  17.616  16.976  0.00  0.00    -0.489 OA
BRANCH  23  24
ATOM     24  C   UNL     1      29.288  19.001  17.135  0.00  0.00    +0.232 C 
BRANCH  24  25
ATOM     25  C   UNL     1      28.017  19.789  17.166  0.00  0.00    +0.027 C 
ATOM     26  C   UNL     1      27.960  21.122  16.464  0.00  0.00    +0.007 C 
ATOM     27  C   UNL     1      27.931  21.064  17.967  0.00  0.00    +0.007 C 
ENDBRANCH  24  25
ENDBRANCH  23  24
ENDBRANCH  19  23
ENDBRANCH   1  16
TORSDOF 6
ENDMDL
MODEL 7
REMARK VINA RESULT:      -6.5     26.523     28.086
REMARK  Name = ZINC000543478179
REMARK  8 active torsions:
REMARK  status: ('A' for Active; 'I' for Inactive)
REMARK    1  A    between atoms: C_1  and  C_2
REMARK    2  A    between atoms: C_2  and  N_3
REMARK    3  A    between atoms: N_9  and  C_10
REMARK    4  A    between atoms: C_10  and  C_11
REMARK    5  A    between atoms: C_10  and  C_12
REMARK    6  A    between atoms: C_15  and  O_16
REMARK    7  A    between atoms: O_16  and  C_17
REMARK    8  A    between atoms: C_17  and  C_18
REMARK                            x       y       z     vdW  Elec       q    Type
REMARK                         _______ _______ _______ _____ _____    ______ ____
ROOT
ATOM      1  C   UNL     1      31.262  24.531  12.495  0.00  0.00    +0.102 C 
ATOM      2  C   UNL     1      30.355  25.706  12.123  0.00  0.00    +0.033 C 
ENDROOT
BRANCH   1   9
ATOM      3  N   UNL     1      33.085  21.700  16.767  0.00  0.00    -0.299 N 
ATOM      4  C   UNL     1      32.260  20.652  16.169  0.00  0.00    +0.127 C 
ATOM      5  C   UNL     1      30.915  21.197  15.679  0.00  0.00    +0.129 C 
ATOM      6  N   UNL     1      31.124  22.287  14.721  0.00  0.00    -0.275 N 
ATOM      7  C   UNL     1      30.397  22.307  13.565  0.00  0.00    +0.303 C 
ATOM      8  O   UNL     1      29.582  21.417  13.300  0.00  0.00    -0.253 OA
ATOM      9  N   UNL     1      30.524  23.278  12.635  0.00  0.00    -0.293 N 
ATOM     10  C   UNL     1      32.110  23.275  15.134  0.00  0.00    +0.205 C 
ATOM     11  C   UNL     1      32.967  23.017  16.373  0.00  0.00    +0.233 C 
ATOM     12  O   UNL     1      33.607  23.939  16.885  0.00  0.00    -0.274 OA
ATOM     13  H   UNL     1      29.902  23.065  11.864  0.00  0.00    +0.151 HD
BRANCH   3  15
ATOM     14  C   UNL     1      33.424  21.186  19.135  0.00  0.00    +0.024 C 
ATOM     15  C   UNL     1      34.071  21.351  17.772  0.00  0.00    +0.104 C 
ENDBRANCH   3  15
ENDBRANCH   1   9
BRANCH   1  16
ATOM     16  C   UNL     1      32.402  24.355  11.509  0.00  0.00    -0.024 A 
ATOM     17  C   UNL     1      32.598  25.244  10.445  0.00  0.00    +0.009 A 
ATOM     18  C   UNL     1      33.640  25.055   9.536  0.00  0.00    +0.049 A 
ATOM     19  C   UNL     1      34.488  23.945   9.649  0.00  0.00    +0.156 A 
ATOM     20  C   UNL     1      34.317  23.082  10.729  0.00  0.00    +0.165 A 
ATOM     21  F   UNL     1      35.135  22.030  10.895  0.00  0.00    -0.202 F 
ATOM     22  C   UNL     1      33.284  23.269  11.645  0.00  0.00    +0.047 A 
BRANCH  19  23
ATOM     23  O   UNL     1      35.480  23.638   8.760  0.00  0.00    -0.489 OA
BRANCH  23  24
ATOM     24  C   UNL     1      35.105  23.724   7.385  0.00  0.00    +0.232 C 
BRANCH  24  25
ATOM     25  C   UNL     1      34.345  22.495   7.000  0.00  0.00    +0.027 C 
ATOM     26  C   UNL     1      34.869  21.144   7.418  0.00  0.00    +0.007 C 
ATOM     27  C   UNL     1      34.903  21.547   5.969  0.00  0.00    +0.007 C 
ENDBRANCH  24  25
ENDBRANCH  23  24
ENDBRANCH  19  23
ENDBRANCH   1  16
TORSDOF 6
ENDMDL
MODEL 8
REMARK VINA RESULT:      -6.4     24.365     25.947
REMARK  Name = ZINC000543478179
REMARK  8 active torsions:
REMARK  status: ('A' for Active; 'I' for Inactive)
REMARK    1  A    between atoms: C_1  and  C_2
REMARK    2  A    between atoms: C_2  and  N_3
REMARK    3  A    between atoms: N_9  and  C_10
REMARK    4  A    between atoms: C_10  and  C_11
REMARK    5  A    between atoms: C_10  and  C_12
REMARK    6  A    between atoms: C_15  and  O_16
REMARK    7  A    between atoms: O_16  and  C_17
REMARK    8  A    between atoms: C_17  and  C_18
REMARK                            x       y       z     vdW  Elec       q    Type
REMARK                         _______ _______ _______ _____ _____    ______ ____
ROOT
ATOM      1  C   UNL     1      30.785  21.190  14.995  0.00  0.00    +0.102 C 
ATOM      2  C   UNL     1      30.158  22.021  13.873  0.00  0.00    +0.033 C 
ENDROOT
BRANCH   1   9
ATOM      3  N   UNL     1      33.326  23.674  19.113  0.00  0.00    -0.299 N 
ATOM      4  C   UNL     1      32.241  23.066  19.883  0.00  0.00    +0.127 C 
ATOM      5  C   UNL     1      30.895  23.187  19.163  0.00  0.00    +0.129 C 
ATOM      6  N   UNL     1      30.973  22.580  17.830  0.00  0.00    -0.275 N 
ATOM      7  C   UNL     1      29.967  21.756  17.413  0.00  0.00    +0.303 C 
ATOM      8  O   UNL     1      29.004  21.495  18.141  0.00  0.00    -0.253 OA
ATOM      9  N   UNL     1      29.959  21.164  16.199  0.00  0.00    -0.293 N 
ATOM     10  C   UNL     1      32.152  22.954  17.063  0.00  0.00    +0.205 C 
ATOM     11  C   UNL     1      33.274  23.744  17.736  0.00  0.00    +0.233 C 
ATOM     12  O   UNL     1      34.142  24.292  17.051  0.00  0.00    -0.274 OA
ATOM     13  H   UNL     1      29.128  20.588  16.131  0.00  0.00    +0.151 HD
BRANCH   3  15
ATOM     14  C   UNL     1      35.440  23.061  20.182  0.00  0.00    +0.024 C 
ATOM     15  C   UNL     1      34.495  24.186  19.802  0.00  0.00    +0.104 C 
ENDBRANCH   3  15
ENDBRANCH   1   9
BRANCH   1  16
ATOM     16  C   UNL     1      31.099  19.773  14.550  0.00  0.00    -0.024 A 
ATOM     17  C   UNL     1      30.283  18.692  14.907  0.00  0.00    +0.009 A 
ATOM     18  C   UNL     1      30.600  17.394  14.505  0.00  0.00    +0.049 A 
ATOM     19  C   UNL     1      31.765  17.142  13.769  0.00  0.00    +0.156 A 
ATOM     20  C   UNL     1      32.555  18.221  13.381  0.00  0.00    +0.165 A 
ATOM     21  F   UNL     1      33.657  18.025  12.640  0.00  0.00    -0.202 F 
ATOM     22  C   UNL     1      32.241  19.521  13.772  0.00  0.00    +0.047 A 
BRANCH  19  23
ATOM     23  O   UNL     1      32.193  15.896  13.403  0.00  0.00    -0.489 OA
BRANCH  23  24
ATOM     24  C   UNL     1      31.680  15.424  12.158  0.00  0.00    +0.232 C 
BRANCH  24  25
ATOM     25  C   UNL     1      30.495  14.546  12.409  0.00  0.00    +0.027 C 
ATOM     26  C   UNL     1      29.840  13.842  11.248  0.00  0.00    +0.007 C 
ATOM     27  C   UNL     1      29.124  14.966  11.944  0.00  0.00    +0.007 C 
ENDBRANCH  24  25
ENDBRANCH  23  24
ENDBRANCH  19  23
ENDBRANCH   1  16
TORSDOF 6
ENDMDL
MODEL 9
REMARK VINA RESULT:      -6.3      2.685      3.552
REMARK  Name = ZINC000543478179
REMARK  8 active torsions:
REMARK  status: ('A' for Active; 'I' for Inactive)
REMARK    1  A    between atoms: C_1  and  C_2
REMARK    2  A    between atoms: C_2  and  N_3
REMARK    3  A    between atoms: N_9  and  C_10
REMARK    4  A    between atoms: C_10  and  C_11
REMARK    5  A    between atoms: C_10  and  C_12
REMARK    6  A    between atoms: C_15  and  O_16
REMARK    7  A    between atoms: O_16  and  C_17
REMARK    8  A    between atoms: C_17  and  C_18
REMARK                            x       y       z     vdW  Elec       q    Type
REMARK                         _______ _______ _______ _____ _____    ______ ____
ROOT
ATOM      1  C   UNL     1      13.432   4.512   7.117  0.00  0.00    +0.102 C 
ATOM      2  C   UNL     1      12.386   3.506   6.630  0.00  0.00    +0.033 C 
ENDROOT
BRANCH   1   9
ATOM      3  N   UNL     1      16.491   4.833   2.630  0.00  0.00    -0.299 N 
ATOM      4  C   UNL     1      16.139   6.248   2.736  0.00  0.00    +0.127 C 
ATOM      5  C   UNL     1      14.665   6.442   3.101  0.00  0.00    +0.129 C 
ATOM      6  N   UNL     1      14.354   5.747   4.354  0.00  0.00    -0.275 N 
ATOM      7  C   UNL     1      13.620   6.392   5.309  0.00  0.00    +0.303 C 
ATOM      8  O   UNL     1      13.232   7.553   5.150  0.00  0.00    -0.253 OA
ATOM      9  N   UNL     1      13.285   5.821   6.487  0.00  0.00    -0.293 N 
ATOM     10  C   UNL     1      14.865   4.387   4.436  0.00  0.00    +0.205 C 
ATOM     11  C   UNL     1      15.818   3.871   3.358  0.00  0.00    +0.233 C 
ATOM     12  O   UNL     1      16.048   2.663   3.262  0.00  0.00    -0.274 OA
ATOM     13  H   UNL     1      12.765   6.497   7.033  0.00  0.00    +0.151 HD
BRANCH   3  15
ATOM     14  C   UNL     1      18.343   5.634   1.247  0.00  0.00    +0.024 C 
ATOM     15  C   UNL     1      17.586   4.427   1.770  0.00  0.00    +0.104 C 
ENDBRANCH   3  15
ENDBRANCH   1   9
BRANCH   1  16
ATOM     16  C   UNL     1      13.424   4.658   8.628  0.00  0.00    -0.024 A 
ATOM     17  C   UNL     1      14.148   3.789   9.454  0.00  0.00    +0.009 A 
ATOM     18  C   UNL     1      14.112   3.927  10.842  0.00  0.00    +0.049 A 
ATOM     19  C   UNL     1      13.316   4.914  11.438  0.00  0.00    +0.156 A 
ATOM     20  C   UNL     1      12.627   5.801  10.616  0.00  0.00    +0.165 A 
ATOM     21  F   UNL     1      11.887   6.787  11.147  0.00  0.00    -0.202 F 
ATOM     22  C   UNL     1      12.664   5.675   9.228  0.00  0.00    +0.047 A 
BRANCH  19  23
ATOM     23  O   UNL     1      13.159   5.068  12.787  0.00  0.00    -0.489 OA
BRANCH  23  24
ATOM     24  C   UNL     1      13.795   4.070  13.586  0.00  0.00    +0.232 C 
BRANCH  24  25
ATOM     25  C   UNL     1      13.690   4.448  15.029  0.00  0.00    +0.027 C 
ATOM     26  C   UNL     1      14.640   3.829  16.024  0.00  0.00    +0.007 C 
ATOM     27  C   UNL     1      13.184   3.452  16.042  0.00  0.00    +0.007 C 
ENDBRANCH  24  25
ENDBRANCH  23  24
ENDBRANCH  19  23
ENDBRANCH   1  16
TORSDOF 6
ENDMDL
