MODEL 1
REMARK VINA RESULT:      -7.8      0.000      0.000
REMARK  Name = ZINC000560333501
REMARK  5 active torsions:
REMARK  status: ('A' for Active; 'I' for Inactive)
REMARK    1  A    between atoms: C_2  and  C_3
REMARK    2  A    between atoms: C_7  and  C_8
REMARK    3  A    between atoms: C_8  and  C_9
REMARK    4  A    between atoms: N_11  and  C_12
REMARK    5  A    between atoms: C_12  and  C_13
REMARK                            x       y       z     vdW  Elec       q    Type
REMARK                         _______ _______ _______ _____ _____    ______ ____
ROOT
ATOM      1  C   UNL     1      26.497  21.795  17.705  0.00  0.00    +0.217 C 
ATOM      2  O   UNL     1      25.721  21.802  16.746  0.00  0.00    -0.275 OA
ATOM      3  N   UNL     1      26.266  22.505  18.871  0.00  0.00    -0.315 N 
ATOM      4  H   UNL     1      26.789  22.203  19.684  0.00  0.00    +0.149 HD
ENDROOT
BRANCH   1   5
ATOM      5  C   UNL     1      27.778  20.996  17.660  0.00  0.00    +0.131 C 
BRANCH   5  10
ATOM      6  C   UNL     1      28.848  18.551  14.907  0.00  0.00    +0.052 A 
ATOM      7  C   UNL     1      27.848  17.577  15.011  0.00  0.00    +0.019 A 
ATOM      8  C   UNL     1      26.826  17.728  15.948  0.00  0.00    +0.002 A 
ATOM      9  C   UNL     1      26.796  18.850  16.779  0.00  0.00    +0.004 A 
ATOM     10  C   UNL     1      27.785  19.839  16.684  0.00  0.00    -0.037 A 
ATOM     11  C   UNL     1      28.817  19.674  15.745  0.00  0.00    +0.023 A 
BRANCH   6  13
ATOM     12  N   UNL     1      30.771  18.246  13.193  0.00  0.00    -0.191 NA
ATOM     13  C   UNL     1      29.909  18.385  13.957  0.00  0.00    +0.099 C 
ENDBRANCH   6  13
ENDBRANCH   5  10
ENDBRANCH   1   5
BRANCH   3  14
ATOM     14  C   UNL     1      24.927  23.014  19.109  0.00  0.00    +0.108 C 
BRANCH  14  15
ATOM     15  C   UNL     1      24.827  24.434  19.699  0.00  0.00    +0.011 C 
ATOM     16  C   UNL     1      23.952  24.516  20.946  0.00  0.00    +0.033 C 
ATOM     17  C   UNL     1      22.526  24.088  20.631  0.00  0.00    +0.161 C 
ATOM     18  O   UNL     1      21.984  24.712  19.470  0.00  0.00    -0.373 OA
ATOM     19  C   UNL     1      22.799  24.971  18.290  0.00  0.00    +0.070 C 
ATOM     20  C   UNL     1      22.759  23.931  17.116  0.00  0.00    +0.035 C 
ATOM     21  C   UNL     1      21.563  24.687  16.538  0.00  0.00    +0.006 C 
ATOM     22  C   UNL     1      22.063  25.932  17.295  0.00  0.00    +0.035 C 
ATOM     23  C   UNL     1      24.217  25.412  18.673  0.00  0.00    +0.040 C 
ENDBRANCH  14  15
ENDBRANCH   3  14
TORSDOF 5
ENDMDL
MODEL 2
REMARK VINA RESULT:      -7.6      1.226      2.436
REMARK  Name = ZINC000560333501
REMARK  5 active torsions:
REMARK  status: ('A' for Active; 'I' for Inactive)
REMARK    1  A    between atoms: C_2  and  C_3
REMARK    2  A    between atoms: C_7  and  C_8
REMARK    3  A    between atoms: C_8  and  C_9
REMARK    4  A    between atoms: N_11  and  C_12
REMARK    5  A    between atoms: C_12  and  C_13
REMARK                            x       y       z     vdW  Elec       q    Type
REMARK                         _______ _______ _______ _____ _____    ______ ____
ROOT
ATOM      1  C   UNL     1      26.780  21.902  17.721  0.00  0.00    +0.217 C 
ATOM      2  O   UNL     1      27.153  21.791  18.891  0.00  0.00    -0.275 OA
ATOM      3  N   UNL     1      25.514  22.336  17.368  0.00  0.00    -0.315 N 
ATOM      4  H   UNL     1      25.410  22.673  16.418  0.00  0.00    +0.149 HD
ENDROOT
BRANCH   1   5
ATOM      5  C   UNL     1      27.704  21.557  16.577  0.00  0.00    +0.131 C 
BRANCH   5  10
ATOM      6  C   UNL     1      28.675  18.201  14.996  0.00  0.00    +0.052 A 
ATOM      7  C   UNL     1      27.643  17.378  15.462  0.00  0.00    +0.019 A 
ATOM      8  C   UNL     1      26.633  17.914  16.260  0.00  0.00    +0.002 A 
ATOM      9  C   UNL     1      26.645  19.271  16.590  0.00  0.00    +0.004 A 
ATOM     10  C   UNL     1      27.666  20.112  16.126  0.00  0.00    -0.037 A 
ATOM     11  C   UNL     1      28.687  19.562  15.333  0.00  0.00    +0.023 A 
BRANCH   6  13
ATOM     12  N   UNL     1      30.574  17.201  13.539  0.00  0.00    -0.191 NA
ATOM     13  C   UNL     1      29.723  17.644  14.193  0.00  0.00    +0.099 C 
ENDBRANCH   6  13
ENDBRANCH   5  10
ENDBRANCH   1   5
BRANCH   3  14
ATOM     14  C   UNL     1      24.706  22.988  18.383  0.00  0.00    +0.108 C 
BRANCH  14  15
ATOM     15  C   UNL     1      23.294  23.432  17.955  0.00  0.00    +0.011 C 
ATOM     16  C   UNL     1      23.289  24.658  17.046  0.00  0.00    +0.033 C 
ATOM     17  C   UNL     1      23.913  25.852  17.751  0.00  0.00    +0.161 C 
ATOM     18  O   UNL     1      23.404  26.072  19.065  0.00  0.00    -0.373 OA
ATOM     19  C   UNL     1      23.077  24.965  19.954  0.00  0.00    +0.070 C 
ATOM     20  C   UNL     1      24.149  24.513  21.004  0.00  0.00    +0.035 C 
ATOM     21  C   UNL     1      23.579  25.548  21.975  0.00  0.00    +0.006 C 
ATOM     22  C   UNL     1      22.254  25.459  21.192  0.00  0.00    +0.035 C 
ATOM     23  C   UNL     1      22.439  23.800  19.186  0.00  0.00    +0.040 C 
ENDBRANCH  14  15
ENDBRANCH   3  14
TORSDOF 5
ENDMDL
MODEL 3
REMARK VINA RESULT:      -7.4      4.912      6.639
REMARK  Name = ZINC000560333501
REMARK  5 active torsions:
REMARK  status: ('A' for Active; 'I' for Inactive)
REMARK    1  A    between atoms: C_2  and  C_3
REMARK    2  A    between atoms: C_7  and  C_8
REMARK    3  A    between atoms: C_8  and  C_9
REMARK    4  A    between atoms: N_11  and  C_12
REMARK    5  A    between atoms: C_12  and  C_13
REMARK                            x       y       z     vdW  Elec       q    Type
REMARK                         _______ _______ _______ _____ _____    ______ ____
ROOT
ATOM      1  C   UNL     1      28.877  21.710  16.626  0.00  0.00    +0.217 C 
ATOM      2  O   UNL     1      28.544  21.136  17.667  0.00  0.00    -0.275 OA
ATOM      3  N   UNL     1      29.606  22.887  16.611  0.00  0.00    -0.315 N 
ATOM      4  H   UNL     1      30.074  23.106  15.740  0.00  0.00    +0.149 HD
ENDROOT
BRANCH   1   5
ATOM      5  C   UNL     1      28.494  21.152  15.276  0.00  0.00    +0.131 C 
BRANCH   5  10
ATOM      6  C   UNL     1      29.031  17.406  14.653  0.00  0.00    +0.052 A 
ATOM      7  C   UNL     1      27.933  16.863  15.330  0.00  0.00    +0.019 A 
ATOM      8  C   UNL     1      27.018  17.706  15.958  0.00  0.00    +0.002 A 
ATOM      9  C   UNL     1      27.191  19.091  15.911  0.00  0.00    +0.004 A 
ATOM     10  C   UNL     1      28.281  19.654  15.232  0.00  0.00    -0.037 A 
ATOM     11  C   UNL     1      29.205  18.797  14.610  0.00  0.00    +0.023 A 
BRANCH   6  13
ATOM     12  N   UNL     1      30.754  15.831  13.522  0.00  0.00    -0.191 NA
ATOM     13  C   UNL     1      29.982  16.538  14.024  0.00  0.00    +0.099 C 
ENDBRANCH   6  13
ENDBRANCH   5  10
ENDBRANCH   1   5
BRANCH   3  14
ATOM     14  C   UNL     1      30.279  23.292  17.832  0.00  0.00    +0.108 C 
BRANCH  14  15
ATOM     15  C   UNL     1      31.817  23.365  17.777  0.00  0.00    +0.011 C 
ATOM     16  C   UNL     1      32.476  22.056  17.352  0.00  0.00    +0.033 C 
ATOM     17  C   UNL     1      32.140  20.943  18.333  0.00  0.00    +0.161 C 
ATOM     18  O   UNL     1      32.338  21.303  19.698  0.00  0.00    -0.373 OA
ATOM     19  C   UNL     1      32.025  22.639  20.189  0.00  0.00    +0.070 C 
ATOM     20  C   UNL     1      30.631  22.874  20.867  0.00  0.00    +0.035 C 
ATOM     21  C   UNL     1      31.252  22.457  22.201  0.00  0.00    +0.006 C 
ATOM     22  C   UNL     1      32.619  22.868  21.621  0.00  0.00    +0.035 C 
ATOM     23  C   UNL     1      32.399  23.716  19.162  0.00  0.00    +0.040 C 
ENDBRANCH  14  15
ENDBRANCH   3  14
TORSDOF 5
ENDMDL
MODEL 4
REMARK VINA RESULT:      -7.3      5.084      8.833
REMARK  Name = ZINC000560333501
REMARK  5 active torsions:
REMARK  status: ('A' for Active; 'I' for Inactive)
REMARK    1  A    between atoms: C_2  and  C_3
REMARK    2  A    between atoms: C_7  and  C_8
REMARK    3  A    between atoms: C_8  and  C_9
REMARK    4  A    between atoms: N_11  and  C_12
REMARK    5  A    between atoms: C_12  and  C_13
REMARK                            x       y       z     vdW  Elec       q    Type
REMARK                         _______ _______ _______ _____ _____    ______ ____
ROOT
ATOM      1  C   UNL     1      31.320  19.419  13.923  0.00  0.00    +0.217 C 
ATOM      2  O   UNL     1      32.149  19.239  14.820  0.00  0.00    -0.275 OA
ATOM      3  N   UNL     1      31.262  20.577  13.168  0.00  0.00    -0.315 N 
ATOM      4  H   UNL     1      30.765  20.507  12.288  0.00  0.00    +0.149 HD
ENDROOT
BRANCH   1   5
ATOM      5  C   UNL     1      30.294  18.362  13.594  0.00  0.00    +0.131 C 
BRANCH   5  10
ATOM      6  C   UNL     1      27.436  19.302  15.972  0.00  0.00    +0.052 A 
ATOM      7  C   UNL     1      26.862  18.047  16.208  0.00  0.00    +0.019 A 
ATOM      8  C   UNL     1      27.412  16.909  15.620  0.00  0.00    +0.002 A 
ATOM      9  C   UNL     1      28.538  17.017  14.801  0.00  0.00    +0.004 A 
ATOM     10  C   UNL     1      29.132  18.264  14.559  0.00  0.00    -0.037 A 
ATOM     11  C   UNL     1      28.564  19.408  15.147  0.00  0.00    +0.023 A 
BRANCH   6  13
ATOM     12  N   UNL     1      26.384  21.423  17.032  0.00  0.00    -0.191 NA
ATOM     13  C   UNL     1      26.858  20.473  16.561  0.00  0.00    +0.099 C 
ENDBRANCH   6  13
ENDBRANCH   5  10
ENDBRANCH   1   5
BRANCH   3  14
ATOM     14  C   UNL     1      32.402  21.477  13.202  0.00  0.00    +0.108 C 
BRANCH  14  15
ATOM     15  C   UNL     1      33.244  21.568  11.916  0.00  0.00    +0.011 C 
ATOM     16  C   UNL     1      34.569  22.301  12.105  0.00  0.00    +0.033 C 
ATOM     17  C   UNL     1      34.330  23.734  12.557  0.00  0.00    +0.161 C 
ATOM     18  O   UNL     1      33.362  24.427  11.774  0.00  0.00    -0.373 OA
ATOM     19  C   UNL     1      32.171  23.761  11.264  0.00  0.00    +0.070 C 
ATOM     20  C   UNL     1      30.840  23.889  12.084  0.00  0.00    +0.035 C 
ATOM     21  C   UNL     1      30.533  25.173  11.313  0.00  0.00    +0.006 C 
ATOM     22  C   UNL     1      31.446  24.642  10.190  0.00  0.00    +0.035 C 
ATOM     23  C   UNL     1      32.479  22.328  10.812  0.00  0.00    +0.040 C 
ENDBRANCH  14  15
ENDBRANCH   3  14
TORSDOF 5
ENDMDL
MODEL 5
REMARK VINA RESULT:      -7.1      5.108      8.150
REMARK  Name = ZINC000560333501
REMARK  5 active torsions:
REMARK  status: ('A' for Active; 'I' for Inactive)
REMARK    1  A    between atoms: C_2  and  C_3
REMARK    2  A    between atoms: C_7  and  C_8
REMARK    3  A    between atoms: C_8  and  C_9
REMARK    4  A    between atoms: N_11  and  C_12
REMARK    5  A    between atoms: C_12  and  C_13
REMARK                            x       y       z     vdW  Elec       q    Type
REMARK                         _______ _______ _______ _____ _____    ______ ____
ROOT
ATOM      1  C   UNL     1      29.800  21.891  15.908  0.00  0.00    +0.217 C 
ATOM      2  O   UNL     1      30.582  21.609  16.820  0.00  0.00    -0.275 OA
ATOM      3  N   UNL     1      30.188  22.551  14.755  0.00  0.00    -0.315 N 
ATOM      4  H   UNL     1      29.560  22.466  13.965  0.00  0.00    +0.149 HD
ENDROOT
BRANCH   1   5
ATOM      5  C   UNL     1      28.337  21.527  16.003  0.00  0.00    +0.131 C 
BRANCH   5  10
ATOM      6  C   UNL     1      28.629  17.838  15.001  0.00  0.00    +0.052 A 
ATOM      7  C   UNL     1      27.466  17.312  15.578  0.00  0.00    +0.019 A 
ATOM      8  C   UNL     1      26.589  18.152  16.261  0.00  0.00    +0.002 A 
ATOM      9  C   UNL     1      26.864  19.517  16.368  0.00  0.00    +0.004 A 
ATOM     10  C   UNL     1      28.019  20.063  15.791  0.00  0.00    -0.037 A 
ATOM     11  C   UNL     1      28.904  19.207  15.113  0.00  0.00    +0.023 A 
BRANCH   6  13
ATOM     12  N   UNL     1      30.276  16.270  13.753  0.00  0.00    -0.191 NA
ATOM     13  C   UNL     1      29.540  16.969  14.316  0.00  0.00    +0.099 C 
ENDBRANCH   6  13
ENDBRANCH   5  10
ENDBRANCH   1   5
BRANCH   3  14
ATOM     14  C   UNL     1      31.606  22.631  14.455  0.00  0.00    +0.108 C 
BRANCH  14  15
ATOM     15  C   UNL     1      32.167  21.565  13.496  0.00  0.00    +0.011 C 
ATOM     16  C   UNL     1      33.687  21.441  13.543  0.00  0.00    +0.033 C 
ATOM     17  C   UNL     1      34.346  22.754  13.147  0.00  0.00    +0.161 C 
ATOM     18  O   UNL     1      33.822  23.318  11.947  0.00  0.00    -0.373 OA
ATOM     19  C   UNL     1      32.403  23.247  11.624  0.00  0.00    +0.070 C 
ATOM     20  C   UNL     1      31.496  24.474  11.986  0.00  0.00    +0.035 C 
ATOM     21  C   UNL     1      31.843  25.082  10.626  0.00  0.00    +0.006 C 
ATOM     22  C   UNL     1      32.141  23.653  10.134  0.00  0.00    +0.035 C 
ATOM     23  C   UNL     1      31.802  21.897  12.034  0.00  0.00    +0.040 C 
ENDBRANCH  14  15
ENDBRANCH   3  14
TORSDOF 5
ENDMDL
MODEL 6
REMARK VINA RESULT:      -7.1      4.492     10.943
REMARK  Name = ZINC000560333501
REMARK  5 active torsions:
REMARK  status: ('A' for Active; 'I' for Inactive)
REMARK    1  A    between atoms: C_2  and  C_3
REMARK    2  A    between atoms: C_7  and  C_8
REMARK    3  A    between atoms: C_8  and  C_9
REMARK    4  A    between atoms: N_11  and  C_12
REMARK    5  A    between atoms: C_12  and  C_13
REMARK                            x       y       z     vdW  Elec       q    Type
REMARK                         _______ _______ _______ _____ _____    ______ ____
ROOT
ATOM      1  C   UNL     1      30.920  19.004  13.906  0.00  0.00    +0.217 C 
ATOM      2  O   UNL     1      31.735  18.928  14.830  0.00  0.00    -0.275 OA
ATOM      3  N   UNL     1      31.015  18.250  12.749  0.00  0.00    -0.315 N 
ATOM      4  H   UNL     1      30.164  18.164  12.206  0.00  0.00    +0.149 HD
ENDROOT
BRANCH   1   5
ATOM      5  C   UNL     1      29.747  19.952  13.984  0.00  0.00    +0.131 C 
BRANCH   5  10
ATOM      6  C   UNL     1      26.922  20.143  16.570  0.00  0.00    +0.052 A 
ATOM      7  C   UNL     1      26.532  18.800  16.639  0.00  0.00    +0.019 A 
ATOM      8  C   UNL     1      27.196  17.843  15.872  0.00  0.00    +0.002 A 
ATOM      9  C   UNL     1      28.252  18.221  15.040  0.00  0.00    +0.004 A 
ATOM     10  C   UNL     1      28.661  19.559  14.964  0.00  0.00    -0.037 A 
ATOM     11  C   UNL     1      27.980  20.519  15.731  0.00  0.00    +0.023 A 
BRANCH   6  13
ATOM     12  N   UNL     1      25.666  21.932  17.966  0.00  0.00    -0.191 NA
ATOM     13  C   UNL     1      26.225  21.128  17.343  0.00  0.00    +0.099 C 
ENDBRANCH   6  13
ENDBRANCH   5  10
ENDBRANCH   1   5
BRANCH   3  14
ATOM     14  C   UNL     1      31.907  17.105  12.749  0.00  0.00    +0.108 C 
BRANCH  14  15
ATOM     15  C   UNL     1      31.370  15.816  13.400  0.00  0.00    +0.011 C 
ATOM     16  C   UNL     1      32.108  15.425  14.677  0.00  0.00    +0.033 C 
ATOM     17  C   UNL     1      33.581  15.172  14.390  0.00  0.00    +0.161 C 
ATOM     18  O   UNL     1      33.807  14.315  13.273  0.00  0.00    -0.373 OA
ATOM     19  C   UNL     1      32.974  14.376  12.080  0.00  0.00    +0.070 C 
ATOM     20  C   UNL     1      33.476  15.233  10.866  0.00  0.00    +0.035 C 
ATOM     21  C   UNL     1      34.228  14.003  10.358  0.00  0.00    +0.006 C 
ATOM     22  C   UNL     1      33.226  13.141  11.150  0.00  0.00    +0.035 C 
ATOM     23  C   UNL     1      31.502  14.618  12.436  0.00  0.00    +0.040 C 
ENDBRANCH  14  15
ENDBRANCH   3  14
TORSDOF 5
ENDMDL
MODEL 7
REMARK VINA RESULT:      -7.1      5.946      8.935
REMARK  Name = ZINC000560333501
REMARK  5 active torsions:
REMARK  status: ('A' for Active; 'I' for Inactive)
REMARK    1  A    between atoms: C_2  and  C_3
REMARK    2  A    between atoms: C_7  and  C_8
REMARK    3  A    between atoms: C_8  and  C_9
REMARK    4  A    between atoms: N_11  and  C_12
REMARK    5  A    between atoms: C_12  and  C_13
REMARK                            x       y       z     vdW  Elec       q    Type
REMARK                         _______ _______ _______ _____ _____    ______ ____
ROOT
ATOM      1  C   UNL     1      30.225  21.383  14.225  0.00  0.00    +0.217 C 
ATOM      2  O   UNL     1      31.308  20.995  14.672  0.00  0.00    -0.275 OA
ATOM      3  N   UNL     1      30.110  22.154  13.081  0.00  0.00    -0.315 N 
ATOM      4  H   UNL     1      29.198  22.163  12.643  0.00  0.00    +0.149 HD
ENDROOT
BRANCH   1   5
ATOM      5  C   UNL     1      28.931  21.035  14.921  0.00  0.00    +0.131 C 
BRANCH   5  10
ATOM      6  C   UNL     1      29.104  17.237  14.422  0.00  0.00    +0.052 A 
ATOM      7  C   UNL     1      28.037  16.814  15.223  0.00  0.00    +0.019 A 
ATOM      8  C   UNL     1      27.258  17.753  15.896  0.00  0.00    +0.002 A 
ATOM      9  C   UNL     1      27.536  19.116  15.769  0.00  0.00    +0.004 A 
ATOM     10  C   UNL     1      28.596  19.559  14.965  0.00  0.00    -0.037 A 
ATOM     11  C   UNL     1      29.383  18.605  14.299  0.00  0.00    +0.023 A 
BRANCH   6  13
ATOM     12  N   UNL     1      30.580  15.491  13.196  0.00  0.00    -0.191 NA
ATOM     13  C   UNL     1      29.917  16.269  13.746  0.00  0.00    +0.099 C 
ENDBRANCH   6  13
ENDBRANCH   5  10
ENDBRANCH   1   5
BRANCH   3  14
ATOM     14  C   UNL     1      31.259  22.243  12.197  0.00  0.00    +0.108 C 
BRANCH  14  15
ATOM     15  C   UNL     1      32.147  23.492  12.348  0.00  0.00    +0.011 C 
ATOM     16  C   UNL     1      31.428  24.796  12.014  0.00  0.00    +0.033 C 
ATOM     17  C   UNL     1      30.949  24.790  10.570  0.00  0.00    +0.161 C 
ATOM     18  O   UNL     1      31.951  24.395   9.636  0.00  0.00    -0.373 OA
ATOM     19  C   UNL     1      32.913  23.346   9.944  0.00  0.00    +0.070 C 
ATOM     20  C   UNL     1      32.609  21.889   9.447  0.00  0.00    +0.035 C 
ATOM     21  C   UNL     1      33.307  22.234   8.131  0.00  0.00    +0.006 C 
ATOM     22  C   UNL     1      34.080  23.324   8.898  0.00  0.00    +0.035 C 
ATOM     23  C   UNL     1      33.368  23.414  11.407  0.00  0.00    +0.040 C 
ENDBRANCH  14  15
ENDBRANCH   3  14
TORSDOF 5
ENDMDL
MODEL 8
REMARK VINA RESULT:      -7.1      4.179      7.273
REMARK  Name = ZINC000560333501
REMARK  5 active torsions:
REMARK  status: ('A' for Active; 'I' for Inactive)
REMARK    1  A    between atoms: C_2  and  C_3
REMARK    2  A    between atoms: C_7  and  C_8
REMARK    3  A    between atoms: C_8  and  C_9
REMARK    4  A    between atoms: N_11  and  C_12
REMARK    5  A    between atoms: C_12  and  C_13
REMARK                            x       y       z     vdW  Elec       q    Type
REMARK                         _______ _______ _______ _____ _____    ______ ____
ROOT
ATOM      1  C   UNL     1      30.870  20.614  14.623  0.00  0.00    +0.217 C 
ATOM      2  O   UNL     1      30.921  21.742  14.126  0.00  0.00    -0.275 OA
ATOM      3  N   UNL     1      31.693  20.206  15.659  0.00  0.00    -0.315 N 
ATOM      4  H   UNL     1      31.378  19.398  16.182  0.00  0.00    +0.149 HD
ENDROOT
BRANCH   1   5
ATOM      5  C   UNL     1      29.887  19.587  14.115  0.00  0.00    +0.131 C 
BRANCH   5  10
ATOM      6  C   UNL     1      26.934  20.045  16.517  0.00  0.00    +0.052 A 
ATOM      7  C   UNL     1      26.443  18.736  16.590  0.00  0.00    +0.019 A 
ATOM      8  C   UNL     1      27.080  17.715  15.886  0.00  0.00    +0.002 A 
ATOM      9  C   UNL     1      28.209  17.994  15.113  0.00  0.00    +0.004 A 
ATOM     10  C   UNL     1      28.719  19.298  15.033  0.00  0.00    -0.037 A 
ATOM     11  C   UNL     1      28.065  20.323  15.737  0.00  0.00    +0.023 A 
BRANCH   6  13
ATOM     12  N   UNL     1      25.725  21.945  17.805  0.00  0.00    -0.191 NA
ATOM     13  C   UNL     1      26.266  21.097  17.225  0.00  0.00    +0.099 C 
ENDBRANCH   6  13
ENDBRANCH   5  10
ENDBRANCH   1   5
BRANCH   3  14
ATOM     14  C   UNL     1      32.414  21.223  16.403  0.00  0.00    +0.108 C 
BRANCH  14  15
ATOM     15  C   UNL     1      32.119  21.308  17.912  0.00  0.00    +0.011 C 
ATOM     16  C   UNL     1      30.656  21.600  18.233  0.00  0.00    +0.033 C 
ATOM     17  C   UNL     1      30.234  22.937  17.644  0.00  0.00    +0.161 C 
ATOM     18  O   UNL     1      31.140  24.001  17.930  0.00  0.00    -0.373 OA
ATOM     19  C   UNL     1      32.582  23.793  17.952  0.00  0.00    +0.070 C 
ATOM     20  C   UNL     1      33.401  24.133  16.659  0.00  0.00    +0.035 C 
ATOM     21  C   UNL     1      33.534  25.568  17.168  0.00  0.00    +0.006 C 
ATOM     22  C   UNL     1      33.320  25.018  18.590  0.00  0.00    +0.035 C 
ATOM     23  C   UNL     1      32.943  22.436  18.569  0.00  0.00    +0.040 C 
ENDBRANCH  14  15
ENDBRANCH   3  14
TORSDOF 5
ENDMDL
MODEL 9
REMARK VINA RESULT:      -7.1      2.120      2.944
REMARK  Name = ZINC000560333501
REMARK  5 active torsions:
REMARK  status: ('A' for Active; 'I' for Inactive)
REMARK    1  A    between atoms: C_2  and  C_3
REMARK    2  A    between atoms: C_7  and  C_8
REMARK    3  A    between atoms: C_8  and  C_9
REMARK    4  A    between atoms: N_11  and  C_12
REMARK    5  A    between atoms: C_12  and  C_13
REMARK                            x       y       z     vdW  Elec       q    Type
REMARK                         _______ _______ _______ _____ _____    ______ ____
ROOT
ATOM      1  C   UNL     1      25.945  21.556  17.563  0.00  0.00    +0.217 C 
ATOM      2  O   UNL     1      25.377  22.141  16.637  0.00  0.00    -0.275 OA
ATOM      3  N   UNL     1      25.733  21.863  18.896  0.00  0.00    -0.315 N 
ATOM      4  H   UNL     1      26.002  21.150  19.562  0.00  0.00    +0.149 HD
ENDROOT
BRANCH   1   5
ATOM      5  C   UNL     1      26.932  20.446  17.288  0.00  0.00    +0.131 C 
BRANCH   5  10
ATOM      6  C   UNL     1      30.314  22.247  17.138  0.00  0.00    +0.052 A 
ATOM      7  C   UNL     1      30.926  21.577  16.073  0.00  0.00    +0.019 A 
ATOM      8  C   UNL     1      30.238  20.569  15.398  0.00  0.00    +0.002 A 
ATOM      9  C   UNL     1      28.938  20.231  15.779  0.00  0.00    +0.004 A 
ATOM     10  C   UNL     1      28.305  20.897  16.839  0.00  0.00    -0.037 A 
ATOM     11  C   UNL     1      29.010  21.903  17.521  0.00  0.00    +0.023 A 
BRANCH   6  13
ATOM     12  N   UNL     1      31.610  24.102  18.408  0.00  0.00    -0.191 NA
ATOM     13  C   UNL     1      31.029  23.269  17.844  0.00  0.00    +0.099 C 
ENDBRANCH   6  13
ENDBRANCH   5  10
ENDBRANCH   1   5
BRANCH   3  14
ATOM     14  C   UNL     1      24.576  22.671  19.237  0.00  0.00    +0.108 C 
BRANCH  14  15
ATOM     15  C   UNL     1      24.857  24.117  19.689  0.00  0.00    +0.011 C 
ATOM     16  C   UNL     1      24.176  24.488  21.003  0.00  0.00    +0.033 C 
ATOM     17  C   UNL     1      22.664  24.371  20.876  0.00  0.00    +0.161 C 
ATOM     18  O   UNL     1      22.135  25.012  19.719  0.00  0.00    -0.373 OA
ATOM     19  C   UNL     1      22.838  24.991  18.443  0.00  0.00    +0.070 C 
ATOM     20  C   UNL     1      22.435  23.902  17.390  0.00  0.00    +0.035 C 
ATOM     21  C   UNL     1      21.370  24.863  16.861  0.00  0.00    +0.006 C 
ATOM     22  C   UNL     1      22.214  26.016  17.436  0.00  0.00    +0.035 C 
ATOM     23  C   UNL     1      24.354  25.128  18.637  0.00  0.00    +0.040 C 
ENDBRANCH  14  15
ENDBRANCH   3  14
TORSDOF 5
ENDMDL
