MODEL 1
REMARK VINA RESULT:      -6.7      0.000      0.000
REMARK  Name = ZINC000543478179
REMARK  8 active torsions:
REMARK  status: ('A' for Active; 'I' for Inactive)
REMARK    1  A    between atoms: C_1  and  C_2
REMARK    2  A    between atoms: C_2  and  N_3
REMARK    3  A    between atoms: N_9  and  C_10
REMARK    4  A    between atoms: C_10  and  C_11
REMARK    5  A    between atoms: C_10  and  C_12
REMARK    6  A    between atoms: C_15  and  O_16
REMARK    7  A    between atoms: O_16  and  C_17
REMARK    8  A    between atoms: C_17  and  C_18
REMARK                            x       y       z     vdW  Elec       q    Type
REMARK                         _______ _______ _______ _____ _____    ______ ____
ROOT
ATOM      1  C   UNL     1      30.244  21.816  14.601  0.00  0.00    +0.102 C 
ATOM      2  C   UNL     1      30.451  20.309  14.395  0.00  0.00    +0.033 C 
ENDROOT
BRANCH   1   9
ATOM      3  N   UNL     1      31.676  23.350  20.639  0.00  0.00    -0.299 N 
ATOM      4  C   UNL     1      30.330  22.801  20.468  0.00  0.00    +0.127 C 
ATOM      5  C   UNL     1      29.612  23.412  19.261  0.00  0.00    +0.129 C 
ATOM      6  N   UNL     1      30.401  23.166  18.057  0.00  0.00    -0.275 N 
ATOM      7  C   UNL     1      29.809  22.582  16.946  0.00  0.00    +0.303 C 
ATOM      8  O   UNL     1      28.622  22.289  16.897  0.00  0.00    -0.253 OA
ATOM      9  N   UNL     1      30.671  22.322  15.909  0.00  0.00    -0.293 N 
ATOM     10  C   UNL     1      31.808  23.559  18.154  0.00  0.00    +0.205 C 
ATOM     11  C   UNL     1      32.382  23.857  19.551  0.00  0.00    +0.233 C 
ATOM     12  O   UNL     1      33.484  24.395  19.670  0.00  0.00    -0.274 OA
ATOM     13  H   UNL     1      31.455  22.948  15.856  0.00  0.00    +0.151 HD
BRANCH   3  15
ATOM     14  C   UNL     1      31.791  21.879  22.620  0.00  0.00    +0.024 C 
ATOM     15  C   UNL     1      32.413  23.046  21.865  0.00  0.00    +0.104 C 
ENDBRANCH   3  15
ENDBRANCH   1   9
BRANCH   1  16
ATOM     16  C   UNL     1      31.011  22.590  13.535  0.00  0.00    -0.024 A 
ATOM     17  C   UNL     1      32.182  22.039  12.981  0.00  0.00    +0.009 A 
ATOM     18  C   UNL     1      32.954  22.753  12.069  0.00  0.00    +0.049 A 
ATOM     19  C   UNL     1      32.600  24.056  11.722  0.00  0.00    +0.156 A 
ATOM     20  C   UNL     1      31.405  24.587  12.216  0.00  0.00    +0.165 A 
ATOM     21  F   UNL     1      31.014  25.821  11.862  0.00  0.00    -0.202 F 
ATOM     22  C   UNL     1      30.614  23.868  13.118  0.00  0.00    +0.047 A 
BRANCH  19  23
ATOM     23  O   UNL     1      33.374  24.866  10.934  0.00  0.00    -0.489 OA
BRANCH  23  24
ATOM     24  C   UNL     1      33.746  24.288   9.678  0.00  0.00    +0.232 C 
BRANCH  24  25
ATOM     25  C   UNL     1      32.512  24.032   8.877  0.00  0.00    +0.027 C 
ATOM     26  C   UNL     1      32.392  22.781   8.046  0.00  0.00    +0.007 C 
ATOM     27  C   UNL     1      32.538  24.118   7.370  0.00  0.00    +0.007 C 
ENDBRANCH  24  25
ENDBRANCH  23  24
ENDBRANCH  19  23
ENDBRANCH   1  16
TORSDOF 6
ENDMDL
MODEL 2
REMARK VINA RESULT:      -6.6      1.105      1.450
REMARK  Name = ZINC000543478179
REMARK  8 active torsions:
REMARK  status: ('A' for Active; 'I' for Inactive)
REMARK    1  A    between atoms: C_1  and  C_2
REMARK    2  A    between atoms: C_2  and  N_3
REMARK    3  A    between atoms: N_9  and  C_10
REMARK    4  A    between atoms: C_10  and  C_11
REMARK    5  A    between atoms: C_10  and  C_12
REMARK    6  A    between atoms: C_15  and  O_16
REMARK    7  A    between atoms: O_16  and  C_17
REMARK    8  A    between atoms: C_17  and  C_18
REMARK                            x       y       z     vdW  Elec       q    Type
REMARK                         _______ _______ _______ _____ _____    ______ ____
ROOT
ATOM      1  C   UNL     1      30.253  22.611  14.345  0.00  0.00    +0.102 C 
ATOM      2  C   UNL     1      30.249  21.121  13.975  0.00  0.00    +0.033 C 
ENDROOT
BRANCH   1   9
ATOM      3  N   UNL     1      31.819  23.124  20.521  0.00  0.00    -0.299 N 
ATOM      4  C   UNL     1      30.520  22.492  20.288  0.00  0.00    +0.127 C 
ATOM      5  C   UNL     1      29.697  23.246  19.239  0.00  0.00    +0.129 C 
ATOM      6  N   UNL     1      30.449  23.304  17.989  0.00  0.00    -0.275 N 
ATOM      7  C   UNL     1      29.860  22.883  16.804  0.00  0.00    +0.303 C 
ATOM      8  O   UNL     1      28.702  22.494  16.734  0.00  0.00    -0.253 OA
ATOM      9  N   UNL     1      30.693  22.902  15.712  0.00  0.00    -0.293 N 
ATOM     10  C   UNL     1      31.819  23.803  18.118  0.00  0.00    +0.205 C 
ATOM     11  C   UNL     1      32.428  23.888  19.530  0.00  0.00    +0.233 C 
ATOM     12  O   UNL     1      33.483  24.496  19.716  0.00  0.00    -0.274 OA
ATOM     13  H   UNL     1      31.417  23.599  15.756  0.00  0.00    +0.151 HD
BRANCH   3  15
ATOM     14  C   UNL     1      31.824  21.830  22.626  0.00  0.00    +0.024 C 
ATOM     15  C   UNL     1      32.634  22.668  21.646  0.00  0.00    +0.104 C 
ENDBRANCH   3  15
ENDBRANCH   1   9
BRANCH   1  16
ATOM     16  C   UNL     1      31.167  23.374  13.394  0.00  0.00    -0.024 A 
ATOM     17  C   UNL     1      30.615  24.308  12.496  0.00  0.00    +0.009 A 
ATOM     18  C   UNL     1      31.407  24.960  11.556  0.00  0.00    +0.049 A 
ATOM     19  C   UNL     1      32.765  24.661  11.457  0.00  0.00    +0.156 A 
ATOM     20  C   UNL     1      33.335  23.785  12.386  0.00  0.00    +0.165 A 
ATOM     21  F   UNL     1      34.647  23.514  12.346  0.00  0.00    -0.202 F 
ATOM     22  C   UNL     1      32.548  23.140  13.346  0.00  0.00    +0.047 A 
BRANCH  19  23
ATOM     23  O   UNL     1      33.582  25.163  10.478  0.00  0.00    -0.489 OA
BRANCH  23  24
ATOM     24  C   UNL     1      33.139  24.897   9.144  0.00  0.00    +0.232 C 
BRANCH  24  25
ATOM     25  C   UNL     1      33.514  23.499   8.778  0.00  0.00    +0.027 C 
ATOM     26  C   UNL     1      33.799  23.140   7.343  0.00  0.00    +0.007 C 
ATOM     27  C   UNL     1      32.557  22.618   8.013  0.00  0.00    +0.007 C 
ENDBRANCH  24  25
ENDBRANCH  23  24
ENDBRANCH  19  23
ENDBRANCH   1  16
TORSDOF 6
ENDMDL
MODEL 3
REMARK VINA RESULT:      -6.3      3.923      5.959
REMARK  Name = ZINC000543478179
REMARK  8 active torsions:
REMARK  status: ('A' for Active; 'I' for Inactive)
REMARK    1  A    between atoms: C_1  and  C_2
REMARK    2  A    between atoms: C_2  and  N_3
REMARK    3  A    between atoms: N_9  and  C_10
REMARK    4  A    between atoms: C_10  and  C_11
REMARK    5  A    between atoms: C_10  and  C_12
REMARK    6  A    between atoms: C_15  and  O_16
REMARK    7  A    between atoms: O_16  and  C_17
REMARK    8  A    between atoms: C_17  and  C_18
REMARK                            x       y       z     vdW  Elec       q    Type
REMARK                         _______ _______ _______ _____ _____    ______ ____
ROOT
ATOM      1  C   UNL     1      33.070  22.856  16.150  0.00  0.00    +0.102 C 
ATOM      2  C   UNL     1      33.537  23.952  15.183  0.00  0.00    +0.033 C 
ENDROOT
BRANCH   1   9
ATOM      3  N   UNL     1      34.882  23.682  22.225  0.00  0.00    -0.299 N 
ATOM      4  C   UNL     1      35.259  22.384  21.663  0.00  0.00    +0.127 C 
ATOM      5  C   UNL     1      34.110  21.745  20.878  0.00  0.00    +0.129 C 
ATOM      6  N   UNL     1      33.701  22.647  19.804  0.00  0.00    -0.275 N 
ATOM      7  C   UNL     1      33.625  22.182  18.499  0.00  0.00    +0.303 C 
ATOM      8  O   UNL     1      33.846  21.019  18.188  0.00  0.00    -0.253 OA
ATOM      9  N   UNL     1      33.315  23.142  17.567  0.00  0.00    -0.293 N 
ATOM     10  C   UNL     1      33.419  24.019  20.228  0.00  0.00    +0.205 C 
ATOM     11  C   UNL     1      33.889  24.455  21.629  0.00  0.00    +0.233 C 
ATOM     12  O   UNL     1      33.493  25.515  22.116  0.00  0.00    -0.274 OA
ATOM     13  H   UNL     1      32.754  23.898  17.922  0.00  0.00    +0.151 HD
BRANCH   3  15
ATOM     14  C   UNL     1      36.988  24.944  22.499  0.00  0.00    +0.024 C 
ATOM     15  C   UNL     1      35.778  24.323  23.186  0.00  0.00    +0.104 C 
ENDBRANCH   3  15
ENDBRANCH   1   9
BRANCH   1  16
ATOM     16  C   UNL     1      31.574  22.623  15.979  0.00  0.00    -0.024 A 
ATOM     17  C   UNL     1      30.694  22.944  17.030  0.00  0.00    +0.009 A 
ATOM     18  C   UNL     1      29.333  22.667  16.942  0.00  0.00    +0.049 A 
ATOM     19  C   UNL     1      28.823  22.018  15.818  0.00  0.00    +0.156 A 
ATOM     20  C   UNL     1      29.676  21.755  14.743  0.00  0.00    +0.165 A 
ATOM     21  F   UNL     1      29.204  21.175  13.629  0.00  0.00    -0.202 F 
ATOM     22  C   UNL     1      31.042  22.049  14.817  0.00  0.00    +0.047 A 
BRANCH  19  23
ATOM     23  O   UNL     1      27.523  21.598  15.712  0.00  0.00    -0.489 OA
BRANCH  23  24
ATOM     24  C   UNL     1      27.092  20.733  16.767  0.00  0.00    +0.232 C 
BRANCH  24  25
ATOM     25  C   UNL     1      26.829  19.375  16.205  0.00  0.00    +0.027 C 
ATOM     26  C   UNL     1      27.295  18.145  16.940  0.00  0.00    +0.007 C 
ATOM     27  C   UNL     1      27.955  18.539  15.646  0.00  0.00    +0.007 C 
ENDBRANCH  24  25
ENDBRANCH  23  24
ENDBRANCH  19  23
ENDBRANCH   1  16
TORSDOF 6
ENDMDL
MODEL 4
REMARK VINA RESULT:      -6.2      3.751      8.456
REMARK  Name = ZINC000543478179
REMARK  8 active torsions:
REMARK  status: ('A' for Active; 'I' for Inactive)
REMARK    1  A    between atoms: C_1  and  C_2
REMARK    2  A    between atoms: C_2  and  N_3
REMARK    3  A    between atoms: N_9  and  C_10
REMARK    4  A    between atoms: C_10  and  C_11
REMARK    5  A    between atoms: C_10  and  C_12
REMARK    6  A    between atoms: C_15  and  O_16
REMARK    7  A    between atoms: O_16  and  C_17
REMARK    8  A    between atoms: C_17  and  C_18
REMARK                            x       y       z     vdW  Elec       q    Type
REMARK                         _______ _______ _______ _____ _____    ______ ____
ROOT
ATOM      1  C   UNL     1      30.348  22.195  14.707  0.00  0.00    +0.102 C 
ATOM      2  C   UNL     1      30.672  23.203  13.595  0.00  0.00    +0.033 C 
ENDROOT
BRANCH   1   9
ATOM      3  N   UNL     1      32.435  16.314  13.317  0.00  0.00    -0.299 N 
ATOM      4  C   UNL     1      30.985  16.474  13.197  0.00  0.00    +0.127 C 
ATOM      5  C   UNL     1      30.394  17.239  14.386  0.00  0.00    +0.129 C 
ATOM      6  N   UNL     1      31.029  18.551  14.478  0.00  0.00    -0.275 N 
ATOM      7  C   UNL     1      30.248  19.697  14.538  0.00  0.00    +0.303 C 
ATOM      8  O   UNL     1      29.025  19.673  14.562  0.00  0.00    -0.253 OA
ATOM      9  N   UNL     1      30.958  20.874  14.533  0.00  0.00    -0.293 N 
ATOM     10  C   UNL     1      32.492  18.527  14.475  0.00  0.00    +0.205 C 
ATOM     11  C   UNL     1      33.194  17.224  14.049  0.00  0.00    +0.233 C 
ATOM     12  O   UNL     1      34.403  17.079  14.234  0.00  0.00    -0.274 OA
ATOM     13  H   UNL     1      31.876  20.804  14.936  0.00  0.00    +0.151 HD
BRANCH   3  15
ATOM     14  C   UNL     1      33.226  16.024  10.995  0.00  0.00    +0.024 C 
ATOM     15  C   UNL     1      33.125  15.420  12.390  0.00  0.00    +0.104 C 
ENDBRANCH   3  15
ENDBRANCH   1   9
BRANCH   1  16
ATOM     16  C   UNL     1      30.813  22.745  16.050  0.00  0.00    -0.024 A 
ATOM     17  C   UNL     1      32.189  22.909  16.296  0.00  0.00    +0.009 A 
ATOM     18  C   UNL     1      32.654  23.328  17.539  0.00  0.00    +0.049 A 
ATOM     19  C   UNL     1      31.758  23.548  18.584  0.00  0.00    +0.156 A 
ATOM     20  C   UNL     1      30.387  23.451  18.331  0.00  0.00    +0.165 A 
ATOM     21  F   UNL     1      29.498  23.703  19.304  0.00  0.00    -0.202 F 
ATOM     22  C   UNL     1      29.911  23.049  17.078  0.00  0.00    +0.047 A 
BRANCH  19  23
ATOM     23  O   UNL     1      32.146  23.836  19.866  0.00  0.00    -0.489 OA
BRANCH  23  24
ATOM     24  C   UNL     1      33.065  22.897  20.432  0.00  0.00    +0.232 C 
BRANCH  24  25
ATOM     25  C   UNL     1      32.295  21.836  21.148  0.00  0.00    +0.027 C 
ATOM     26  C   UNL     1      31.105  22.203  21.995  0.00  0.00    +0.007 C 
ATOM     27  C   UNL     1      32.367  21.712  22.650  0.00  0.00    +0.007 C 
ENDBRANCH  24  25
ENDBRANCH  23  24
ENDBRANCH  19  23
ENDBRANCH   1  16
TORSDOF 6
ENDMDL
MODEL 5
REMARK VINA RESULT:      -6.2      4.903      8.990
REMARK  Name = ZINC000543478179
REMARK  8 active torsions:
REMARK  status: ('A' for Active; 'I' for Inactive)
REMARK    1  A    between atoms: C_1  and  C_2
REMARK    2  A    between atoms: C_2  and  N_3
REMARK    3  A    between atoms: N_9  and  C_10
REMARK    4  A    between atoms: C_10  and  C_11
REMARK    5  A    between atoms: C_10  and  C_12
REMARK    6  A    between atoms: C_15  and  O_16
REMARK    7  A    between atoms: O_16  and  C_17
REMARK    8  A    between atoms: C_17  and  C_18
REMARK                            x       y       z     vdW  Elec       q    Type
REMARK                         _______ _______ _______ _____ _____    ______ ____
ROOT
ATOM      1  C   UNL     1      29.486  16.805  14.319  0.00  0.00    +0.102 C 
ATOM      2  C   UNL     1      28.577  16.145  13.274  0.00  0.00    +0.033 C 
ENDROOT
BRANCH   1   9
ATOM      3  N   UNL     1      34.955  18.324  11.376  0.00  0.00    -0.299 N 
ATOM      4  C   UNL     1      34.212  17.243  10.729  0.00  0.00    +0.127 C 
ATOM      5  C   UNL     1      33.691  16.219  11.742  0.00  0.00    +0.129 C 
ATOM      6  N   UNL     1      32.834  16.895  12.712  0.00  0.00    -0.275 N 
ATOM      7  C   UNL     1      31.556  16.415  12.961  0.00  0.00    +0.303 C 
ATOM      8  O   UNL     1      31.105  15.406  12.435  0.00  0.00    -0.253 OA
ATOM      9  N   UNL     1      30.814  17.183  13.825  0.00  0.00    -0.293 N 
ATOM     10  C   UNL     1      33.426  18.079  13.337  0.00  0.00    +0.205 C 
ATOM     11  C   UNL     1      34.694  18.676  12.699  0.00  0.00    +0.233 C 
ATOM     12  O   UNL     1      35.351  19.528  13.299  0.00  0.00    -0.274 OA
ATOM     13  H   UNL     1      31.360  17.689  14.501  0.00  0.00    +0.151 HD
BRANCH   3  15
ATOM     14  C   UNL     1      34.801  20.003   9.571  0.00  0.00    +0.024 C 
ATOM     15  C   UNL     1      35.708  19.261  10.544  0.00  0.00    +0.104 C 
ENDBRANCH   3  15
ENDBRANCH   1   9
BRANCH   1  16
ATOM     16  C   UNL     1      28.819  18.066  14.857  0.00  0.00    -0.024 A 
ATOM     17  C   UNL     1      29.339  19.329  14.516  0.00  0.00    +0.009 A 
ATOM     18  C   UNL     1      28.809  20.497  15.056  0.00  0.00    +0.049 A 
ATOM     19  C   UNL     1      27.774  20.429  15.989  0.00  0.00    +0.156 A 
ATOM     20  C   UNL     1      27.208  19.186  16.283  0.00  0.00    +0.165 A 
ATOM     21  F   UNL     1      26.180  19.094  17.140  0.00  0.00    -0.202 F 
ATOM     22  C   UNL     1      27.724  18.009  15.729  0.00  0.00    +0.047 A 
BRANCH  19  23
ATOM     23  O   UNL     1      27.286  21.521  16.658  0.00  0.00    -0.489 OA
BRANCH  23  24
ATOM     24  C   UNL     1      28.267  22.520  16.954  0.00  0.00    +0.232 C 
BRANCH  24  25
ATOM     25  C   UNL     1      28.862  22.234  18.294  0.00  0.00    +0.027 C 
ATOM     26  C   UNL     1      28.754  23.247  19.404  0.00  0.00    +0.007 C 
ATOM     27  C   UNL     1      30.090  22.974  18.767  0.00  0.00    +0.007 C 
ENDBRANCH  24  25
ENDBRANCH  23  24
ENDBRANCH  19  23
ENDBRANCH   1  16
TORSDOF 6
ENDMDL
MODEL 6
REMARK VINA RESULT:      -6.1      8.277     11.000
REMARK  Name = ZINC000543478179
REMARK  8 active torsions:
REMARK  status: ('A' for Active; 'I' for Inactive)
REMARK    1  A    between atoms: C_1  and  C_2
REMARK    2  A    between atoms: C_2  and  N_3
REMARK    3  A    between atoms: N_9  and  C_10
REMARK    4  A    between atoms: C_10  and  C_11
REMARK    5  A    between atoms: C_10  and  C_12
REMARK    6  A    between atoms: C_15  and  O_16
REMARK    7  A    between atoms: O_16  and  C_17
REMARK    8  A    between atoms: C_17  and  C_18
REMARK                            x       y       z     vdW  Elec       q    Type
REMARK                         _______ _______ _______ _____ _____    ______ ____
ROOT
ATOM      1  C   UNL     1      33.017  15.813  11.703  0.00  0.00    +0.102 C 
ATOM      2  C   UNL     1      33.829  16.982  11.128  0.00  0.00    +0.033 C 
ENDROOT
BRANCH   1   9
ATOM      3  N   UNL     1      36.992  11.536  14.305  0.00  0.00    -0.299 N 
ATOM      4  C   UNL     1      36.843  11.404  12.855  0.00  0.00    +0.127 C 
ATOM      5  C   UNL     1      35.377  11.503  12.419  0.00  0.00    +0.129 C 
ATOM      6  N   UNL     1      34.831  12.785  12.856  0.00  0.00    -0.275 N 
ATOM      7  C   UNL     1      34.197  13.617  11.944  0.00  0.00    +0.303 C 
ATOM      8  O   UNL     1      34.025  13.315  10.771  0.00  0.00    -0.253 OA
ATOM      9  N   UNL     1      33.803  14.830  12.454  0.00  0.00    -0.293 N 
ATOM     10  C   UNL     1      35.036  13.089  14.274  0.00  0.00    +0.205 C 
ATOM     11  C   UNL     1      36.054  12.239  15.057  0.00  0.00    +0.233 C 
ATOM     12  O   UNL     1      36.107  12.307  16.285  0.00  0.00    -0.274 OA
ATOM     13  H   UNL     1      33.590  14.817  13.436  0.00  0.00    +0.151 HD
BRANCH   3  15
ATOM     14  C   UNL     1      38.768   9.838  14.566  0.00  0.00    +0.024 C 
ATOM     15  C   UNL     1      38.290  11.243  14.911  0.00  0.00    +0.104 C 
ENDBRANCH   3  15
ENDBRANCH   1   9
BRANCH   1  16
ATOM     16  C   UNL     1      31.937  16.349  12.637  0.00  0.00    -0.024 A 
ATOM     17  C   UNL     1      32.286  17.250  13.660  0.00  0.00    +0.009 A 
ATOM     18  C   UNL     1      31.343  17.693  14.583  0.00  0.00    +0.049 A 
ATOM     19  C   UNL     1      30.036  17.210  14.535  0.00  0.00    +0.156 A 
ATOM     20  C   UNL     1      29.664  16.366  13.485  0.00  0.00    +0.165 A 
ATOM     21  F   UNL     1      28.403  15.923  13.385  0.00  0.00    -0.202 F 
ATOM     22  C   UNL     1      30.602  15.932  12.542  0.00  0.00    +0.047 A 
BRANCH  19  23
ATOM     23  O   UNL     1      29.087  17.499  15.481  0.00  0.00    -0.489 OA
BRANCH  23  24
ATOM     24  C   UNL     1      28.244  18.608  15.154  0.00  0.00    +0.232 C 
BRANCH  24  25
ATOM     25  C   UNL     1      27.549  19.070  16.392  0.00  0.00    +0.027 C 
ATOM     26  C   UNL     1      26.043  19.081  16.458  0.00  0.00    +0.007 C 
ATOM     27  C   UNL     1      26.801  20.381  16.414  0.00  0.00    +0.007 C 
ENDBRANCH  24  25
ENDBRANCH  23  24
ENDBRANCH  19  23
ENDBRANCH   1  16
TORSDOF 6
ENDMDL
MODEL 7
REMARK VINA RESULT:      -6.0      2.768      8.980
REMARK  Name = ZINC000543478179
REMARK  8 active torsions:
REMARK  status: ('A' for Active; 'I' for Inactive)
REMARK    1  A    between atoms: C_1  and  C_2
REMARK    2  A    between atoms: C_2  and  N_3
REMARK    3  A    between atoms: N_9  and  C_10
REMARK    4  A    between atoms: C_10  and  C_11
REMARK    5  A    between atoms: C_10  and  C_12
REMARK    6  A    between atoms: C_15  and  O_16
REMARK    7  A    between atoms: O_16  and  C_17
REMARK    8  A    between atoms: C_17  and  C_18
REMARK                            x       y       z     vdW  Elec       q    Type
REMARK                         _______ _______ _______ _____ _____    ______ ____
ROOT
ATOM      1  C   UNL     1      30.762  21.354  14.417  0.00  0.00    +0.102 C 
ATOM      2  C   UNL     1      29.241  21.310  14.212  0.00  0.00    +0.033 C 
ENDROOT
BRANCH   1   9
ATOM      3  N   UNL     1      33.748  23.501   9.189  0.00  0.00    -0.299 N 
ATOM      4  C   UNL     1      33.747  22.043   9.316  0.00  0.00    +0.127 C 
ATOM      5  C   UNL     1      34.090  21.593  10.740  0.00  0.00    +0.129 C 
ATOM      6  N   UNL     1      33.127  22.170  11.672  0.00  0.00    -0.275 N 
ATOM      7  C   UNL     1      32.451  21.352  12.567  0.00  0.00    +0.303 C 
ATOM      8  O   UNL     1      32.650  20.148  12.654  0.00  0.00    -0.253 OA
ATOM      9  N   UNL     1      31.509  21.996  13.332  0.00  0.00    -0.293 N 
ATOM     10  C   UNL     1      32.945  23.618  11.551  0.00  0.00    +0.205 C 
ATOM     11  C   UNL     1      33.493  24.313  10.291  0.00  0.00    +0.233 C 
ATOM     12  O   UNL     1      33.560  25.542  10.238  0.00  0.00    -0.274 OA
ATOM     13  H   UNL     1      31.710  22.965  13.507  0.00  0.00    +0.151 HD
BRANCH   3  15
ATOM     14  C   UNL     1      32.242  24.041   7.306  0.00  0.00    +0.024 C 
ATOM     15  C   UNL     1      33.662  24.093   7.855  0.00  0.00    +0.104 C 
ENDBRANCH   3  15
ENDBRANCH   1   9
BRANCH   1  16
ATOM     16  C   UNL     1      31.085  22.102  15.705  0.00  0.00    -0.024 A 
ATOM     17  C   UNL     1      32.422  22.207  16.133  0.00  0.00    +0.009 A 
ATOM     18  C   UNL     1      32.746  22.809  17.345  0.00  0.00    +0.049 A 
ATOM     19  C   UNL     1      31.737  23.279  18.185  0.00  0.00    +0.156 A 
ATOM     20  C   UNL     1      30.413  23.239  17.740  0.00  0.00    +0.165 A 
ATOM     21  F   UNL     1      29.425  23.727  18.505  0.00  0.00    -0.202 F 
ATOM     22  C   UNL     1      30.081  22.653  16.513  0.00  0.00    +0.047 A 
BRANCH  19  23
ATOM     23  O   UNL     1      31.967  23.766  19.445  0.00  0.00    -0.489 OA
BRANCH  23  24
ATOM     24  C   UNL     1      32.908  23.006  20.210  0.00  0.00    +0.232 C 
BRANCH  24  25
ATOM     25  C   UNL     1      32.184  21.905  20.913  0.00  0.00    +0.027 C 
ATOM     26  C   UNL     1      30.908  22.191  21.661  0.00  0.00    +0.007 C 
ATOM     27  C   UNL     1      32.158  21.838  22.421  0.00  0.00    +0.007 C 
ENDBRANCH  24  25
ENDBRANCH  23  24
ENDBRANCH  19  23
ENDBRANCH   1  16
TORSDOF 6
ENDMDL
MODEL 8
REMARK VINA RESULT:      -5.9      4.219      6.154
REMARK  Name = ZINC000543478179
REMARK  8 active torsions:
REMARK  status: ('A' for Active; 'I' for Inactive)
REMARK    1  A    between atoms: C_1  and  C_2
REMARK    2  A    between atoms: C_2  and  N_3
REMARK    3  A    between atoms: N_9  and  C_10
REMARK    4  A    between atoms: C_10  and  C_11
REMARK    5  A    between atoms: C_10  and  C_12
REMARK    6  A    between atoms: C_15  and  O_16
REMARK    7  A    between atoms: O_16  and  C_17
REMARK    8  A    between atoms: C_17  and  C_18
REMARK                            x       y       z     vdW  Elec       q    Type
REMARK                         _______ _______ _______ _____ _____    ______ ____
ROOT
ATOM      1  C   UNL     1      32.680  24.025  11.289  0.00  0.00    +0.102 C 
ATOM      2  C   UNL     1      31.376  24.834  11.307  0.00  0.00    +0.033 C 
ENDROOT
BRANCH   1   9
ATOM      3  N   UNL     1      31.431  18.395  14.047  0.00  0.00    -0.299 N 
ATOM      4  C   UNL     1      30.849  19.542  14.746  0.00  0.00    +0.127 C 
ATOM      5  C   UNL     1      31.847  20.697  14.879  0.00  0.00    +0.129 C 
ATOM      6  N   UNL     1      32.291  21.104  13.549  0.00  0.00    -0.275 N 
ATOM      7  C   UNL     1      32.212  22.436  13.169  0.00  0.00    +0.303 C 
ATOM      8  O   UNL     1      31.821  23.323  13.915  0.00  0.00    -0.253 OA
ATOM      9  N   UNL     1      32.577  22.682  11.867  0.00  0.00    -0.293 N 
ATOM     10  C   UNL     1      32.778  20.013  12.703  0.00  0.00    +0.205 C 
ATOM     11  C   UNL     1      32.471  18.567  13.138  0.00  0.00    +0.233 C 
ATOM     12  O   UNL     1      33.034  17.620  12.589  0.00  0.00    -0.274 OA
ATOM     13  H   UNL     1      33.255  22.038  11.499  0.00  0.00    +0.151 HD
BRANCH   3  15
ATOM     14  C   UNL     1      29.378  17.236  14.787  0.00  0.00    +0.024 C 
ATOM     15  C   UNL     1      30.696  17.131  14.031  0.00  0.00    +0.104 C 
ENDBRANCH   3  15
ENDBRANCH   1   9
BRANCH   1  16
ATOM     16  C   UNL     1      33.170  23.872   9.854  0.00  0.00    -0.024 A 
ATOM     17  C   UNL     1      34.521  23.562   9.608  0.00  0.00    +0.009 A 
ATOM     18  C   UNL     1      35.021  23.499   8.311  0.00  0.00    +0.049 A 
ATOM     19  C   UNL     1      34.195  23.791   7.226  0.00  0.00    +0.156 A 
ATOM     20  C   UNL     1      32.838  24.036   7.456  0.00  0.00    +0.165 A 
ATOM     21  F   UNL     1      32.009  24.273   6.430  0.00  0.00    -0.202 F 
ATOM     22  C   UNL     1      32.323  24.081   8.756  0.00  0.00    +0.047 A 
BRANCH  19  23
ATOM     23  O   UNL     1      34.643  23.875   5.934  0.00  0.00    -0.489 OA
BRANCH  23  24
ATOM     24  C   UNL     1      35.928  23.285   5.714  0.00  0.00    +0.232 C 
BRANCH  24  25
ATOM     25  C   UNL     1      35.762  22.060   4.875  0.00  0.00    +0.027 C 
ATOM     26  C   UNL     1      36.293  20.734   5.354  0.00  0.00    +0.007 C 
ATOM     27  C   UNL     1      36.949  21.427   4.191  0.00  0.00    +0.007 C 
ENDBRANCH  24  25
ENDBRANCH  23  24
ENDBRANCH  19  23
ENDBRANCH   1  16
TORSDOF 6
ENDMDL
MODEL 9
REMARK VINA RESULT:      -5.8      6.107     10.242
REMARK  Name = ZINC000543478179
REMARK  8 active torsions:
REMARK  status: ('A' for Active; 'I' for Inactive)
REMARK    1  A    between atoms: C_1  and  C_2
REMARK    2  A    between atoms: C_2  and  N_3
REMARK    3  A    between atoms: N_9  and  C_10
REMARK    4  A    between atoms: C_10  and  C_11
REMARK    5  A    between atoms: C_10  and  C_12
REMARK    6  A    between atoms: C_15  and  O_16
REMARK    7  A    between atoms: O_16  and  C_17
REMARK    8  A    between atoms: C_17  and  C_18
REMARK                            x       y       z     vdW  Elec       q    Type
REMARK                         _______ _______ _______ _____ _____    ______ ____
ROOT
ATOM      1  C   UNL     1      34.278  17.427  11.995  0.00  0.00    +0.102 C 
ATOM      2  C   UNL     1      34.395  16.064  11.299  0.00  0.00    +0.033 C 
ENDROOT
BRANCH   1   9
ATOM      3  N   UNL     1      35.194  22.151   7.787  0.00  0.00    -0.299 N 
ATOM      4  C   UNL     1      36.420  21.691   8.441  0.00  0.00    +0.127 C 
ATOM      5  C   UNL     1      36.229  21.510   9.950  0.00  0.00    +0.129 C 
ATOM      6  N   UNL     1      35.155  20.550  10.187  0.00  0.00    -0.275 N 
ATOM      7  C   UNL     1      35.369  19.459  11.017  0.00  0.00    +0.303 C 
ATOM      8  O   UNL     1      36.421  19.268  11.613  0.00  0.00    -0.253 OA
ATOM      9  N   UNL     1      34.315  18.582  11.094  0.00  0.00    -0.293 N 
ATOM     10  C   UNL     1      33.907  20.837   9.477  0.00  0.00    +0.205 C 
ATOM     11  C   UNL     1      33.945  21.869   8.335  0.00  0.00    +0.233 C 
ATOM     12  O   UNL     1      32.898  22.303   7.853  0.00  0.00    -0.274 OA
ATOM     13  H   UNL     1      33.414  19.005  10.953  0.00  0.00    +0.151 HD
BRANCH   3  15
ATOM     14  C   UNL     1      35.666  21.451   5.465  0.00  0.00    +0.024 C 
ATOM     15  C   UNL     1      35.258  22.588   6.393  0.00  0.00    +0.104 C 
ENDBRANCH   3  15
ENDBRANCH   1   9
BRANCH   1  16
ATOM     16  C   UNL     1      32.971  17.494  12.777  0.00  0.00    -0.024 A 
ATOM     17  C   UNL     1      32.843  18.402  13.844  0.00  0.00    +0.009 A 
ATOM     18  C   UNL     1      31.697  18.432  14.633  0.00  0.00    +0.049 A 
ATOM     19  C   UNL     1      30.667  17.520  14.405  0.00  0.00    +0.156 A 
ATOM     20  C   UNL     1      30.756  16.659  13.308  0.00  0.00    +0.165 A 
ATOM     21  F   UNL     1      29.760  15.804  13.034  0.00  0.00    -0.202 F 
ATOM     22  C   UNL     1      31.897  16.637  12.498  0.00  0.00    +0.047 A 
BRANCH  19  23
ATOM     23  O   UNL     1      29.568  17.402  15.214  0.00  0.00    -0.489 OA
BRANCH  23  24
ATOM     24  C   UNL     1      28.629  18.476  15.099  0.00  0.00    +0.232 C 
BRANCH  24  25
ATOM     25  C   UNL     1      27.389  18.119  15.849  0.00  0.00    +0.027 C 
ATOM     26  C   UNL     1      26.403  19.190  16.239  0.00  0.00    +0.007 C 
ATOM     27  C   UNL     1      27.225  18.507  17.299  0.00  0.00    +0.007 C 
ENDBRANCH  24  25
ENDBRANCH  23  24
ENDBRANCH  19  23
ENDBRANCH   1  16
TORSDOF 6
ENDMDL
