MODEL 1
REMARK VINA RESULT:      -6.6      0.000      0.000
REMARK  Name = ZINC001228612316
REMARK  5 active torsions:
REMARK  status: ('A' for Active; 'I' for Inactive)
REMARK    1  A    between atoms: C_2  and  C_4
REMARK    2  A    between atoms: C_8  and  O_9
REMARK    3  A    between atoms: O_9  and  C_10
REMARK    4  A    between atoms: C_10  and  C_11
REMARK    5  A    between atoms: C_10  and  C_17
REMARK                            x       y       z     vdW  Elec       q    Type
REMARK                         _______ _______ _______ _____ _____    ______ ____
ROOT
ATOM      1  C   UNL     1      28.830  21.005  17.887  0.00  0.00    +0.040 A 
ATOM      2  C   UNL     1      27.538  20.620  17.523  0.00  0.00    +0.013 A 
ATOM      3  C   UNL     1      27.352  19.801  16.406  0.00  0.00    +0.004 A 
ATOM      4  C   UNL     1      28.455  19.363  15.666  0.00  0.00    +0.046 A 
ATOM      5  C   UNL     1      29.749  19.739  16.033  0.00  0.00    +0.122 A 
ATOM      6  C   UNL     1      29.924  20.584  17.124  0.00  0.00    +0.058 A 
ENDROOT
BRANCH   1   8
ATOM      7  N   UNL     1      29.981  22.901  18.897  0.00  0.00    -0.325 N 
ATOM      8  C   UNL     1      29.121  21.855  19.069  0.00  0.00    +0.242 C 
ATOM      9  O   UNL     1      28.564  21.672  20.145  0.00  0.00    -0.270 OA
ATOM     10  H   UNL     1      30.047  23.546  19.675  0.00  0.00    +0.145 HD
ATOM     11  H   UNL     1      30.234  23.245  17.982  0.00  0.00    +0.145 HD
ENDBRANCH   1   8
BRANCH   5  12
ATOM     12  O   UNL     1      30.761  19.251  15.252  0.00  0.00    -0.484 OA
BRANCH  12  13
ATOM     13  C   UNL     1      31.284  17.948  15.573  0.00  0.00    +0.208 C 
BRANCH  13  14
ATOM     14  C   UNL     1      31.136  17.049  14.363  0.00  0.00    +0.011 A 
ATOM     15  C   UNL     1      29.867  16.605  13.968  0.00  0.00    +0.010 A 
ATOM     16  C   UNL     1      29.731  15.774  12.863  0.00  0.00    +0.020 A 
ATOM     17  C   UNL     1      30.877  15.410  12.179  0.00  0.00    +0.111 A 
ATOM     18  N   UNL     1      32.119  15.809  12.526  0.00  0.00    -0.263 NA
ATOM     19  C   UNL     1      32.221  16.616  13.611  0.00  0.00    +0.118 A 
ENDBRANCH  13  14
BRANCH  13  20
ATOM     20  C   UNL     1      32.740  18.069  15.965  0.00  0.00    +0.034 C 
ATOM     21  C   UNL     1      33.311  17.351  17.170  0.00  0.00    +0.008 C 
ATOM     22  C   UNL     1      33.147  18.839  17.205  0.00  0.00    +0.008 C 
ENDBRANCH  13  20
ENDBRANCH  12  13
ENDBRANCH   5  12
TORSDOF 5
ENDMDL
MODEL 2
REMARK VINA RESULT:      -6.5      2.255      6.424
REMARK  Name = ZINC001228612316
REMARK  5 active torsions:
REMARK  status: ('A' for Active; 'I' for Inactive)
REMARK    1  A    between atoms: C_2  and  C_4
REMARK    2  A    between atoms: C_8  and  O_9
REMARK    3  A    between atoms: O_9  and  C_10
REMARK    4  A    between atoms: C_10  and  C_11
REMARK    5  A    between atoms: C_10  and  C_17
REMARK                            x       y       z     vdW  Elec       q    Type
REMARK                         _______ _______ _______ _____ _____    ______ ____
ROOT
ATOM      1  C   UNL     1      31.083  15.903  12.762  0.00  0.00    +0.040 A 
ATOM      2  C   UNL     1      32.410  16.018  12.341  0.00  0.00    +0.013 A 
ATOM      3  C   UNL     1      33.303  16.795  13.083  0.00  0.00    +0.004 A 
ATOM      4  C   UNL     1      32.872  17.443  14.245  0.00  0.00    +0.046 A 
ATOM      5  C   UNL     1      31.548  17.322  14.674  0.00  0.00    +0.122 A 
ATOM      6  C   UNL     1      30.656  16.577  13.910  0.00  0.00    +0.058 A 
ENDROOT
BRANCH   1   8
ATOM      7  N   UNL     1      28.857  14.919  12.645  0.00  0.00    -0.325 N 
ATOM      8  C   UNL     1      30.073  15.083  12.047  0.00  0.00    +0.242 C 
ATOM      9  O   UNL     1      30.291  14.622  10.933  0.00  0.00    -0.270 OA
ATOM     10  H   UNL     1      28.144  14.482  12.073  0.00  0.00    +0.145 HD
ATOM     11  H   UNL     1      28.550  15.501  13.410  0.00  0.00    +0.145 HD
ENDBRANCH   1   8
BRANCH   5  12
ATOM     12  O   UNL     1      31.227  17.985  15.827  0.00  0.00    -0.484 OA
BRANCH  12  13
ATOM     13  C   UNL     1      31.367  19.418  15.836  0.00  0.00    +0.208 C 
BRANCH  13  14
ATOM     14  C   UNL     1      29.993  20.044  15.959  0.00  0.00    +0.011 A 
ATOM     15  C   UNL     1      28.872  19.238  16.199  0.00  0.00    +0.010 A 
ATOM     16  C   UNL     1      27.611  19.810  16.306  0.00  0.00    +0.020 A 
ATOM     17  C   UNL     1      27.506  21.182  16.169  0.00  0.00    +0.111 A 
ATOM     18  N   UNL     1      28.557  21.997  15.932  0.00  0.00    -0.263 NA
ATOM     19  C   UNL     1      29.774  21.410  15.829  0.00  0.00    +0.118 A 
ENDBRANCH  13  14
BRANCH  13  20
ATOM     20  C   UNL     1      32.241  19.835  16.997  0.00  0.00    +0.034 C 
ATOM     21  C   UNL     1      33.032  21.127  16.985  0.00  0.00    +0.008 C 
ATOM     22  C   UNL     1      33.752  19.819  16.874  0.00  0.00    +0.008 C 
ENDBRANCH  13  20
ENDBRANCH  12  13
ENDBRANCH   5  12
TORSDOF 5
ENDMDL
MODEL 3
REMARK VINA RESULT:      -6.1      1.868      6.870
REMARK  Name = ZINC001228612316
REMARK  5 active torsions:
REMARK  status: ('A' for Active; 'I' for Inactive)
REMARK    1  A    between atoms: C_2  and  C_4
REMARK    2  A    between atoms: C_8  and  O_9
REMARK    3  A    between atoms: O_9  and  C_10
REMARK    4  A    between atoms: C_10  and  C_11
REMARK    5  A    between atoms: C_10  and  C_17
REMARK                            x       y       z     vdW  Elec       q    Type
REMARK                         _______ _______ _______ _____ _____    ______ ____
ROOT
ATOM      1  C   UNL     1      30.835  16.418  13.576  0.00  0.00    +0.040 A 
ATOM      2  C   UNL     1      32.220  16.606  13.582  0.00  0.00    +0.013 A 
ATOM      3  C   UNL     1      32.798  17.437  14.545  0.00  0.00    +0.004 A 
ATOM      4  C   UNL     1      31.995  18.066  15.502  0.00  0.00    +0.046 A 
ATOM      5  C   UNL     1      30.611  17.873  15.504  0.00  0.00    +0.122 A 
ATOM      6  C   UNL     1      30.039  17.074  14.520  0.00  0.00    +0.058 A 
ENDROOT
BRANCH   1   8
ATOM      7  N   UNL     1      28.894  15.091  12.936  0.00  0.00    -0.325 N 
ATOM      8  C   UNL     1      30.140  15.538  12.603  0.00  0.00    +0.242 C 
ATOM      9  O   UNL     1      30.631  15.270  11.513  0.00  0.00    -0.270 OA
ATOM     10  H   UNL     1      28.388  14.617  12.197  0.00  0.00    +0.145 HD
ATOM     11  H   UNL     1      28.354  15.507  13.680  0.00  0.00    +0.145 HD
ENDBRANCH   1   8
BRANCH   5  12
ATOM     12  O   UNL     1      29.915  18.523  16.486  0.00  0.00    -0.484 OA
BRANCH  12  13
ATOM     13  C   UNL     1      29.190  19.711  16.117  0.00  0.00    +0.208 C 
BRANCH  13  14
ATOM     14  C   UNL     1      28.854  20.490  17.372  0.00  0.00    +0.011 A 
ATOM     15  C   UNL     1      27.570  20.406  17.928  0.00  0.00    +0.010 A 
ATOM     16  C   UNL     1      27.258  21.125  19.075  0.00  0.00    +0.020 A 
ATOM     17  C   UNL     1      28.247  21.912  19.638  0.00  0.00    +0.111 A 
ATOM     18  N   UNL     1      29.494  22.027  19.134  0.00  0.00    -0.263 NA
ATOM     19  C   UNL     1      29.769  21.317  18.012  0.00  0.00    +0.118 A 
ENDBRANCH  13  14
BRANCH  13  20
ATOM     20  C   UNL     1      30.036  20.552  15.186  0.00  0.00    +0.034 C 
ATOM     21  C   UNL     1      29.610  21.937  14.744  0.00  0.00    +0.008 C 
ATOM     22  C   UNL     1      29.594  20.810  13.759  0.00  0.00    +0.008 C 
ENDBRANCH  13  20
ENDBRANCH  12  13
ENDBRANCH   5  12
TORSDOF 5
ENDMDL
MODEL 4
REMARK VINA RESULT:      -6.1      1.583      1.847
REMARK  Name = ZINC001228612316
REMARK  5 active torsions:
REMARK  status: ('A' for Active; 'I' for Inactive)
REMARK    1  A    between atoms: C_2  and  C_4
REMARK    2  A    between atoms: C_8  and  O_9
REMARK    3  A    between atoms: O_9  and  C_10
REMARK    4  A    between atoms: C_10  and  C_11
REMARK    5  A    between atoms: C_10  and  C_17
REMARK                            x       y       z     vdW  Elec       q    Type
REMARK                         _______ _______ _______ _____ _____    ______ ____
ROOT
ATOM      1  C   UNL     1      28.821  20.720  17.587  0.00  0.00    +0.040 A 
ATOM      2  C   UNL     1      27.764  20.050  16.966  0.00  0.00    +0.013 A 
ATOM      3  C   UNL     1      28.009  19.289  15.820  0.00  0.00    +0.004 A 
ATOM      4  C   UNL     1      29.306  19.193  15.306  0.00  0.00    +0.046 A 
ATOM      5  C   UNL     1      30.367  19.855  15.929  0.00  0.00    +0.122 A 
ATOM      6  C   UNL     1      30.109  20.640  17.048  0.00  0.00    +0.058 A 
ENDROOT
BRANCH   1   8
ATOM      7  N   UNL     1      27.634  21.199  19.661  0.00  0.00    -0.325 N 
ATOM      8  C   UNL     1      28.655  21.533  18.818  0.00  0.00    +0.242 C 
ATOM      9  O   UNL     1      29.439  22.428  19.108  0.00  0.00    -0.270 OA
ATOM     10  H   UNL     1      27.634  21.671  20.557  0.00  0.00    +0.145 HD
ATOM     11  H   UNL     1      27.153  20.313  19.599  0.00  0.00    +0.145 HD
ENDBRANCH   1   8
BRANCH   5  12
ATOM     12  O   UNL     1      31.597  19.690  15.356  0.00  0.00    -0.484 OA
BRANCH  12  13
ATOM     13  C   UNL     1      32.256  18.423  15.539  0.00  0.00    +0.208 C 
BRANCH  13  14
ATOM     14  C   UNL     1      32.762  17.934  14.197  0.00  0.00    +0.011 A 
ATOM     15  C   UNL     1      32.416  16.656  13.739  0.00  0.00    +0.010 A 
ATOM     16  C   UNL     1      32.884  16.204  12.511  0.00  0.00    +0.020 A 
ATOM     17  C   UNL     1      33.690  17.051  11.772  0.00  0.00    +0.111 A 
ATOM     18  N   UNL     1      34.052  18.288  12.176  0.00  0.00    -0.263 NA
ATOM     19  C   UNL     1      33.583  18.700  13.379  0.00  0.00    +0.118 A 
ENDBRANCH  13  14
BRANCH  13  20
ATOM     20  C   UNL     1      33.406  18.584  16.508  0.00  0.00    +0.034 C 
ATOM     21  C   UNL     1      34.404  17.474  16.765  0.00  0.00    +0.008 C 
ATOM     22  C   UNL     1      33.416  17.841  17.829  0.00  0.00    +0.008 C 
ENDBRANCH  13  20
ENDBRANCH  12  13
ENDBRANCH   5  12
TORSDOF 5
ENDMDL
MODEL 5
REMARK VINA RESULT:      -6.0      4.451      6.236
REMARK  Name = ZINC001228612316
REMARK  5 active torsions:
REMARK  status: ('A' for Active; 'I' for Inactive)
REMARK    1  A    between atoms: C_2  and  C_4
REMARK    2  A    between atoms: C_8  and  O_9
REMARK    3  A    between atoms: O_9  and  C_10
REMARK    4  A    between atoms: C_10  and  C_11
REMARK    5  A    between atoms: C_10  and  C_17
REMARK                            x       y       z     vdW  Elec       q    Type
REMARK                         _______ _______ _______ _____ _____    ______ ____
ROOT
ATOM      1  C   UNL     1      29.504  18.949  15.158  0.00  0.00    +0.040 A 
ATOM      2  C   UNL     1      28.366  19.150  15.944  0.00  0.00    +0.013 A 
ATOM      3  C   UNL     1      27.815  20.430  16.044  0.00  0.00    +0.004 A 
ATOM      4  C   UNL     1      28.395  21.499  15.354  0.00  0.00    +0.046 A 
ATOM      5  C   UNL     1      29.527  21.300  14.560  0.00  0.00    +0.122 A 
ATOM      6  C   UNL     1      30.091  20.030  14.494  0.00  0.00    +0.058 A 
ENDROOT
BRANCH   1   8
ATOM      7  N   UNL     1      29.326  16.562  14.701  0.00  0.00    -0.325 N 
ATOM      8  C   UNL     1      30.142  17.620  14.979  0.00  0.00    +0.242 C 
ATOM      9  O   UNL     1      31.359  17.482  15.013  0.00  0.00    -0.270 OA
ATOM     10  H   UNL     1      29.796  15.704  14.440  0.00  0.00    +0.145 HD
ATOM     11  H   UNL     1      28.372  16.684  14.394  0.00  0.00    +0.145 HD
ENDBRANCH   1   8
BRANCH   5  12
ATOM     12  O   UNL     1      30.012  22.406  13.917  0.00  0.00    -0.484 OA
BRANCH  12  13
ATOM     13  C   UNL     1      31.265  22.949  14.374  0.00  0.00    +0.208 C 
BRANCH  13  14
ATOM     14  C   UNL     1      31.869  23.787  13.267  0.00  0.00    +0.011 A 
ATOM     15  C   UNL     1      31.156  24.869  12.734  0.00  0.00    +0.010 A 
ATOM     16  C   UNL     1      31.706  25.634  11.713  0.00  0.00    +0.020 A 
ATOM     17  C   UNL     1      32.966  25.294  11.253  0.00  0.00    +0.111 A 
ATOM     18  N   UNL     1      33.687  24.258  11.733  0.00  0.00    -0.263 NA
ATOM     19  C   UNL     1      33.123  23.527  12.726  0.00  0.00    +0.118 A 
ENDBRANCH  13  14
BRANCH  13  20
ATOM     20  C   UNL     1      31.031  23.795  15.607  0.00  0.00    +0.034 C 
ATOM     21  C   UNL     1      32.171  24.442  16.366  0.00  0.00    +0.008 C 
ATOM     22  C   UNL     1      31.434  23.292  16.979  0.00  0.00    +0.008 C 
ENDBRANCH  13  20
ENDBRANCH  12  13
ENDBRANCH   5  12
TORSDOF 5
ENDMDL
MODEL 6
REMARK VINA RESULT:      -6.0      2.114      6.773
REMARK  Name = ZINC001228612316
REMARK  5 active torsions:
REMARK  status: ('A' for Active; 'I' for Inactive)
REMARK    1  A    between atoms: C_2  and  C_4
REMARK    2  A    between atoms: C_8  and  O_9
REMARK    3  A    between atoms: O_9  and  C_10
REMARK    4  A    between atoms: C_10  and  C_11
REMARK    5  A    between atoms: C_10  and  C_17
REMARK                            x       y       z     vdW  Elec       q    Type
REMARK                         _______ _______ _______ _____ _____    ______ ____
ROOT
ATOM      1  C   UNL     1      31.488  17.476  14.747  0.00  0.00    +0.040 A 
ATOM      2  C   UNL     1      30.182  17.057  14.483  0.00  0.00    +0.013 A 
ATOM      3  C   UNL     1      29.110  17.724  15.082  0.00  0.00    +0.004 A 
ATOM      4  C   UNL     1      29.346  18.809  15.933  0.00  0.00    +0.046 A 
ATOM      5  C   UNL     1      30.651  19.235  16.193  0.00  0.00    +0.122 A 
ATOM      6  C   UNL     1      31.714  18.544  15.621  0.00  0.00    +0.058 A 
ENDROOT
BRANCH   1   8
ATOM      7  N   UNL     1      33.908  17.216  14.610  0.00  0.00    -0.325 N 
ATOM      8  C   UNL     1      32.683  16.839  14.138  0.00  0.00    +0.242 C 
ATOM      9  O   UNL     1      32.582  15.961  13.290  0.00  0.00    -0.270 OA
ATOM     10  H   UNL     1      34.691  16.665  14.283  0.00  0.00    +0.145 HD
ATOM     11  H   UNL     1      34.018  17.716  15.480  0.00  0.00    +0.145 HD
ENDBRANCH   1   8
BRANCH   5  12
ATOM     12  O   UNL     1      30.776  20.310  17.029  0.00  0.00    -0.484 OA
BRANCH  12  13
ATOM     13  C   UNL     1      29.963  21.467  16.757  0.00  0.00    +0.208 C 
BRANCH  13  14
ATOM     14  C   UNL     1      29.075  21.736  17.954  0.00  0.00    +0.011 A 
ATOM     15  C   UNL     1      29.631  21.826  19.236  0.00  0.00    +0.010 A 
ATOM     16  C   UNL     1      28.816  22.066  20.336  0.00  0.00    +0.020 A 
ATOM     17  C   UNL     1      27.458  22.211  20.118  0.00  0.00    +0.111 A 
ATOM     18  N   UNL     1      26.878  22.127  18.902  0.00  0.00    -0.263 NA
ATOM     19  C   UNL     1      27.697  21.888  17.849  0.00  0.00    +0.118 A 
ENDBRANCH  13  14
BRANCH  13  20
ATOM     20  C   UNL     1      30.853  22.659  16.484  0.00  0.00    +0.034 C 
ATOM     21  C   UNL     1      30.290  24.038  16.209  0.00  0.00    +0.008 C 
ATOM     22  C   UNL     1      30.932  23.267  15.097  0.00  0.00    +0.008 C 
ENDBRANCH  13  20
ENDBRANCH  12  13
ENDBRANCH   5  12
TORSDOF 5
ENDMDL
MODEL 7
REMARK VINA RESULT:      -6.0      4.348      6.048
REMARK  Name = ZINC001228612316
REMARK  5 active torsions:
REMARK  status: ('A' for Active; 'I' for Inactive)
REMARK    1  A    between atoms: C_2  and  C_4
REMARK    2  A    between atoms: C_8  and  O_9
REMARK    3  A    between atoms: O_9  and  C_10
REMARK    4  A    between atoms: C_10  and  C_11
REMARK    5  A    between atoms: C_10  and  C_17
REMARK                            x       y       z     vdW  Elec       q    Type
REMARK                         _______ _______ _______ _____ _____    ______ ____
ROOT
ATOM      1  C   UNL     1      31.430  25.254  13.278  0.00  0.00    +0.040 A 
ATOM      2  C   UNL     1      32.491  25.561  14.133  0.00  0.00    +0.013 A 
ATOM      3  C   UNL     1      33.035  24.559  14.942  0.00  0.00    +0.004 A 
ATOM      4  C   UNL     1      32.526  23.258  14.886  0.00  0.00    +0.046 A 
ATOM      5  C   UNL     1      31.470  22.947  14.025  0.00  0.00    +0.122 A 
ATOM      6  C   UNL     1      30.910  23.957  13.250  0.00  0.00    +0.058 A 
ENDROOT
BRANCH   1   8
ATOM      7  N   UNL     1      29.564  26.711  12.700  0.00  0.00    -0.325 N 
ATOM      8  C   UNL     1      30.805  26.250  12.371  0.00  0.00    +0.242 C 
ATOM      9  O   UNL     1      31.401  26.695  11.397  0.00  0.00    -0.270 OA
ATOM     10  H   UNL     1      29.226  27.492  12.149  0.00  0.00    +0.145 HD
ATOM     11  H   UNL     1      29.169  26.584  13.621  0.00  0.00    +0.145 HD
ENDBRANCH   1   8
BRANCH   5  12
ATOM     12  O   UNL     1      31.051  21.645  14.036  0.00  0.00    -0.484 OA
BRANCH  12  13
ATOM     13  C   UNL     1      31.328  20.863  15.213  0.00  0.00    +0.208 C 
BRANCH  13  14
ATOM     14  C   UNL     1      30.043  20.674  15.992  0.00  0.00    +0.011 A 
ATOM     15  C   UNL     1      28.955  20.014  15.405  0.00  0.00    +0.010 A 
ATOM     16  C   UNL     1      27.773  19.847  16.115  0.00  0.00    +0.020 A 
ATOM     17  C   UNL     1      27.714  20.347  17.404  0.00  0.00    +0.111 A 
ATOM     18  N   UNL     1      28.734  20.993  18.008  0.00  0.00    -0.263 NA
ATOM     19  C   UNL     1      29.873  21.145  17.288  0.00  0.00    +0.118 A 
ENDBRANCH  13  14
BRANCH  13  20
ATOM     20  C   UNL     1      31.899  19.522  14.807  0.00  0.00    +0.034 C 
ATOM     21  C   UNL     1      32.272  18.465  15.826  0.00  0.00    +0.008 C 
ATOM     22  C   UNL     1      33.352  19.184  15.078  0.00  0.00    +0.008 C 
ENDBRANCH  13  20
ENDBRANCH  12  13
ENDBRANCH   5  12
TORSDOF 5
ENDMDL
MODEL 8
REMARK VINA RESULT:      -5.9      2.776      4.120
REMARK  Name = ZINC001228612316
REMARK  5 active torsions:
REMARK  status: ('A' for Active; 'I' for Inactive)
REMARK    1  A    between atoms: C_2  and  C_4
REMARK    2  A    between atoms: C_8  and  O_9
REMARK    3  A    between atoms: O_9  and  C_10
REMARK    4  A    between atoms: C_10  and  C_11
REMARK    5  A    between atoms: C_10  and  C_17
REMARK                            x       y       z     vdW  Elec       q    Type
REMARK                         _______ _______ _______ _____ _____    ______ ____
ROOT
ATOM      1  C   UNL     1      27.935  21.361  18.423  0.00  0.00    +0.040 A 
ATOM      2  C   UNL     1      27.323  20.156  18.069  0.00  0.00    +0.013 A 
ATOM      3  C   UNL     1      27.439  19.685  16.759  0.00  0.00    +0.004 A 
ATOM      4  C   UNL     1      28.170  20.410  15.813  0.00  0.00    +0.046 A 
ATOM      5  C   UNL     1      28.790  21.611  16.167  0.00  0.00    +0.122 A 
ATOM      6  C   UNL     1      28.641  22.093  17.463  0.00  0.00    +0.058 A 
ENDROOT
BRANCH   1   8
ATOM      7  N   UNL     1      27.042  22.981  20.010  0.00  0.00    -0.325 N 
ATOM      8  C   UNL     1      27.881  21.926  19.795  0.00  0.00    +0.242 C 
ATOM      9  O   UNL     1      28.512  21.428  20.721  0.00  0.00    -0.270 OA
ATOM     10  H   UNL     1      26.916  23.250  20.979  0.00  0.00    +0.145 HD
ATOM     11  H   UNL     1      26.314  23.232  19.357  0.00  0.00    +0.145 HD
ENDBRANCH   1   8
BRANCH   5  12
ATOM     12  O   UNL     1      29.491  22.241  15.175  0.00  0.00    -0.484 OA
BRANCH  12  13
ATOM     13  C   UNL     1      30.877  22.539  15.421  0.00  0.00    +0.208 C 
BRANCH  13  14
ATOM     14  C   UNL     1      31.646  21.240  15.540  0.00  0.00    +0.011 A 
ATOM     15  C   UNL     1      32.188  20.853  16.773  0.00  0.00    +0.010 A 
ATOM     16  C   UNL     1      32.898  19.665  16.882  0.00  0.00    +0.020 A 
ATOM     17  C   UNL     1      33.046  18.890  15.746  0.00  0.00    +0.111 A 
ATOM     18  N   UNL     1      32.546  19.224  14.537  0.00  0.00    -0.263 NA
ATOM     19  C   UNL     1      31.861  20.391  14.460  0.00  0.00    +0.118 A 
ENDBRANCH  13  14
BRANCH  13  20
ATOM     20  C   UNL     1      31.426  23.373  14.284  0.00  0.00    +0.034 C 
ATOM     21  C   UNL     1      32.812  23.981  14.329  0.00  0.00    +0.008 C 
ATOM     22  C   UNL     1      31.612  24.870  14.441  0.00  0.00    +0.008 C 
ENDBRANCH  13  20
ENDBRANCH  12  13
ENDBRANCH   5  12
TORSDOF 5
ENDMDL
MODEL 9
REMARK VINA RESULT:      -5.9      2.179      6.685
REMARK  Name = ZINC001228612316
REMARK  5 active torsions:
REMARK  status: ('A' for Active; 'I' for Inactive)
REMARK    1  A    between atoms: C_2  and  C_4
REMARK    2  A    between atoms: C_8  and  O_9
REMARK    3  A    between atoms: O_9  and  C_10
REMARK    4  A    between atoms: C_10  and  C_11
REMARK    5  A    between atoms: C_10  and  C_17
REMARK                            x       y       z     vdW  Elec       q    Type
REMARK                         _______ _______ _______ _____ _____    ______ ____
ROOT
ATOM      1  C   UNL     1      33.331  16.504  13.743  0.00  0.00    +0.040 A 
ATOM      2  C   UNL     1      34.364  15.934  14.491  0.00  0.00    +0.013 A 
ATOM      3  C   UNL     1      34.589  16.371  15.799  0.00  0.00    +0.004 A 
ATOM      4  C   UNL     1      33.778  17.365  16.356  0.00  0.00    +0.046 A 
ATOM      5  C   UNL     1      32.739  17.931  15.613  0.00  0.00    +0.122 A 
ATOM      6  C   UNL     1      32.544  17.516  14.300  0.00  0.00    +0.058 A 
ENDROOT
BRANCH   1   8
ATOM      7  N   UNL     1      33.545  16.818  11.336  0.00  0.00    -0.325 N 
ATOM      8  C   UNL     1      33.008  16.086  12.355  0.00  0.00    +0.242 C 
ATOM      9  O   UNL     1      32.341  15.085  12.124  0.00  0.00    -0.270 OA
ATOM     10  H   UNL     1      33.430  16.427  10.408  0.00  0.00    +0.145 HD
ATOM     11  H   UNL     1      34.309  17.462  11.480  0.00  0.00    +0.145 HD
ENDBRANCH   1   8
BRANCH   5  12
ATOM     12  O   UNL     1      31.996  18.887  16.250  0.00  0.00    -0.484 OA
BRANCH  12  13
ATOM     13  C   UNL     1      31.161  19.734  15.440  0.00  0.00    +0.208 C 
BRANCH  13  14
ATOM     14  C   UNL     1      29.875  20.017  16.190  0.00  0.00    +0.011 A 
ATOM     15  C   UNL     1      28.661  19.494  15.725  0.00  0.00    +0.010 A 
ATOM     16  C   UNL     1      27.480  19.757  16.408  0.00  0.00    +0.020 A 
ATOM     17  C   UNL     1      27.549  20.541  17.545  0.00  0.00    +0.111 A 
ATOM     18  N   UNL     1      28.694  21.070  18.026  0.00  0.00    -0.263 NA
ATOM     19  C   UNL     1      29.830  20.799  17.337  0.00  0.00    +0.118 A 
ENDBRANCH  13  14
BRANCH  13  20
ATOM     20  C   UNL     1      31.889  21.026  15.139  0.00  0.00    +0.034 C 
ATOM     21  C   UNL     1      31.324  22.066  14.194  0.00  0.00    +0.008 C 
ATOM     22  C   UNL     1      32.517  21.261  13.779  0.00  0.00    +0.008 C 
ENDBRANCH  13  20
ENDBRANCH  12  13
ENDBRANCH   5  12
TORSDOF 5
ENDMDL
