MODEL 1
REMARK VINA RESULT:      -7.0      0.000      0.000
REMARK  Name = ZINC000543478179
REMARK  8 active torsions:
REMARK  status: ('A' for Active; 'I' for Inactive)
REMARK    1  A    between atoms: C_1  and  C_2
REMARK    2  A    between atoms: C_2  and  N_3
REMARK    3  A    between atoms: N_9  and  C_10
REMARK    4  A    between atoms: C_10  and  C_11
REMARK    5  A    between atoms: C_10  and  C_12
REMARK    6  A    between atoms: C_15  and  O_16
REMARK    7  A    between atoms: O_16  and  C_17
REMARK    8  A    between atoms: C_17  and  C_18
REMARK                            x       y       z     vdW  Elec       q    Type
REMARK                         _______ _______ _______ _____ _____    ______ ____
ROOT
ATOM      1  C   UNL     1      29.520  22.584  17.951  0.00  0.00    +0.102 C 
ATOM      2  C   UNL     1      30.580  23.682  17.778  0.00  0.00    +0.033 C 
ENDROOT
BRANCH   1   9
ATOM      3  N   UNL     1      23.714  25.237  17.616  0.00  0.00    -0.299 N 
ATOM      4  C   UNL     1      24.393  25.452  18.895  0.00  0.00    +0.127 C 
ATOM      5  C   UNL     1      25.048  24.169  19.417  0.00  0.00    +0.129 C 
ATOM      6  N   UNL     1      26.004  23.680  18.427  0.00  0.00    -0.275 N 
ATOM      7  C   UNL     1      27.311  23.402  18.802  0.00  0.00    +0.303 C 
ATOM      8  O   UNL     1      27.712  23.504  19.954  0.00  0.00    -0.253 OA
ATOM      9  N   UNL     1      28.137  23.033  17.769  0.00  0.00    -0.293 N 
ATOM     10  C   UNL     1      25.470  23.547  17.071  0.00  0.00    +0.205 C 
ATOM     11  C   UNL     1      24.124  24.225  16.752  0.00  0.00    +0.233 C 
ATOM     12  O   UNL     1      23.530  23.967  15.705  0.00  0.00    -0.274 OA
ATOM     13  H   UNL     1      27.667  22.574  17.008  0.00  0.00    +0.151 HD
BRANCH   3  15
ATOM     14  C   UNL     1      22.785  27.488  18.030  0.00  0.00    +0.024 C 
ATOM     15  C   UNL     1      22.850  26.292  17.089  0.00  0.00    +0.104 C 
ENDBRANCH   3  15
ENDBRANCH   1   9
BRANCH   1  16
ATOM     16  C   UNL     1      29.776  21.462  16.951  0.00  0.00    -0.024 A 
ATOM     17  C   UNL     1      29.903  20.137  17.409  0.00  0.00    +0.009 A 
ATOM     18  C   UNL     1      30.221  19.100  16.537  0.00  0.00    +0.049 A 
ATOM     19  C   UNL     1      30.467  19.369  15.191  0.00  0.00    +0.156 A 
ATOM     20  C   UNL     1      30.280  20.669  14.715  0.00  0.00    +0.165 A 
ATOM     21  F   UNL     1      30.462  20.949  13.416  0.00  0.00    -0.202 F 
ATOM     22  C   UNL     1      29.941  21.713  15.582  0.00  0.00    +0.047 A 
BRANCH  19  23
ATOM     23  O   UNL     1      30.908  18.426  14.300  0.00  0.00    -0.489 OA
BRANCH  23  24
ATOM     24  C   UNL     1      31.101  17.125  14.862  0.00  0.00    +0.232 C 
BRANCH  24  25
ATOM     25  C   UNL     1      30.056  16.203  14.325  0.00  0.00    +0.027 C 
ATOM     26  C   UNL     1      29.485  15.113  15.193  0.00  0.00    +0.007 C 
ATOM     27  C   UNL     1      30.377  14.757  14.035  0.00  0.00    +0.007 C 
ENDBRANCH  24  25
ENDBRANCH  23  24
ENDBRANCH  19  23
ENDBRANCH   1  16
TORSDOF 6
ENDMDL
MODEL 2
REMARK VINA RESULT:      -6.8      4.409      8.567
REMARK  Name = ZINC000543478179
REMARK  8 active torsions:
REMARK  status: ('A' for Active; 'I' for Inactive)
REMARK    1  A    between atoms: C_1  and  C_2
REMARK    2  A    between atoms: C_2  and  N_3
REMARK    3  A    between atoms: N_9  and  C_10
REMARK    4  A    between atoms: C_10  and  C_11
REMARK    5  A    between atoms: C_10  and  C_12
REMARK    6  A    between atoms: C_15  and  O_16
REMARK    7  A    between atoms: O_16  and  C_17
REMARK    8  A    between atoms: C_17  and  C_18
REMARK                            x       y       z     vdW  Elec       q    Type
REMARK                         _______ _______ _______ _____ _____    ______ ____
ROOT
ATOM      1  C   UNL     1      31.520  20.746  15.754  0.00  0.00    +0.102 C 
ATOM      2  C   UNL     1      31.148  19.344  15.253  0.00  0.00    +0.033 C 
ENDROOT
BRANCH   1   9
ATOM      3  N   UNL     1      33.293  24.457  10.860  0.00  0.00    -0.299 N 
ATOM      4  C   UNL     1      34.398  23.732  11.487  0.00  0.00    +0.127 C 
ATOM      5  C   UNL     1      34.328  23.792  13.016  0.00  0.00    +0.129 C 
ATOM      6  N   UNL     1      33.056  23.233  13.462  0.00  0.00    -0.275 N 
ATOM      7  C   UNL     1      33.036  22.231  14.423  0.00  0.00    +0.303 C 
ATOM      8  O   UNL     1      34.047  21.805  14.965  0.00  0.00    -0.253 OA
ATOM      9  N   UNL     1      31.789  21.724  14.696  0.00  0.00    -0.293 N 
ATOM     10  C   UNL     1      31.874  23.794  12.806  0.00  0.00    +0.205 C 
ATOM     11  C   UNL     1      32.083  24.628  11.528  0.00  0.00    +0.233 C 
ATOM     12  O   UNL     1      31.158  25.296  11.063  0.00  0.00    -0.274 OA
ATOM     13  H   UNL     1      31.038  22.378  14.559  0.00  0.00    +0.151 HD
BRANCH   3  15
ATOM     14  C   UNL     1      32.979  23.431   8.635  0.00  0.00    +0.024 C 
ATOM     15  C   UNL     1      33.329  24.690   9.417  0.00  0.00    +0.104 C 
ENDBRANCH   3  15
ENDBRANCH   1   9
BRANCH   1  16
ATOM     16  C   UNL     1      30.392  21.299  16.617  0.00  0.00    -0.024 A 
ATOM     17  C   UNL     1      29.166  20.611  16.686  0.00  0.00    +0.009 A 
ATOM     18  C   UNL     1      28.087  21.129  17.395  0.00  0.00    +0.049 A 
ATOM     19  C   UNL     1      28.189  22.374  18.015  0.00  0.00    +0.156 A 
ATOM     20  C   UNL     1      29.421  23.034  18.007  0.00  0.00    +0.165 A 
ATOM     21  F   UNL     1      29.564  24.210  18.636  0.00  0.00    -0.202 F 
ATOM     22  C   UNL     1      30.517  22.509  17.313  0.00  0.00    +0.047 A 
BRANCH  19  23
ATOM     23  O   UNL     1      27.136  23.007  18.621  0.00  0.00    -0.489 OA
BRANCH  23  24
ATOM     24  C   UNL     1      26.006  23.222  17.769  0.00  0.00    +0.232 C 
BRANCH  24  25
ATOM     25  C   UNL     1      24.879  23.763  18.586  0.00  0.00    +0.027 C 
ATOM     26  C   UNL     1      23.813  24.610  17.942  0.00  0.00    +0.007 C 
ATOM     27  C   UNL     1      24.790  25.237  18.899  0.00  0.00    +0.007 C 
ENDBRANCH  24  25
ENDBRANCH  23  24
ENDBRANCH  19  23
ENDBRANCH   1  16
TORSDOF 6
ENDMDL
MODEL 3
REMARK VINA RESULT:      -6.6      5.936      7.577
REMARK  Name = ZINC000543478179
REMARK  8 active torsions:
REMARK  status: ('A' for Active; 'I' for Inactive)
REMARK    1  A    between atoms: C_1  and  C_2
REMARK    2  A    between atoms: C_2  and  N_3
REMARK    3  A    between atoms: N_9  and  C_10
REMARK    4  A    between atoms: C_10  and  C_11
REMARK    5  A    between atoms: C_10  and  C_12
REMARK    6  A    between atoms: C_15  and  O_16
REMARK    7  A    between atoms: O_16  and  C_17
REMARK    8  A    between atoms: C_17  and  C_18
REMARK                            x       y       z     vdW  Elec       q    Type
REMARK                         _______ _______ _______ _____ _____    ______ ____
ROOT
ATOM      1  C   UNL     1      31.798  20.429  15.970  0.00  0.00    +0.102 C 
ATOM      2  C   UNL     1      32.871  20.583  17.057  0.00  0.00    +0.033 C 
ENDROOT
BRANCH   1   9
ATOM      3  N   UNL     1      33.552  23.574  10.688  0.00  0.00    -0.299 N 
ATOM      4  C   UNL     1      32.800  24.389  11.643  0.00  0.00    +0.127 C 
ATOM      5  C   UNL     1      31.579  23.645  12.192  0.00  0.00    +0.129 C 
ATOM      6  N   UNL     1      32.017  22.410  12.836  0.00  0.00    -0.275 N 
ATOM      7  C   UNL     1      31.620  22.126  14.135  0.00  0.00    +0.303 C 
ATOM      8  O   UNL     1      30.870  22.847  14.778  0.00  0.00    -0.253 OA
ATOM      9  N   UNL     1      32.166  20.981  14.663  0.00  0.00    -0.293 N 
ATOM     10  C   UNL     1      32.889  21.566  12.017  0.00  0.00    +0.205 C 
ATOM     11  C   UNL     1      33.514  22.184  10.752  0.00  0.00    +0.233 C 
ATOM     12  O   UNL     1      34.073  21.467   9.921  0.00  0.00    -0.274 OA
ATOM     13  H   UNL     1      32.385  20.275  13.981  0.00  0.00    +0.151 HD
BRANCH   3  15
ATOM     14  C   UNL     1      34.053  25.220   8.915  0.00  0.00    +0.024 C 
ATOM     15  C   UNL     1      34.612  24.204   9.902  0.00  0.00    +0.104 C 
ENDBRANCH   3  15
ENDBRANCH   1   9
BRANCH   1  16
ATOM     16  C   UNL     1      31.475  18.953  15.773  0.00  0.00    -0.024 A 
ATOM     17  C   UNL     1      32.347  18.143  15.021  0.00  0.00    +0.009 A 
ATOM     18  C   UNL     1      32.042  16.813  14.749  0.00  0.00    +0.049 A 
ATOM     19  C   UNL     1      30.833  16.270  15.182  0.00  0.00    +0.156 A 
ATOM     20  C   UNL     1      29.991  17.046  15.984  0.00  0.00    +0.165 A 
ATOM     21  F   UNL     1      28.844  16.535  16.455  0.00  0.00    -0.202 F 
ATOM     22  C   UNL     1      30.301  18.378  16.278  0.00  0.00    +0.047 A 
BRANCH  19  23
ATOM     23  O   UNL     1      30.405  15.012  14.846  0.00  0.00    -0.489 OA
BRANCH  23  24
ATOM     24  C   UNL     1      30.446  14.728  13.445  0.00  0.00    +0.232 C 
BRANCH  24  25
ATOM     25  C   UNL     1      29.051  14.714  12.911  0.00  0.00    +0.027 C 
ATOM     26  C   UNL     1      27.939  14.085  13.710  0.00  0.00    +0.007 C 
ATOM     27  C   UNL     1      28.416  13.427  12.444  0.00  0.00    +0.007 C 
ENDBRANCH  24  25
ENDBRANCH  23  24
ENDBRANCH  19  23
ENDBRANCH   1  16
TORSDOF 6
ENDMDL
MODEL 4
REMARK VINA RESULT:      -6.5      6.314      8.658
REMARK  Name = ZINC000543478179
REMARK  8 active torsions:
REMARK  status: ('A' for Active; 'I' for Inactive)
REMARK    1  A    between atoms: C_1  and  C_2
REMARK    2  A    between atoms: C_2  and  N_3
REMARK    3  A    between atoms: N_9  and  C_10
REMARK    4  A    between atoms: C_10  and  C_11
REMARK    5  A    between atoms: C_10  and  C_12
REMARK    6  A    between atoms: C_15  and  O_16
REMARK    7  A    between atoms: O_16  and  C_17
REMARK    8  A    between atoms: C_17  and  C_18
REMARK                            x       y       z     vdW  Elec       q    Type
REMARK                         _______ _______ _______ _____ _____    ______ ____
ROOT
ATOM      1  C   UNL     1      32.436  24.624  11.727  0.00  0.00    +0.102 C 
ATOM      2  C   UNL     1      31.191  25.435  11.340  0.00  0.00    +0.033 C 
ENDROOT
BRANCH   1   9
ATOM      3  N   UNL     1      31.235  20.295  16.274  0.00  0.00    -0.299 N 
ATOM      4  C   UNL     1      32.046  21.425  16.729  0.00  0.00    +0.127 C 
ATOM      5  C   UNL     1      33.154  21.773  15.729  0.00  0.00    +0.129 C 
ATOM      6  N   UNL     1      32.553  22.086  14.435  0.00  0.00    -0.275 N 
ATOM      7  C   UNL     1      32.871  23.273  13.791  0.00  0.00    +0.303 C 
ATOM      8  O   UNL     1      33.680  24.078  14.233  0.00  0.00    -0.253 OA
ATOM      9  N   UNL     1      32.178  23.496  12.626  0.00  0.00    -0.293 N 
ATOM     10  C   UNL     1      31.615  21.080  13.934  0.00  0.00    +0.205 C 
ATOM     11  C   UNL     1      31.107  20.009  14.917  0.00  0.00    +0.233 C 
ATOM     12  O   UNL     1      30.496  19.024  14.503  0.00  0.00    -0.274 OA
ATOM     13  H   UNL     1      31.900  22.659  12.144  0.00  0.00    +0.151 HD
BRANCH   3  15
ATOM     14  C   UNL     1      28.993  20.496  17.291  0.00  0.00    +0.024 C 
ATOM     15  C   UNL     1      30.283  19.691  17.204  0.00  0.00    +0.104 C 
ENDBRANCH   3  15
ENDBRANCH   1   9
BRANCH   1  16
ATOM     16  C   UNL     1      33.099  24.071  10.471  0.00  0.00    -0.024 A 
ATOM     17  C   UNL     1      34.501  23.970  10.410  0.00  0.00    +0.009 A 
ATOM     18  C   UNL     1      35.145  23.550   9.250  0.00  0.00    +0.049 A 
ATOM     19  C   UNL     1      34.404  23.264   8.103  0.00  0.00    +0.156 A 
ATOM     20  C   UNL     1      33.009  23.297   8.173  0.00  0.00    +0.165 A 
ATOM     21  F   UNL     1      32.268  22.981   7.101  0.00  0.00    -0.202 F 
ATOM     22  C   UNL     1      32.354  23.700   9.342  0.00  0.00    +0.047 A 
BRANCH  19  23
ATOM     23  O   UNL     1      34.970  22.969   6.891  0.00  0.00    -0.489 OA
BRANCH  23  24
ATOM     24  C   UNL     1      35.540  21.658   6.807  0.00  0.00    +0.232 C 
BRANCH  24  25
ATOM     25  C   UNL     1      34.534  20.730   6.209  0.00  0.00    +0.027 C 
ATOM     26  C   UNL     1      33.897  19.656   7.052  0.00  0.00    +0.007 C 
ATOM     27  C   UNL     1      34.871  19.278   5.969  0.00  0.00    +0.007 C 
ENDBRANCH  24  25
ENDBRANCH  23  24
ENDBRANCH  19  23
ENDBRANCH   1  16
TORSDOF 6
ENDMDL
MODEL 5
REMARK VINA RESULT:      -6.4      4.980      7.321
REMARK  Name = ZINC000543478179
REMARK  8 active torsions:
REMARK  status: ('A' for Active; 'I' for Inactive)
REMARK    1  A    between atoms: C_1  and  C_2
REMARK    2  A    between atoms: C_2  and  N_3
REMARK    3  A    between atoms: N_9  and  C_10
REMARK    4  A    between atoms: C_10  and  C_11
REMARK    5  A    between atoms: C_10  and  C_12
REMARK    6  A    between atoms: C_15  and  O_16
REMARK    7  A    between atoms: O_16  and  C_17
REMARK    8  A    between atoms: C_17  and  C_18
REMARK                            x       y       z     vdW  Elec       q    Type
REMARK                         _______ _______ _______ _____ _____    ______ ____
ROOT
ATOM      1  C   UNL     1      30.225  20.294  15.998  0.00  0.00    +0.102 C 
ATOM      2  C   UNL     1      29.067  20.425  16.998  0.00  0.00    +0.033 C 
ENDROOT
BRANCH   1   9
ATOM      3  N   UNL     1      35.305  23.501  18.184  0.00  0.00    -0.299 N 
ATOM      4  C   UNL     1      34.327  24.338  17.488  0.00  0.00    +0.127 C 
ATOM      5  C   UNL     1      33.842  23.691  16.187  0.00  0.00    +0.129 C 
ATOM      6  N   UNL     1      33.251  22.390  16.488  0.00  0.00    -0.275 N 
ATOM      7  C   UNL     1      31.976  22.085  16.032  0.00  0.00    +0.303 C 
ATOM      8  O   UNL     1      31.315  22.844  15.337  0.00  0.00    -0.253 OA
ATOM      9  N   UNL     1      31.495  20.869  16.451  0.00  0.00    -0.293 N 
ATOM     10  C   UNL     1      34.092  21.505  17.297  0.00  0.00    +0.205 C 
ATOM     11  C   UNL     1      35.310  22.119  18.012  0.00  0.00    +0.233 C 
ATOM     12  O   UNL     1      36.164  21.391  18.521  0.00  0.00    -0.274 OA
ATOM     13  H   UNL     1      32.205  20.178  16.620  0.00  0.00    +0.151 HD
BRANCH   3  15
ATOM     14  C   UNL     1      35.203  24.028  20.595  0.00  0.00    +0.024 C 
ATOM     15  C   UNL     1      36.035  24.062  19.320  0.00  0.00    +0.104 C 
ENDBRANCH   3  15
ENDBRANCH   1   9
BRANCH   1  16
ATOM     16  C   UNL     1      30.470  18.822  15.687  0.00  0.00    -0.024 A 
ATOM     17  C   UNL     1      31.390  18.467  14.683  0.00  0.00    +0.009 A 
ATOM     18  C   UNL     1      31.577  17.138  14.313  0.00  0.00    +0.049 A 
ATOM     19  C   UNL     1      30.812  16.133  14.905  0.00  0.00    +0.156 A 
ATOM     20  C   UNL     1      29.944  16.469  15.947  0.00  0.00    +0.165 A 
ATOM     21  F   UNL     1      29.230  15.518  16.568  0.00  0.00    -0.202 F 
ATOM     22  C   UNL     1      29.766  17.800  16.338  0.00  0.00    +0.047 A 
BRANCH  19  23
ATOM     23  O   UNL     1      30.846  14.823  14.507  0.00  0.00    -0.489 OA
BRANCH  23  24
ATOM     24  C   UNL     1      30.640  14.625  13.104  0.00  0.00    +0.232 C 
BRANCH  24  25
ATOM     25  C   UNL     1      29.180  14.738  12.808  0.00  0.00    +0.027 C 
ATOM     26  C   UNL     1      28.177  13.975  13.632  0.00  0.00    +0.007 C 
ATOM     27  C   UNL     1      28.424  13.581  12.201  0.00  0.00    +0.007 C 
ENDBRANCH  24  25
ENDBRANCH  23  24
ENDBRANCH  19  23
ENDBRANCH   1  16
TORSDOF 6
ENDMDL
MODEL 6
REMARK VINA RESULT:      -6.4      4.181      6.578
REMARK  Name = ZINC000543478179
REMARK  8 active torsions:
REMARK  status: ('A' for Active; 'I' for Inactive)
REMARK    1  A    between atoms: C_1  and  C_2
REMARK    2  A    between atoms: C_2  and  N_3
REMARK    3  A    between atoms: N_9  and  C_10
REMARK    4  A    between atoms: C_10  and  C_11
REMARK    5  A    between atoms: C_10  and  C_12
REMARK    6  A    between atoms: C_15  and  O_16
REMARK    7  A    between atoms: O_16  and  C_17
REMARK    8  A    between atoms: C_17  and  C_18
REMARK                            x       y       z     vdW  Elec       q    Type
REMARK                         _______ _______ _______ _____ _____    ______ ____
ROOT
ATOM      1  C   UNL     1      29.768  21.919  16.096  0.00  0.00    +0.102 C 
ATOM      2  C   UNL     1      28.490  22.002  16.942  0.00  0.00    +0.033 C 
ENDROOT
BRANCH   1   9
ATOM      3  N   UNL     1      34.693  25.388  18.237  0.00  0.00    -0.299 N 
ATOM      4  C   UNL     1      34.383  25.604  16.824  0.00  0.00    +0.127 C 
ATOM      5  C   UNL     1      34.134  24.286  16.084  0.00  0.00    +0.129 C 
ATOM      6  N   UNL     1      33.032  23.575  16.726  0.00  0.00    -0.275 N 
ATOM      7  C   UNL     1      31.956  23.133  15.970  0.00  0.00    +0.303 C 
ATOM      8  O   UNL     1      31.890  23.271  14.756  0.00  0.00    -0.253 OA
ATOM      9  N   UNL     1      30.943  22.556  16.697  0.00  0.00    -0.293 N 
ATOM     10  C   UNL     1      33.169  23.409  18.175  0.00  0.00    +0.205 C 
ATOM     11  C   UNL     1      34.231  24.255  18.903  0.00  0.00    +0.233 C 
ATOM     12  O   UNL     1      34.534  24.002  20.070  0.00  0.00    -0.274 OA
ATOM     13  H   UNL     1      31.246  22.111  17.546  0.00  0.00    +0.151 HD
BRANCH   3  15
ATOM     14  C   UNL     1      35.360  27.766  18.188  0.00  0.00    +0.024 C 
ATOM     15  C   UNL     1      35.175  26.514  19.035  0.00  0.00    +0.104 C 
ENDBRANCH   3  15
ENDBRANCH   1   9
BRANCH   1  16
ATOM     16  C   UNL     1      30.118  20.459  15.836  0.00  0.00    -0.024 A 
ATOM     17  C   UNL     1      29.840  19.490  16.819  0.00  0.00    +0.009 A 
ATOM     18  C   UNL     1      30.223  18.162  16.651  0.00  0.00    +0.049 A 
ATOM     19  C   UNL     1      30.936  17.777  15.516  0.00  0.00    +0.156 A 
ATOM     20  C   UNL     1      31.159  18.717  14.506  0.00  0.00    +0.165 A 
ATOM     21  F   UNL     1      31.799  18.365  13.382  0.00  0.00    -0.202 F 
ATOM     22  C   UNL     1      30.760  20.049  14.659  0.00  0.00    +0.047 A 
BRANCH  19  23
ATOM     23  O   UNL     1      31.456  16.522  15.339  0.00  0.00    -0.489 OA
BRANCH  23  24
ATOM     24  C   UNL     1      30.503  15.463  15.468  0.00  0.00    +0.232 C 
BRANCH  24  25
ATOM     25  C   UNL     1      29.665  15.410  14.232  0.00  0.00    +0.027 C 
ATOM     26  C   UNL     1      28.536  14.419  14.122  0.00  0.00    +0.007 C 
ATOM     27  C   UNL     1      29.770  14.246  13.278  0.00  0.00    +0.007 C 
ENDBRANCH  24  25
ENDBRANCH  23  24
ENDBRANCH  19  23
ENDBRANCH   1  16
TORSDOF 6
ENDMDL
MODEL 7
REMARK VINA RESULT:      -6.4      3.976      9.774
REMARK  Name = ZINC000543478179
REMARK  8 active torsions:
REMARK  status: ('A' for Active; 'I' for Inactive)
REMARK    1  A    between atoms: C_1  and  C_2
REMARK    2  A    between atoms: C_2  and  N_3
REMARK    3  A    between atoms: N_9  and  C_10
REMARK    4  A    between atoms: C_10  and  C_11
REMARK    5  A    between atoms: C_10  and  C_12
REMARK    6  A    between atoms: C_15  and  O_16
REMARK    7  A    between atoms: O_16  and  C_17
REMARK    8  A    between atoms: C_17  and  C_18
REMARK                            x       y       z     vdW  Elec       q    Type
REMARK                         _______ _______ _______ _____ _____    ______ ____
ROOT
ATOM      1  C   UNL     1      25.780  23.377  18.284  0.00  0.00    +0.102 C 
ATOM      2  C   UNL     1      24.908  23.730  17.070  0.00  0.00    +0.033 C 
ENDROOT
BRANCH   1   9
ATOM      3  N   UNL     1      31.853  22.808  16.373  0.00  0.00    -0.299 N 
ATOM      4  C   UNL     1      31.011  21.664  16.024  0.00  0.00    +0.127 C 
ATOM      5  C   UNL     1      30.123  21.229  17.194  0.00  0.00    +0.129 C 
ATOM      6  N   UNL     1      29.284  22.352  17.604  0.00  0.00    -0.275 N 
ATOM      7  C   UNL     1      27.909  22.191  17.706  0.00  0.00    +0.303 C 
ATOM      8  O   UNL     1      27.344  21.124  17.507  0.00  0.00    -0.253 OA
ATOM      9  N   UNL     1      27.220  23.338  18.015  0.00  0.00    -0.293 N 
ATOM     10  C   UNL     1      30.008  23.599  17.859  0.00  0.00    +0.205 C 
ATOM     11  C   UNL     1      31.462  23.706  17.363  0.00  0.00    +0.233 C 
ATOM     12  O   UNL     1      32.179  24.635  17.736  0.00  0.00    -0.274 OA
ATOM     13  H   UNL     1      27.744  24.002  18.559  0.00  0.00    +0.151 HD
BRANCH   3  15
ATOM     14  C   UNL     1      32.900  22.378  14.177  0.00  0.00    +0.024 C 
ATOM     15  C   UNL     1      32.917  23.209  15.454  0.00  0.00    +0.104 C 
ENDBRANCH   3  15
ENDBRANCH   1   9
BRANCH   1  16
ATOM     16  C   UNL     1      25.546  24.392  19.397  0.00  0.00    -0.024 A 
ATOM     17  C   UNL     1      26.181  24.220  20.641  0.00  0.00    +0.009 A 
ATOM     18  C   UNL     1      25.925  25.078  21.706  0.00  0.00    +0.049 A 
ATOM     19  C   UNL     1      24.990  26.105  21.569  0.00  0.00    +0.156 A 
ATOM     20  C   UNL     1      24.404  26.323  20.319  0.00  0.00    +0.165 A 
ATOM     21  F   UNL     1      23.538  27.332  20.144  0.00  0.00    -0.202 F 
ATOM     22  C   UNL     1      24.672  25.476  19.239  0.00  0.00    +0.047 A 
BRANCH  19  23
ATOM     23  O   UNL     1      24.591  26.908  22.605  0.00  0.00    -0.489 OA
BRANCH  23  24
ATOM     24  C   UNL     1      23.542  26.359  23.409  0.00  0.00    +0.232 C 
BRANCH  24  25
ATOM     25  C   UNL     1      22.405  27.327  23.448  0.00  0.00    +0.027 C 
ATOM     26  C   UNL     1      21.058  26.895  23.966  0.00  0.00    +0.007 C 
ATOM     27  C   UNL     1      21.238  27.187  22.501  0.00  0.00    +0.007 C 
ENDBRANCH  24  25
ENDBRANCH  23  24
ENDBRANCH  19  23
ENDBRANCH   1  16
TORSDOF 6
ENDMDL
MODEL 8
REMARK VINA RESULT:      -6.3      6.105     12.251
REMARK  Name = ZINC000543478179
REMARK  8 active torsions:
REMARK  status: ('A' for Active; 'I' for Inactive)
REMARK    1  A    between atoms: C_1  and  C_2
REMARK    2  A    between atoms: C_2  and  N_3
REMARK    3  A    between atoms: N_9  and  C_10
REMARK    4  A    between atoms: C_10  and  C_11
REMARK    5  A    between atoms: C_10  and  C_12
REMARK    6  A    between atoms: C_15  and  O_16
REMARK    7  A    between atoms: O_16  and  C_17
REMARK    8  A    between atoms: C_17  and  C_18
REMARK                            x       y       z     vdW  Elec       q    Type
REMARK                         _______ _______ _______ _____ _____    ______ ____
ROOT
ATOM      1  C   UNL     1      30.057  13.807  12.797  0.00  0.00    +0.102 C 
ATOM      2  C   UNL     1      28.717  13.720  12.054  0.00  0.00    +0.033 C 
ENDROOT
BRANCH   1   9
ATOM      3  N   UNL     1      35.014  13.766   8.759  0.00  0.00    -0.299 N 
ATOM      4  C   UNL     1      34.784  12.487   9.431  0.00  0.00    +0.127 C 
ATOM      5  C   UNL     1      34.515  12.667  10.929  0.00  0.00    +0.129 C 
ATOM      6  N   UNL     1      33.354  13.534  11.109  0.00  0.00    -0.275 N 
ATOM      7  C   UNL     1      32.299  13.123  11.910  0.00  0.00    +0.303 C 
ATOM      8  O   UNL     1      32.299  12.066  12.527  0.00  0.00    -0.253 OA
ATOM      9  N   UNL     1      31.228  13.983  11.932  0.00  0.00    -0.293 N 
ATOM     10  C   UNL     1      33.412  14.799  10.374  0.00  0.00    +0.205 C 
ATOM     11  C   UNL     1      34.471  14.945   9.265  0.00  0.00    +0.233 C 
ATOM     12  O   UNL     1      34.706  16.048   8.770  0.00  0.00    -0.274 OA
ATOM     13  H   UNL     1      31.468  14.947  11.781  0.00  0.00    +0.151 HD
BRANCH   3  15
ATOM     14  C   UNL     1      35.558  12.353   6.808  0.00  0.00    +0.024 C 
ATOM     15  C   UNL     1      35.503  13.763   7.382  0.00  0.00    +0.104 C 
ENDBRANCH   3  15
ENDBRANCH   1   9
BRANCH   1  16
ATOM     16  C   UNL     1      30.027  14.976  13.775  0.00  0.00    -0.024 A 
ATOM     17  C   UNL     1      30.891  16.070  13.579  0.00  0.00    +0.009 A 
ATOM     18  C   UNL     1      30.951  17.115  14.497  0.00  0.00    +0.049 A 
ATOM     19  C   UNL     1      30.183  17.069  15.661  0.00  0.00    +0.156 A 
ATOM     20  C   UNL     1      29.275  16.020  15.831  0.00  0.00    +0.165 A 
ATOM     21  F   UNL     1      28.489  15.974  16.917  0.00  0.00    -0.202 F 
ATOM     22  C   UNL     1      29.195  14.977  14.902  0.00  0.00    +0.047 A 
BRANCH  19  23
ATOM     23  O   UNL     1      30.281  17.992  16.669  0.00  0.00    -0.489 OA
BRANCH  23  24
ATOM     24  C   UNL     1      30.269  19.353  16.228  0.00  0.00    +0.232 C 
BRANCH  24  25
ATOM     25  C   UNL     1      29.755  20.216  17.334  0.00  0.00    +0.027 C 
ATOM     26  C   UNL     1      28.380  20.825  17.245  0.00  0.00    +0.007 C 
ATOM     27  C   UNL     1      29.596  21.704  17.141  0.00  0.00    +0.007 C 
ENDBRANCH  24  25
ENDBRANCH  23  24
ENDBRANCH  19  23
ENDBRANCH   1  16
TORSDOF 6
ENDMDL
MODEL 9
REMARK VINA RESULT:      -6.3      3.946      9.628
REMARK  Name = ZINC000543478179
REMARK  8 active torsions:
REMARK  status: ('A' for Active; 'I' for Inactive)
REMARK    1  A    between atoms: C_1  and  C_2
REMARK    2  A    between atoms: C_2  and  N_3
REMARK    3  A    between atoms: N_9  and  C_10
REMARK    4  A    between atoms: C_10  and  C_11
REMARK    5  A    between atoms: C_10  and  C_12
REMARK    6  A    between atoms: C_15  and  O_16
REMARK    7  A    between atoms: O_16  and  C_17
REMARK    8  A    between atoms: C_17  and  C_18
REMARK                            x       y       z     vdW  Elec       q    Type
REMARK                         _______ _______ _______ _____ _____    ______ ____
ROOT
ATOM      1  C   UNL     1      25.708  23.410  18.224  0.00  0.00    +0.102 C 
ATOM      2  C   UNL     1      24.850  23.715  16.989  0.00  0.00    +0.033 C 
ENDROOT
BRANCH   1   9
ATOM      3  N   UNL     1      31.790  22.742  16.371  0.00  0.00    -0.299 N 
ATOM      4  C   UNL     1      30.931  21.615  16.008  0.00  0.00    +0.127 C 
ATOM      5  C   UNL     1      30.023  21.190  17.167  0.00  0.00    +0.129 C 
ATOM      6  N   UNL     1      29.201  22.326  17.574  0.00  0.00    -0.275 N 
ATOM      7  C   UNL     1      27.822  22.189  17.662  0.00  0.00    +0.303 C 
ATOM      8  O   UNL     1      27.241  21.133  17.452  0.00  0.00    -0.253 OA
ATOM      9  N   UNL     1      27.150  23.347  17.969  0.00  0.00    -0.293 N 
ATOM     10  C   UNL     1      29.944  23.559  17.842  0.00  0.00    +0.205 C 
ATOM     11  C   UNL     1      31.404  23.642  17.361  0.00  0.00    +0.233 C 
ATOM     12  O   UNL     1      32.134  24.557  17.745  0.00  0.00    -0.274 OA
ATOM     13  H   UNL     1      27.680  23.998  18.521  0.00  0.00    +0.151 HD
BRANCH   3  15
ATOM     14  C   UNL     1      32.459  22.978  14.004  0.00  0.00    +0.024 C 
ATOM     15  C   UNL     1      32.869  23.128  15.463  0.00  0.00    +0.104 C 
ENDBRANCH   3  15
ENDBRANCH   1   9
BRANCH   1  16
ATOM     16  C   UNL     1      25.475  24.476  19.288  0.00  0.00    -0.024 A 
ATOM     17  C   UNL     1      26.174  24.409  20.507  0.00  0.00    +0.009 A 
ATOM     18  C   UNL     1      25.924  25.315  21.533  0.00  0.00    +0.049 A 
ATOM     19  C   UNL     1      24.933  26.285  21.384  0.00  0.00    +0.156 A 
ATOM     20  C   UNL     1      24.279  26.401  20.155  0.00  0.00    +0.165 A 
ATOM     21  F   UNL     1      23.355  27.354  19.965  0.00  0.00    -0.202 F 
ATOM     22  C   UNL     1      24.540  25.505  19.112  0.00  0.00    +0.047 A 
BRANCH  19  23
ATOM     23  O   UNL     1      24.542  27.128  22.391  0.00  0.00    -0.489 OA
BRANCH  23  24
ATOM     24  C   UNL     1      25.568  28.009  22.858  0.00  0.00    +0.232 C 
BRANCH  24  25
ATOM     25  C   UNL     1      25.689  29.158  21.912  0.00  0.00    +0.027 C 
ATOM     26  C   UNL     1      26.858  29.243  20.966  0.00  0.00    +0.007 C 
ATOM     27  C   UNL     1      26.749  30.213  22.110  0.00  0.00    +0.007 C 
ENDBRANCH  24  25
ENDBRANCH  23  24
ENDBRANCH  19  23
ENDBRANCH   1  16
TORSDOF 6
ENDMDL
