MODEL 1
REMARK VINA RESULT:      -6.5      0.000      0.000
REMARK  Name = ZINC000583127796
REMARK  2 active torsions:
REMARK  status: ('A' for Active; 'I' for Inactive)
REMARK    1  A    between atoms: C_2  and  C_4
REMARK    2  A    between atoms: C_7  and  C_8
REMARK                            x       y       z     vdW  Elec       q    Type
REMARK                         _______ _______ _______ _____ _____    ______ ____
ROOT
ATOM      1  C   UNL     1      32.724  18.811  14.646  0.00  0.00    +0.247 C 
ATOM      2  O   UNL     1      33.740  18.642  15.317  0.00  0.00    -0.270 OA
ATOM      3  N   UNL     1      31.892  19.932  14.799  0.00  0.00    -0.297 N 
ATOM      4  C   UNL     1      30.670  20.219  14.042  0.00  0.00    +0.108 C 
ATOM      5  C   UNL     1      30.706  21.587  13.384  0.00  0.00    +0.020 C 
ATOM      6  C   UNL     1      31.082  22.673  14.375  0.00  0.00    +0.011 C 
ATOM      7  C   UNL     1      32.385  22.357  15.150  0.00  0.00    -0.004 C 
ATOM      8  C   UNL     1      32.565  23.473  16.202  0.00  0.00    +0.020 C 
ATOM      9  C   UNL     1      34.026  23.589  16.582  0.00  0.00    +0.070 C 
ATOM     10  S   UNL     1      34.901  23.399  15.021  0.00  0.00    -0.160 S 
ATOM     11  C   UNL     1      33.618  22.399  14.218  0.00  0.00    +0.077 C 
ATOM     12  C   UNL     1      32.251  20.951  15.798  0.00  0.00    +0.115 C 
ENDROOT
BRANCH   1  16
ATOM     13  C   UNL     1      32.076  15.694  11.788  0.00  0.00    +0.037 A 
ATOM     14  C   UNL     1      33.133  16.590  11.593  0.00  0.00    +0.014 A 
ATOM     15  C   UNL     1      33.288  17.681  12.452  0.00  0.00    +0.014 A 
ATOM     16  C   UNL     1      32.453  17.821  13.565  0.00  0.00    +0.037 A 
ATOM     17  C   UNL     1      31.336  16.985  13.699  0.00  0.00    +0.014 A 
ATOM     18  C   UNL     1      31.142  15.930  12.803  0.00  0.00    +0.014 A 
BRANCH  13  20
ATOM     19  N   UNL     1      30.808  14.418  10.152  0.00  0.00    -0.325 N 
ATOM     20  C   UNL     1      31.924  14.485  10.938  0.00  0.00    +0.242 C 
ATOM     21  O   UNL     1      32.784  13.618  10.902  0.00  0.00    -0.270 OA
ATOM     22  H   UNL     1      30.782  13.655   9.486  0.00  0.00    +0.145 HD
ATOM     23  H   UNL     1      30.239  15.229   9.954  0.00  0.00    +0.145 HD
ENDBRANCH  13  20
ENDBRANCH   1  16
TORSDOF 2
ENDMDL
MODEL 2
REMARK VINA RESULT:      -6.3      4.547      7.419
REMARK  Name = ZINC000583127796
REMARK  2 active torsions:
REMARK  status: ('A' for Active; 'I' for Inactive)
REMARK    1  A    between atoms: C_2  and  C_4
REMARK    2  A    between atoms: C_7  and  C_8
REMARK                            x       y       z     vdW  Elec       q    Type
REMARK                         _______ _______ _______ _____ _____    ______ ____
ROOT
ATOM      1  C   UNL     1      33.434  21.472  11.383  0.00  0.00    +0.247 C 
ATOM      2  O   UNL     1      34.064  20.619  10.762  0.00  0.00    -0.270 OA
ATOM      3  N   UNL     1      32.472  21.148  12.354  0.00  0.00    -0.297 N 
ATOM      4  C   UNL     1      31.680  22.094  13.145  0.00  0.00    +0.108 C 
ATOM      5  C   UNL     1      31.810  21.850  14.638  0.00  0.00    +0.020 C 
ATOM      6  C   UNL     1      31.557  20.396  14.989  0.00  0.00    +0.011 C 
ATOM      7  C   UNL     1      32.417  19.415  14.154  0.00  0.00    -0.004 C 
ATOM      8  C   UNL     1      31.959  17.987  14.524  0.00  0.00    +0.020 C 
ATOM      9  C   UNL     1      33.072  17.002  14.239  0.00  0.00    +0.070 C 
ATOM     10  S   UNL     1      34.561  17.853  14.783  0.00  0.00    -0.160 S 
ATOM     11  C   UNL     1      33.914  19.528  14.521  0.00  0.00    +0.077 C 
ATOM     12  C   UNL     1      32.209  19.730  12.647  0.00  0.00    +0.115 C 
ENDROOT
BRANCH   1  16
ATOM     13  C   UNL     1      34.650  25.444  10.359  0.00  0.00    +0.037 A 
ATOM     14  C   UNL     1      35.353  24.749  11.349  0.00  0.00    +0.014 A 
ATOM     15  C   UNL     1      34.899  23.498  11.777  0.00  0.00    +0.014 A 
ATOM     16  C   UNL     1      33.806  22.895  11.146  0.00  0.00    +0.037 A 
ATOM     17  C   UNL     1      33.044  23.635  10.231  0.00  0.00    +0.014 A 
ATOM     18  C   UNL     1      33.460  24.914   9.848  0.00  0.00    +0.014 A 
BRANCH  13  20
ATOM     19  N   UNL     1      35.247  27.773  10.723  0.00  0.00    -0.325 N 
ATOM     20  C   UNL     1      35.144  26.742   9.832  0.00  0.00    +0.242 C 
ATOM     21  O   UNL     1      35.492  26.866   8.668  0.00  0.00    -0.270 OA
ATOM     22  H   UNL     1      35.705  28.609  10.380  0.00  0.00    +0.145 HD
ATOM     23  H   UNL     1      35.237  27.624  11.722  0.00  0.00    +0.145 HD
ENDBRANCH  13  20
ENDBRANCH   1  16
TORSDOF 2
ENDMDL
MODEL 3
REMARK VINA RESULT:      -6.2      3.091      7.127
REMARK  Name = ZINC000583127796
REMARK  2 active torsions:
REMARK  status: ('A' for Active; 'I' for Inactive)
REMARK    1  A    between atoms: C_2  and  C_4
REMARK    2  A    between atoms: C_7  and  C_8
REMARK                            x       y       z     vdW  Elec       q    Type
REMARK                         _______ _______ _______ _____ _____    ______ ____
ROOT
ATOM      1  C   UNL     1      32.600  18.800  12.718  0.00  0.00    +0.247 C 
ATOM      2  O   UNL     1      32.980  19.182  11.612  0.00  0.00    -0.270 OA
ATOM      3  N   UNL     1      32.689  17.460  13.128  0.00  0.00    -0.297 N 
ATOM      4  C   UNL     1      32.270  16.916  14.423  0.00  0.00    +0.108 C 
ATOM      5  C   UNL     1      33.385  16.157  15.120  0.00  0.00    +0.020 C 
ATOM      6  C   UNL     1      34.019  15.129  14.200  0.00  0.00    +0.011 C 
ATOM      7  C   UNL     1      34.471  15.729  12.846  0.00  0.00    -0.004 C 
ATOM      8  C   UNL     1      34.967  14.554  11.976  0.00  0.00    +0.020 C 
ATOM      9  C   UNL     1      35.934  15.064  10.928  0.00  0.00    +0.070 C 
ATOM     10  S   UNL     1      36.930  16.280  11.806  0.00  0.00    -0.160 S 
ATOM     11  C   UNL     1      35.658  16.701  13.030  0.00  0.00    +0.077 C 
ATOM     12  C   UNL     1      33.266  16.471  12.203  0.00  0.00    +0.115 C 
ENDROOT
BRANCH   1  16
ATOM     13  C   UNL     1      31.329  21.544  15.743  0.00  0.00    +0.037 A 
ATOM     14  C   UNL     1      30.370  20.942  14.922  0.00  0.00    +0.014 A 
ATOM     15  C   UNL     1      30.775  20.134  13.856  0.00  0.00    +0.014 A 
ATOM     16  C   UNL     1      32.130  19.844  13.671  0.00  0.00    +0.037 A 
ATOM     17  C   UNL     1      33.091  20.529  14.428  0.00  0.00    +0.014 A 
ATOM     18  C   UNL     1      32.690  21.388  15.455  0.00  0.00    +0.014 A 
BRANCH  13  20
ATOM     19  N   UNL     1      31.777  23.357  17.300  0.00  0.00    -0.325 N 
ATOM     20  C   UNL     1      30.933  22.350  16.927  0.00  0.00    +0.242 C 
ATOM     21  O   UNL     1      29.875  22.155  17.506  0.00  0.00    -0.270 OA
ATOM     22  H   UNL     1      31.432  23.977  18.024  0.00  0.00    +0.145 HD
ATOM     23  H   UNL     1      32.496  23.714  16.686  0.00  0.00    +0.145 HD
ENDBRANCH  13  20
ENDBRANCH   1  16
TORSDOF 2
ENDMDL
MODEL 4
REMARK VINA RESULT:      -6.1      3.342      7.277
REMARK  Name = ZINC000583127796
REMARK  2 active torsions:
REMARK  status: ('A' for Active; 'I' for Inactive)
REMARK    1  A    between atoms: C_2  and  C_4
REMARK    2  A    between atoms: C_7  and  C_8
REMARK                            x       y       z     vdW  Elec       q    Type
REMARK                         _______ _______ _______ _____ _____    ______ ____
ROOT
ATOM      1  C   UNL     1      33.561  17.749  13.633  0.00  0.00    +0.247 C 
ATOM      2  O   UNL     1      33.540  16.733  14.325  0.00  0.00    -0.270 OA
ATOM      3  N   UNL     1      34.170  17.792  12.368  0.00  0.00    -0.297 N 
ATOM      4  C   UNL     1      34.238  18.950  11.473  0.00  0.00    +0.108 C 
ATOM      5  C   UNL     1      33.690  18.646  10.090  0.00  0.00    +0.020 C 
ATOM      6  C   UNL     1      34.308  17.388   9.510  0.00  0.00    +0.011 C 
ATOM      7  C   UNL     1      34.209  16.172  10.464  0.00  0.00    -0.004 C 
ATOM      8  C   UNL     1      34.989  15.015   9.802  0.00  0.00    +0.020 C 
ATOM      9  C   UNL     1      34.480  13.688  10.324  0.00  0.00    +0.070 C 
ATOM     10  S   UNL     1      32.695  13.906  10.406  0.00  0.00    -0.160 S 
ATOM     11  C   UNL     1      32.745  15.706  10.630  0.00  0.00    +0.077 C 
ATOM     12  C   UNL     1      34.803  16.571  11.843  0.00  0.00    +0.115 C 
ENDROOT
BRANCH   1  16
ATOM     13  C   UNL     1      31.485  21.015  15.454  0.00  0.00    +0.037 A 
ATOM     14  C   UNL     1      30.750  20.008  14.820  0.00  0.00    +0.014 A 
ATOM     15  C   UNL     1      31.414  18.997  14.121  0.00  0.00    +0.014 A 
ATOM     16  C   UNL     1      32.810  18.931  14.141  0.00  0.00    +0.037 A 
ATOM     17  C   UNL     1      33.543  19.995  14.687  0.00  0.00    +0.014 A 
ATOM     18  C   UNL     1      32.879  21.042  15.332  0.00  0.00    +0.014 A 
BRANCH  13  20
ATOM     19  N   UNL     1      30.801  23.330  15.748  0.00  0.00    -0.325 N 
ATOM     20  C   UNL     1      30.814  22.064  16.264  0.00  0.00    +0.242 C 
ATOM     21  O   UNL     1      30.253  21.797  17.316  0.00  0.00    -0.270 OA
ATOM     22  H   UNL     1      30.231  24.004  16.247  0.00  0.00    +0.145 HD
ATOM     23  H   UNL     1      31.001  23.518  14.776  0.00  0.00    +0.145 HD
ENDBRANCH  13  20
ENDBRANCH   1  16
TORSDOF 2
ENDMDL
MODEL 5
REMARK VINA RESULT:      -6.0      3.440      7.979
REMARK  Name = ZINC000583127796
REMARK  2 active torsions:
REMARK  status: ('A' for Active; 'I' for Inactive)
REMARK    1  A    between atoms: C_2  and  C_4
REMARK    2  A    between atoms: C_7  and  C_8
REMARK                            x       y       z     vdW  Elec       q    Type
REMARK                         _______ _______ _______ _____ _____    ______ ____
ROOT
ATOM      1  C   UNL     1      34.116  21.578  14.956  0.00  0.00    +0.247 C 
ATOM      2  O   UNL     1      35.204  21.041  15.159  0.00  0.00    -0.270 OA
ATOM      3  N   UNL     1      33.200  21.100  14.004  0.00  0.00    -0.297 N 
ATOM      4  C   UNL     1      31.884  21.668  13.700  0.00  0.00    +0.108 C 
ATOM      5  C   UNL     1      30.771  20.641  13.813  0.00  0.00    +0.020 C 
ATOM      6  C   UNL     1      31.091  19.383  13.027  0.00  0.00    +0.011 C 
ATOM      7  C   UNL     1      32.478  18.790  13.377  0.00  0.00    -0.004 C 
ATOM      8  C   UNL     1      32.718  17.606  12.415  0.00  0.00    +0.020 C 
ATOM      9  C   UNL     1      33.708  16.639  13.028  0.00  0.00    +0.070 C 
ATOM     10  S   UNL     1      33.232  16.566  14.763  0.00  0.00    -0.160 S 
ATOM     11  C   UNL     1      32.501  18.227  14.817  0.00  0.00    +0.077 C 
ATOM     12  C   UNL     1      33.550  19.904  13.221  0.00  0.00    +0.115 C 
ENDROOT
BRANCH   1  16
ATOM     13  C   UNL     1      33.369  24.756  17.720  0.00  0.00    +0.037 A 
ATOM     14  C   UNL     1      32.558  23.617  17.755  0.00  0.00    +0.014 A 
ATOM     15  C   UNL     1      32.713  22.622  16.786  0.00  0.00    +0.014 A 
ATOM     16  C   UNL     1      33.745  22.713  15.846  0.00  0.00    +0.037 A 
ATOM     17  C   UNL     1      34.485  23.900  15.749  0.00  0.00    +0.014 A 
ATOM     18  C   UNL     1      34.289  24.925  16.679  0.00  0.00    +0.014 A 
BRANCH  13  20
ATOM     19  N   UNL     1      32.102  25.879  19.465  0.00  0.00    -0.325 N 
ATOM     20  C   UNL     1      33.278  25.798  18.775  0.00  0.00    +0.242 C 
ATOM     21  O   UNL     1      34.230  26.514  19.048  0.00  0.00    -0.270 OA
ATOM     22  H   UNL     1      32.100  26.503  20.263  0.00  0.00    +0.145 HD
ATOM     23  H   UNL     1      31.419  25.134  19.455  0.00  0.00    +0.145 HD
ENDBRANCH  13  20
ENDBRANCH   1  16
TORSDOF 2
ENDMDL
MODEL 6
REMARK VINA RESULT:      -6.0      2.993      7.415
REMARK  Name = ZINC000583127796
REMARK  2 active torsions:
REMARK  status: ('A' for Active; 'I' for Inactive)
REMARK    1  A    between atoms: C_2  and  C_4
REMARK    2  A    between atoms: C_7  and  C_8
REMARK                            x       y       z     vdW  Elec       q    Type
REMARK                         _______ _______ _______ _____ _____    ______ ____
ROOT
ATOM      1  C   UNL     1      31.444  19.420  13.679  0.00  0.00    +0.247 C 
ATOM      2  O   UNL     1      30.665  19.487  12.730  0.00  0.00    -0.270 OA
ATOM      3  N   UNL     1      32.113  18.236  14.029  0.00  0.00    -0.297 N 
ATOM      4  C   UNL     1      33.060  18.064  15.134  0.00  0.00    +0.108 C 
ATOM      5  C   UNL     1      34.390  17.495  14.673  0.00  0.00    +0.020 C 
ATOM      6  C   UNL     1      34.200  16.247  13.830  0.00  0.00    +0.011 C 
ATOM      7  C   UNL     1      33.210  16.456  12.658  0.00  0.00    -0.004 C 
ATOM      8  C   UNL     1      33.018  15.082  11.980  0.00  0.00    +0.020 C 
ATOM      9  C   UNL     1      32.574  15.275  10.546  0.00  0.00    +0.070 C 
ATOM     10  S   UNL     1      33.565  16.660   9.963  0.00  0.00    -0.160 S 
ATOM     11  C   UNL     1      33.791  17.417  11.596  0.00  0.00    +0.077 C 
ATOM     12  C   UNL     1      31.880  17.025  13.225  0.00  0.00    +0.115 C 
ENDROOT
BRANCH   1  16
ATOM     13  C   UNL     1      32.616  22.878  15.907  0.00  0.00    +0.037 A 
ATOM     14  C   UNL     1      31.463  22.182  16.285  0.00  0.00    +0.014 A 
ATOM     15  C   UNL     1      31.002  21.122  15.500  0.00  0.00    +0.014 A 
ATOM     16  C   UNL     1      31.746  20.689  14.398  0.00  0.00    +0.037 A 
ATOM     17  C   UNL     1      32.840  21.451  13.964  0.00  0.00    +0.014 A 
ATOM     18  C   UNL     1      33.266  22.552  14.712  0.00  0.00    +0.014 A 
BRANCH  13  20
ATOM     19  N   UNL     1      32.460  24.304  17.871  0.00  0.00    -0.325 N 
ATOM     20  C   UNL     1      33.172  23.964  16.756  0.00  0.00    +0.242 C 
ATOM     21  O   UNL     1      34.243  24.491  16.496  0.00  0.00    -0.270 OA
ATOM     22  H   UNL     1      32.914  24.951  18.505  0.00  0.00    +0.145 HD
ATOM     23  H   UNL     1      31.739  23.707  18.253  0.00  0.00    +0.145 HD
ENDBRANCH  13  20
ENDBRANCH   1  16
TORSDOF 2
ENDMDL
MODEL 7
REMARK VINA RESULT:      -5.9      3.562      7.276
REMARK  Name = ZINC000583127796
REMARK  2 active torsions:
REMARK  status: ('A' for Active; 'I' for Inactive)
REMARK    1  A    between atoms: C_2  and  C_4
REMARK    2  A    between atoms: C_7  and  C_8
REMARK                            x       y       z     vdW  Elec       q    Type
REMARK                         _______ _______ _______ _____ _____    ______ ____
ROOT
ATOM      1  C   UNL     1      32.185  17.052  13.294  0.00  0.00    +0.247 C 
ATOM      2  O   UNL     1      31.274  16.422  12.760  0.00  0.00    -0.270 OA
ATOM      3  N   UNL     1      33.438  16.483  13.576  0.00  0.00    -0.297 N 
ATOM      4  C   UNL     1      34.580  17.155  14.200  0.00  0.00    +0.108 C 
ATOM      5  C   UNL     1      35.842  17.053  13.361  0.00  0.00    +0.020 C 
ATOM      6  C   UNL     1      36.124  15.619  12.953  0.00  0.00    +0.011 C 
ATOM      7  C   UNL     1      34.910  14.933  12.279  0.00  0.00    -0.004 C 
ATOM      8  C   UNL     1      35.300  13.458  12.043  0.00  0.00    +0.020 C 
ATOM      9  C   UNL     1      34.471  12.883  10.914  0.00  0.00    +0.070 C 
ATOM     10  S   UNL     1      34.404  14.209   9.700  0.00  0.00    -0.160 S 
ATOM     11  C   UNL     1      34.609  15.557  10.897  0.00  0.00    +0.077 C 
ATOM     12  C   UNL     1      33.676  15.076  13.211  0.00  0.00    +0.115 C 
ENDROOT
BRANCH   1  16
ATOM     13  C   UNL     1      31.148  21.161  13.879  0.00  0.00    +0.037 A 
ATOM     14  C   UNL     1      32.000  20.816  12.825  0.00  0.00    +0.014 A 
ATOM     15  C   UNL     1      32.441  19.497  12.690  0.00  0.00    +0.014 A 
ATOM     16  C   UNL     1      31.952  18.503  13.542  0.00  0.00    +0.037 A 
ATOM     17  C   UNL     1      31.184  18.868  14.657  0.00  0.00    +0.014 A 
ATOM     18  C   UNL     1      30.793  20.198  14.831  0.00  0.00    +0.014 A 
BRANCH  13  20
ATOM     19  N   UNL     1      30.731  23.138  15.233  0.00  0.00    -0.325 N 
ATOM     20  C   UNL     1      30.605  22.538  14.011  0.00  0.00    +0.242 C 
ATOM     21  O   UNL     1      30.117  23.124  13.058  0.00  0.00    -0.270 OA
ATOM     22  H   UNL     1      30.474  24.117  15.271  0.00  0.00    +0.145 HD
ATOM     23  H   UNL     1      31.366  22.794  15.939  0.00  0.00    +0.145 HD
ENDBRANCH  13  20
ENDBRANCH   1  16
TORSDOF 2
ENDMDL
MODEL 8
REMARK VINA RESULT:      -5.9      3.622      7.624
REMARK  Name = ZINC000583127796
REMARK  2 active torsions:
REMARK  status: ('A' for Active; 'I' for Inactive)
REMARK    1  A    between atoms: C_2  and  C_4
REMARK    2  A    between atoms: C_7  and  C_8
REMARK                            x       y       z     vdW  Elec       q    Type
REMARK                         _______ _______ _______ _____ _____    ______ ____
ROOT
ATOM      1  C   UNL     1      34.188  16.875  12.644  0.00  0.00    +0.247 C 
ATOM      2  O   UNL     1      35.171  16.908  13.381  0.00  0.00    -0.270 OA
ATOM      3  N   UNL     1      34.045  15.934  11.612  0.00  0.00    -0.297 N 
ATOM      4  C   UNL     1      32.910  15.815  10.692  0.00  0.00    +0.108 C 
ATOM      5  C   UNL     1      32.312  14.419  10.689  0.00  0.00    +0.020 C 
ATOM      6  C   UNL     1      33.377  13.357  10.487  0.00  0.00    +0.011 C 
ATOM      7  C   UNL     1      34.558  13.490  11.480  0.00  0.00    -0.004 C 
ATOM      8  C   UNL     1      35.612  12.439  11.071  0.00  0.00    +0.020 C 
ATOM      9  C   UNL     1      36.480  12.092  12.262  0.00  0.00    +0.070 C 
ATOM     10  S   UNL     1      35.323  12.011  13.638  0.00  0.00    -0.160 S 
ATOM     11  C   UNL     1      34.117  13.164  12.925  0.00  0.00    +0.077 C 
ATOM     12  C   UNL     1      35.111  14.941  11.404  0.00  0.00    +0.115 C 
ENDROOT
BRANCH   1  16
ATOM     13  C   UNL     1      31.257  19.795  13.733  0.00  0.00    +0.037 A 
ATOM     14  C   UNL     1      31.229  18.538  14.347  0.00  0.00    +0.014 A 
ATOM     15  C   UNL     1      32.104  17.536  13.921  0.00  0.00    +0.014 A 
ATOM     16  C   UNL     1      33.076  17.817  12.955  0.00  0.00    +0.037 A 
ATOM     17  C   UNL     1      33.034  19.040  12.271  0.00  0.00    +0.014 A 
ATOM     18  C   UNL     1      32.117  20.023  12.653  0.00  0.00    +0.014 A 
BRANCH  13  20
ATOM     19  N   UNL     1      29.881  20.792  15.472  0.00  0.00    -0.325 N 
ATOM     20  C   UNL     1      30.391  20.904  14.209  0.00  0.00    +0.242 C 
ATOM     21  O   UNL     1      30.187  21.894  13.522  0.00  0.00    -0.270 OA
ATOM     22  H   UNL     1      29.401  21.611  15.828  0.00  0.00    +0.145 HD
ATOM     23  H   UNL     1      30.253  20.140  16.148  0.00  0.00    +0.145 HD
ENDBRANCH  13  20
ENDBRANCH   1  16
TORSDOF 2
ENDMDL
MODEL 9
REMARK VINA RESULT:      -5.9      3.897      8.419
REMARK  Name = ZINC000583127796
REMARK  2 active torsions:
REMARK  status: ('A' for Active; 'I' for Inactive)
REMARK    1  A    between atoms: C_2  and  C_4
REMARK    2  A    between atoms: C_7  and  C_8
REMARK                            x       y       z     vdW  Elec       q    Type
REMARK                         _______ _______ _______ _____ _____    ______ ____
ROOT
ATOM      1  C   UNL     1      33.879  22.928  15.351  0.00  0.00    +0.247 C 
ATOM      2  O   UNL     1      34.827  22.602  14.639  0.00  0.00    -0.270 OA
ATOM      3  N   UNL     1      32.558  22.535  15.082  0.00  0.00    -0.297 N 
ATOM      4  C   UNL     1      31.371  22.869  15.875  0.00  0.00    +0.108 C 
ATOM      5  C   UNL     1      30.591  21.637  16.295  0.00  0.00    +0.020 C 
ATOM      6  C   UNL     1      30.302  20.730  15.113  0.00  0.00    +0.011 C 
ATOM      7  C   UNL     1      31.572  20.375  14.300  0.00  0.00    -0.004 C 
ATOM      8  C   UNL     1      31.108  19.567  13.069  0.00  0.00    +0.020 C 
ATOM      9  C   UNL     1      32.245  18.706  12.562  0.00  0.00    +0.070 C 
ATOM     10  S   UNL     1      33.020  18.078  14.060  0.00  0.00    -0.160 S 
ATOM     11  C   UNL     1      32.524  19.469  15.114  0.00  0.00    +0.077 C 
ATOM     12  C   UNL     1      32.294  21.692  13.904  0.00  0.00    +0.115 C 
ENDROOT
BRANCH   1  16
ATOM     13  C   UNL     1      34.413  25.043  19.031  0.00  0.00    +0.037 A 
ATOM     14  C   UNL     1      34.414  25.757  17.827  0.00  0.00    +0.014 A 
ATOM     15  C   UNL     1      34.357  25.071  16.611  0.00  0.00    +0.014 A 
ATOM     16  C   UNL     1      34.196  23.682  16.596  0.00  0.00    +0.037 A 
ATOM     17  C   UNL     1      34.301  22.963  17.796  0.00  0.00    +0.014 A 
ATOM     18  C   UNL     1      34.422  23.644  19.010  0.00  0.00    +0.014 A 
BRANCH  13  20
ATOM     19  N   UNL     1      33.233  26.351  20.707  0.00  0.00    -0.325 N 
ATOM     20  C   UNL     1      34.402  25.744  20.341  0.00  0.00    +0.242 C 
ATOM     21  O   UNL     1      35.375  25.731  21.079  0.00  0.00    -0.270 OA
ATOM     22  H   UNL     1      33.201  26.710  21.654  0.00  0.00    +0.145 HD
ATOM     23  H   UNL     1      32.353  26.140  20.259  0.00  0.00    +0.145 HD
ENDBRANCH  13  20
ENDBRANCH   1  16
TORSDOF 2
ENDMDL
