MODEL 1
REMARK VINA RESULT:      -7.4      0.000      0.000
REMARK  Name = ZINC000543478179
REMARK  8 active torsions:
REMARK  status: ('A' for Active; 'I' for Inactive)
REMARK    1  A    between atoms: C_1  and  C_2
REMARK    2  A    between atoms: C_2  and  N_3
REMARK    3  A    between atoms: N_9  and  C_10
REMARK    4  A    between atoms: C_10  and  C_11
REMARK    5  A    between atoms: C_10  and  C_12
REMARK    6  A    between atoms: C_15  and  O_16
REMARK    7  A    between atoms: O_16  and  C_17
REMARK    8  A    between atoms: C_17  and  C_18
REMARK                            x       y       z     vdW  Elec       q    Type
REMARK                         _______ _______ _______ _____ _____    ______ ____
ROOT
ATOM      1  C   UNL     1      28.505  21.501  16.695  0.00  0.00    +0.102 C 
ATOM      2  C   UNL     1      27.135  22.016  17.142  0.00  0.00    +0.033 C 
ENDROOT
BRANCH   1   9
ATOM      3  N   UNL     1      33.242  23.106  14.557  0.00  0.00    -0.299 N 
ATOM      4  C   UNL     1      33.730  22.759  15.891  0.00  0.00    +0.127 C 
ATOM      5  C   UNL     1      32.778  23.241  16.988  0.00  0.00    +0.129 C 
ATOM      6  N   UNL     1      31.436  22.688  16.780  0.00  0.00    -0.275 N 
ATOM      7  C   UNL     1      30.760  22.159  17.842  0.00  0.00    +0.303 C 
ATOM      8  O   UNL     1      31.263  22.118  18.970  0.00  0.00    -0.253 OA
ATOM      9  N   UNL     1      29.520  21.635  17.736  0.00  0.00    -0.293 N 
ATOM     10  C   UNL     1      30.947  22.784  15.413  0.00  0.00    +0.205 C 
ATOM     11  C   UNL     1      31.892  23.242  14.301  0.00  0.00    +0.233 C 
ATOM     12  O   UNL     1      31.440  23.581  13.205  0.00  0.00    -0.274 OA
ATOM     13  H   UNL     1      29.241  21.289  18.646  0.00  0.00    +0.151 HD
BRANCH   3  15
ATOM     14  C   UNL     1      35.215  24.345  13.810  0.00  0.00    +0.024 C 
ATOM     15  C   UNL     1      34.186  23.282  13.470  0.00  0.00    +0.104 C 
ENDBRANCH   3  15
ENDBRANCH   1   9
BRANCH   1  16
ATOM     16  C   UNL     1      28.445  20.064  16.210  0.00  0.00    -0.024 A 
ATOM     17  C   UNL     1      27.363  19.230  16.516  0.00  0.00    +0.009 A 
ATOM     18  C   UNL     1      27.334  17.905  16.078  0.00  0.00    +0.049 A 
ATOM     19  C   UNL     1      28.411  17.372  15.356  0.00  0.00    +0.156 A 
ATOM     20  C   UNL     1      29.469  18.213  15.019  0.00  0.00    +0.165 A 
ATOM     21  F   UNL     1      30.500  17.751  14.294  0.00  0.00    -0.202 F 
ATOM     22  C   UNL     1      29.500  19.539  15.446  0.00  0.00    +0.047 A 
BRANCH  19  23
ATOM     23  O   UNL     1      28.503  16.067  14.959  0.00  0.00    -0.489 OA
BRANCH  23  24
ATOM     24  C   UNL     1      27.806  15.754  13.753  0.00  0.00    +0.232 C 
BRANCH  24  25
ATOM     25  C   UNL     1      28.591  14.746  12.974  0.00  0.00    +0.027 C 
ATOM     26  C   UNL     1      29.995  15.083  12.539  0.00  0.00    +0.007 C 
ATOM     27  C   UNL     1      28.897  14.982  11.516  0.00  0.00    +0.007 C 
ENDBRANCH  24  25
ENDBRANCH  23  24
ENDBRANCH  19  23
ENDBRANCH   1  16
TORSDOF 6
ENDMDL
MODEL 2
REMARK VINA RESULT:      -7.0      1.315      1.715
REMARK  Name = ZINC000543478179
REMARK  8 active torsions:
REMARK  status: ('A' for Active; 'I' for Inactive)
REMARK    1  A    between atoms: C_1  and  C_2
REMARK    2  A    between atoms: C_2  and  N_3
REMARK    3  A    between atoms: N_9  and  C_10
REMARK    4  A    between atoms: C_10  and  C_11
REMARK    5  A    between atoms: C_10  and  C_12
REMARK    6  A    between atoms: C_15  and  O_16
REMARK    7  A    between atoms: O_16  and  C_17
REMARK    8  A    between atoms: C_17  and  C_18
REMARK                            x       y       z     vdW  Elec       q    Type
REMARK                         _______ _______ _______ _____ _____    ______ ____
ROOT
ATOM      1  C   UNL     1      27.984  20.074  16.696  0.00  0.00    +0.102 C 
ATOM      2  C   UNL     1      26.473  20.099  16.936  0.00  0.00    +0.033 C 
ENDROOT
BRANCH   1   9
ATOM      3  N   UNL     1      32.549  22.914  15.869  0.00  0.00    -0.299 N 
ATOM      4  C   UNL     1      32.864  22.412  17.205  0.00  0.00    +0.127 C 
ATOM      5  C   UNL     1      31.653  22.487  18.140  0.00  0.00    +0.129 C 
ATOM      6  N   UNL     1      30.523  21.745  17.573  0.00  0.00    -0.275 N 
ATOM      7  C   UNL     1      29.807  20.905  18.377  0.00  0.00    +0.303 C 
ATOM      8  O   UNL     1      30.103  20.740  19.565  0.00  0.00    -0.253 OA
ATOM      9  N   UNL     1      28.749  20.190  17.934  0.00  0.00    -0.293 N 
ATOM     10  C   UNL     1      30.269  22.012  16.165  0.00  0.00    +0.205 C 
ATOM     11  C   UNL     1      31.268  22.843  15.360  0.00  0.00    +0.233 C 
ATOM     12  O   UNL     1      30.948  23.298  14.259  0.00  0.00    -0.274 OA
ATOM     13  H   UNL     1      28.400  19.629  18.702  0.00  0.00    +0.151 HD
BRANCH   3  15
ATOM     14  C   UNL     1      34.354  24.563  15.781  0.00  0.00    +0.024 C 
ATOM     15  C   UNL     1      33.605  23.469  15.043  0.00  0.00    +0.104 C 
ENDBRANCH   3  15
ENDBRANCH   1   9
BRANCH   1  16
ATOM     16  C   UNL     1      28.420  18.839  15.930  0.00  0.00    -0.024 A 
ATOM     17  C   UNL     1      27.586  17.722  15.798  0.00  0.00    +0.009 A 
ATOM     18  C   UNL     1      28.012  16.587  15.108  0.00  0.00    +0.049 A 
ATOM     19  C   UNL     1      29.303  16.528  14.566  0.00  0.00    +0.156 A 
ATOM     20  C   UNL     1      30.119  17.653  14.663  0.00  0.00    +0.165 A 
ATOM     21  F   UNL     1      31.347  17.651  14.121  0.00  0.00    -0.202 F 
ATOM     22  C   UNL     1      29.697  18.793  15.344  0.00  0.00    +0.047 A 
BRANCH  19  23
ATOM     23  O   UNL     1      29.831  15.430  13.945  0.00  0.00    -0.489 OA
BRANCH  23  24
ATOM     24  C   UNL     1      29.498  15.301  12.563  0.00  0.00    +0.232 C 
BRANCH  24  25
ATOM     25  C   UNL     1      30.695  14.817  11.808  0.00  0.00    +0.027 C 
ATOM     26  C   UNL     1      32.053  14.887  12.458  0.00  0.00    +0.007 C 
ATOM     27  C   UNL     1      31.726  15.797  11.307  0.00  0.00    +0.007 C 
ENDBRANCH  24  25
ENDBRANCH  23  24
ENDBRANCH  19  23
ENDBRANCH   1  16
TORSDOF 6
ENDMDL
MODEL 3
REMARK VINA RESULT:      -7.0      3.728      7.446
REMARK  Name = ZINC000543478179
REMARK  8 active torsions:
REMARK  status: ('A' for Active; 'I' for Inactive)
REMARK    1  A    between atoms: C_1  and  C_2
REMARK    2  A    between atoms: C_2  and  N_3
REMARK    3  A    between atoms: N_9  and  C_10
REMARK    4  A    between atoms: C_10  and  C_11
REMARK    5  A    between atoms: C_10  and  C_12
REMARK    6  A    between atoms: C_15  and  O_16
REMARK    7  A    between atoms: O_16  and  C_17
REMARK    8  A    between atoms: C_17  and  C_18
REMARK                            x       y       z     vdW  Elec       q    Type
REMARK                         _______ _______ _______ _____ _____    ______ ____
ROOT
ATOM      1  C   UNL     1      28.822  17.019  16.082  0.00  0.00    +0.102 C 
ATOM      2  C   UNL     1      28.552  16.401  17.456  0.00  0.00    +0.033 C 
ENDROOT
BRANCH   1   9
ATOM      3  N   UNL     1      31.650  15.395  11.729  0.00  0.00    -0.299 N 
ATOM      4  C   UNL     1      30.315  15.335  11.135  0.00  0.00    +0.127 C 
ATOM      5  C   UNL     1      29.292  14.724  12.097  0.00  0.00    +0.129 C 
ATOM      6  N   UNL     1      29.255  15.480  13.352  0.00  0.00    -0.275 N 
ATOM      7  C   UNL     1      28.047  15.813  13.895  0.00  0.00    +0.303 C 
ATOM      8  O   UNL     1      26.986  15.509  13.341  0.00  0.00    -0.253 OA
ATOM      9  N   UNL     1      27.926  16.502  15.051  0.00  0.00    -0.293 N 
ATOM     10  C   UNL     1      30.563  15.788  13.911  0.00  0.00    +0.205 C 
ATOM     11  C   UNL     1      31.822  15.502  13.094  0.00  0.00    +0.233 C 
ATOM     12  O   UNL     1      32.929  15.505  13.640  0.00  0.00    -0.274 OA
ATOM     13  H   UNL     1      26.941  16.645  15.235  0.00  0.00    +0.151 HD
BRANCH   3  15
ATOM     14  C   UNL     1      33.011  16.708  10.176  0.00  0.00    +0.024 C 
ATOM     15  C   UNL     1      32.819  15.372  10.870  0.00  0.00    +0.104 C 
ENDBRANCH   3  15
ENDBRANCH   1   9
BRANCH   1  16
ATOM     16  C   UNL     1      28.757  18.535  16.115  0.00  0.00    -0.024 A 
ATOM     17  C   UNL     1      29.777  19.326  15.573  0.00  0.00    +0.009 A 
ATOM     18  C   UNL     1      29.709  20.719  15.630  0.00  0.00    +0.049 A 
ATOM     19  C   UNL     1      28.635  21.352  16.269  0.00  0.00    +0.156 A 
ATOM     20  C   UNL     1      27.602  20.567  16.774  0.00  0.00    +0.165 A 
ATOM     21  F   UNL     1      26.536  21.137  17.357  0.00  0.00    -0.202 F 
ATOM     22  C   UNL     1      27.659  19.176  16.713  0.00  0.00    +0.047 A 
BRANCH  19  23
ATOM     23  O   UNL     1      28.529  22.704  16.442  0.00  0.00    -0.489 OA
BRANCH  23  24
ATOM     24  C   UNL     1      29.705  23.343  16.940  0.00  0.00    +0.232 C 
BRANCH  24  25
ATOM     25  C   UNL     1      29.781  23.155  18.422  0.00  0.00    +0.027 C 
ATOM     26  C   UNL     1      31.124  23.226  19.105  0.00  0.00    +0.007 C 
ATOM     27  C   UNL     1      30.403  21.909  19.001  0.00  0.00    +0.007 C 
ENDBRANCH  24  25
ENDBRANCH  23  24
ENDBRANCH  19  23
ENDBRANCH   1  16
TORSDOF 6
ENDMDL
MODEL 4
REMARK VINA RESULT:      -6.9      1.286      1.688
REMARK  Name = ZINC000543478179
REMARK  8 active torsions:
REMARK  status: ('A' for Active; 'I' for Inactive)
REMARK    1  A    between atoms: C_1  and  C_2
REMARK    2  A    between atoms: C_2  and  N_3
REMARK    3  A    between atoms: N_9  and  C_10
REMARK    4  A    between atoms: C_10  and  C_11
REMARK    5  A    between atoms: C_10  and  C_12
REMARK    6  A    between atoms: C_15  and  O_16
REMARK    7  A    between atoms: O_16  and  C_17
REMARK    8  A    between atoms: C_17  and  C_18
REMARK                            x       y       z     vdW  Elec       q    Type
REMARK                         _______ _______ _______ _____ _____    ______ ____
ROOT
ATOM      1  C   UNL     1      29.027  22.118  16.951  0.00  0.00    +0.102 C 
ATOM      2  C   UNL     1      27.592  22.586  17.202  0.00  0.00    +0.033 C 
ENDROOT
BRANCH   1   9
ATOM      3  N   UNL     1      33.976  23.294  15.024  0.00  0.00    -0.299 N 
ATOM      4  C   UNL     1      34.321  23.237  16.443  0.00  0.00    +0.127 C 
ATOM      5  C   UNL     1      33.266  23.926  17.313  0.00  0.00    +0.129 C 
ATOM      6  N   UNL     1      31.947  23.327  17.087  0.00  0.00    -0.275 N 
ATOM      7  C   UNL     1      31.161  23.023  18.162  0.00  0.00    +0.303 C 
ATOM      8  O   UNL     1      31.544  23.223  19.319  0.00  0.00    -0.253 OA
ATOM      9  N   UNL     1      29.931  22.476  18.040  0.00  0.00    -0.293 N 
ATOM     10  C   UNL     1      31.603  23.133  15.687  0.00  0.00    +0.205 C 
ATOM     11  C   UNL     1      32.661  23.359  14.608  0.00  0.00    +0.233 C 
ATOM     12  O   UNL     1      32.327  23.458  13.425  0.00  0.00    -0.274 OA
ATOM     13  H   UNL     1      29.557  22.324  18.969  0.00  0.00    +0.151 HD
BRANCH   3  15
ATOM     14  C   UNL     1      35.824  24.542  14.018  0.00  0.00    +0.024 C 
ATOM     15  C   UNL     1      35.029  23.250  14.026  0.00  0.00    +0.104 C 
ENDBRANCH   3  15
ENDBRANCH   1   9
BRANCH   1  16
ATOM     16  C   UNL     1      29.102  20.626  16.682  0.00  0.00    -0.024 A 
ATOM     17  C   UNL     1      30.323  19.940  16.679  0.00  0.00    +0.009 A 
ATOM     18  C   UNL     1      30.374  18.572  16.410  0.00  0.00    +0.049 A 
ATOM     19  C   UNL     1      29.205  17.865  16.097  0.00  0.00    +0.156 A 
ATOM     20  C   UNL     1      27.987  18.539  16.138  0.00  0.00    +0.165 A 
ATOM     21  F   UNL     1      26.841  17.888  15.885  0.00  0.00    -0.202 F 
ATOM     22  C   UNL     1      27.928  19.903  16.414  0.00  0.00    +0.047 A 
BRANCH  19  23
ATOM     23  O   UNL     1      29.173  16.545  15.743  0.00  0.00    -0.489 OA
BRANCH  23  24
ATOM     24  C   UNL     1      29.735  16.250  14.464  0.00  0.00    +0.232 C 
BRANCH  24  25
ATOM     25  C   UNL     1      28.672  16.360  13.418  0.00  0.00    +0.027 C 
ATOM     26  C   UNL     1      27.393  15.576  13.582  0.00  0.00    +0.007 C 
ATOM     27  C   UNL     1      28.375  15.193  12.509  0.00  0.00    +0.007 C 
ENDBRANCH  24  25
ENDBRANCH  23  24
ENDBRANCH  19  23
ENDBRANCH   1  16
TORSDOF 6
ENDMDL
MODEL 5
REMARK VINA RESULT:      -6.7      3.023      5.208
REMARK  Name = ZINC000543478179
REMARK  8 active torsions:
REMARK  status: ('A' for Active; 'I' for Inactive)
REMARK    1  A    between atoms: C_1  and  C_2
REMARK    2  A    between atoms: C_2  and  N_3
REMARK    3  A    between atoms: N_9  and  C_10
REMARK    4  A    between atoms: C_10  and  C_11
REMARK    5  A    between atoms: C_10  and  C_12
REMARK    6  A    between atoms: C_15  and  O_16
REMARK    7  A    between atoms: O_16  and  C_17
REMARK    8  A    between atoms: C_17  and  C_18
REMARK                            x       y       z     vdW  Elec       q    Type
REMARK                         _______ _______ _______ _____ _____    ______ ____
ROOT
ATOM      1  C   UNL     1      28.534  16.461  14.181  0.00  0.00    +0.102 C 
ATOM      2  C   UNL     1      27.272  15.754  13.683  0.00  0.00    +0.033 C 
ENDROOT
BRANCH   1   9
ATOM      3  N   UNL     1      30.219  21.293  16.026  0.00  0.00    -0.299 N 
ATOM      4  C   UNL     1      30.376  20.537  17.268  0.00  0.00    +0.127 C 
ATOM      5  C   UNL     1      29.194  19.595  17.514  0.00  0.00    +0.129 C 
ATOM      6  N   UNL     1      29.026  18.680  16.381  0.00  0.00    -0.275 N 
ATOM      7  C   UNL     1      28.818  17.352  16.623  0.00  0.00    +0.303 C 
ATOM      8  O   UNL     1      28.790  16.902  17.773  0.00  0.00    -0.253 OA
ATOM      9  N   UNL     1      28.647  16.445  15.637  0.00  0.00    -0.293 N 
ATOM     10  C   UNL     1      29.082  19.318  15.075  0.00  0.00    +0.205 C 
ATOM     11  C   UNL     1      29.497  20.785  14.965  0.00  0.00    +0.233 C 
ATOM     12  O   UNL     1      29.298  21.408  13.919  0.00  0.00    -0.274 OA
ATOM     13  H   UNL     1      28.534  15.531  16.060  0.00  0.00    +0.151 HD
BRANCH   3  15
ATOM     14  C   UNL     1      30.396  23.541  16.976  0.00  0.00    +0.024 C 
ATOM     15  C   UNL     1      30.857  22.588  15.889  0.00  0.00    +0.104 C 
ENDBRANCH   3  15
ENDBRANCH   1   9
BRANCH   1  16
ATOM     16  C   UNL     1      29.793  15.890  13.555  0.00  0.00    -0.024 A 
ATOM     17  C   UNL     1      29.741  15.040  12.444  0.00  0.00    +0.009 A 
ATOM     18  C   UNL     1      30.909  14.508  11.894  0.00  0.00    +0.049 A 
ATOM     19  C   UNL     1      32.155  14.782  12.473  0.00  0.00    +0.156 A 
ATOM     20  C   UNL     1      32.210  15.658  13.554  0.00  0.00    +0.165 A 
ATOM     21  F   UNL     1      33.389  15.979  14.111  0.00  0.00    -0.202 F 
ATOM     22  C   UNL     1      31.049  16.199  14.103  0.00  0.00    +0.047 A 
BRANCH  19  23
ATOM     23  O   UNL     1      33.338  14.241  12.051  0.00  0.00    -0.489 OA
BRANCH  23  24
ATOM     24  C   UNL     1      33.633  14.441  10.669  0.00  0.00    +0.232 C 
BRANCH  24  25
ATOM     25  C   UNL     1      34.155  15.828  10.468  0.00  0.00    +0.027 C 
ATOM     26  C   UNL     1      33.234  16.890   9.921  0.00  0.00    +0.007 C 
ATOM     27  C   UNL     1      34.363  16.369   9.075  0.00  0.00    +0.007 C 
ENDBRANCH  24  25
ENDBRANCH  23  24
ENDBRANCH  19  23
ENDBRANCH   1  16
TORSDOF 6
ENDMDL
MODEL 6
REMARK VINA RESULT:      -6.6      2.223      3.285
REMARK  Name = ZINC000543478179
REMARK  8 active torsions:
REMARK  status: ('A' for Active; 'I' for Inactive)
REMARK    1  A    between atoms: C_1  and  C_2
REMARK    2  A    between atoms: C_2  and  N_3
REMARK    3  A    between atoms: N_9  and  C_10
REMARK    4  A    between atoms: C_10  and  C_11
REMARK    5  A    between atoms: C_10  and  C_12
REMARK    6  A    between atoms: C_15  and  O_16
REMARK    7  A    between atoms: O_16  and  C_17
REMARK    8  A    between atoms: C_17  and  C_18
REMARK                            x       y       z     vdW  Elec       q    Type
REMARK                         _______ _______ _______ _____ _____    ______ ____
ROOT
ATOM      1  C   UNL     1      30.971  22.506  16.331  0.00  0.00    +0.102 C 
ATOM      2  C   UNL     1      30.666  23.597  17.361  0.00  0.00    +0.033 C 
ENDROOT
BRANCH   1   9
ATOM      3  N   UNL     1      32.992  24.076  11.531  0.00  0.00    -0.299 N 
ATOM      4  C   UNL     1      34.139  23.292  11.986  0.00  0.00    +0.127 C 
ATOM      5  C   UNL     1      34.448  23.540  13.465  0.00  0.00    +0.129 C 
ATOM      6  N   UNL     1      33.272  23.243  14.289  0.00  0.00    -0.275 N 
ATOM      7  C   UNL     1      33.426  22.510  15.431  0.00  0.00    +0.303 C 
ATOM      8  O   UNL     1      34.530  22.075  15.774  0.00  0.00    -0.253 OA
ATOM      9  N   UNL     1      32.397  22.199  16.248  0.00  0.00    -0.293 N 
ATOM     10  C   UNL     1      32.025  23.801  13.787  0.00  0.00    +0.205 C 
ATOM     11  C   UNL     1      31.987  24.447  12.402  0.00  0.00    +0.233 C 
ATOM     12  O   UNL     1      31.028  25.149  12.073  0.00  0.00    -0.274 OA
ATOM     13  H   UNL     1      32.753  21.636  17.011  0.00  0.00    +0.151 HD
BRANCH   3  15
ATOM     14  C   UNL     1      33.285  23.296   9.231  0.00  0.00    +0.024 C 
ATOM     15  C   UNL     1      32.886  24.449  10.133  0.00  0.00    +0.104 C 
ENDBRANCH   3  15
ENDBRANCH   1   9
BRANCH   1  16
ATOM     16  C   UNL     1      30.180  21.237  16.592  0.00  0.00    -0.024 A 
ATOM     17  C   UNL     1      30.808  20.046  16.974  0.00  0.00    +0.009 A 
ATOM     18  C   UNL     1      30.066  18.883  17.189  0.00  0.00    +0.049 A 
ATOM     19  C   UNL     1      28.679  18.878  16.986  0.00  0.00    +0.156 A 
ATOM     20  C   UNL     1      28.051  20.072  16.642  0.00  0.00    +0.165 A 
ATOM     21  F   UNL     1      26.719  20.117  16.478  0.00  0.00    -0.202 F 
ATOM     22  C   UNL     1      28.784  21.238  16.434  0.00  0.00    +0.047 A 
BRANCH  19  23
ATOM     23  O   UNL     1      27.888  17.768  17.094  0.00  0.00    -0.489 OA
BRANCH  23  24
ATOM     24  C   UNL     1      28.336  16.634  16.352  0.00  0.00    +0.232 C 
BRANCH  24  25
ATOM     25  C   UNL     1      28.105  16.872  14.894  0.00  0.00    +0.027 C 
ATOM     26  C   UNL     1      27.598  15.742  14.034  0.00  0.00    +0.007 C 
ATOM     27  C   UNL     1      29.008  16.237  13.866  0.00  0.00    +0.007 C 
ENDBRANCH  24  25
ENDBRANCH  23  24
ENDBRANCH  19  23
ENDBRANCH   1  16
TORSDOF 6
ENDMDL
MODEL 7
REMARK VINA RESULT:      -6.5      2.799      7.126
REMARK  Name = ZINC000543478179
REMARK  8 active torsions:
REMARK  status: ('A' for Active; 'I' for Inactive)
REMARK    1  A    between atoms: C_1  and  C_2
REMARK    2  A    between atoms: C_2  and  N_3
REMARK    3  A    between atoms: N_9  and  C_10
REMARK    4  A    between atoms: C_10  and  C_11
REMARK    5  A    between atoms: C_10  and  C_12
REMARK    6  A    between atoms: C_15  and  O_16
REMARK    7  A    between atoms: O_16  and  C_17
REMARK    8  A    between atoms: C_17  and  C_18
REMARK                            x       y       z     vdW  Elec       q    Type
REMARK                         _______ _______ _______ _____ _____    ______ ____
ROOT
ATOM      1  C   UNL     1      30.046  20.074  17.214  0.00  0.00    +0.102 C 
ATOM      2  C   UNL     1      30.280  20.588  18.637  0.00  0.00    +0.033 C 
ENDROOT
BRANCH   1   9
ATOM      3  N   UNL     1      29.815  15.943  13.683  0.00  0.00    -0.299 N 
ATOM      4  C   UNL     1      28.389  16.263  13.711  0.00  0.00    +0.127 C 
ATOM      5  C   UNL     1      27.898  16.548  15.133  0.00  0.00    +0.129 C 
ATOM      6  N   UNL     1      28.675  17.638  15.733  0.00  0.00    -0.275 N 
ATOM      7  C   UNL     1      28.021  18.633  16.401  0.00  0.00    +0.303 C 
ATOM      8  O   UNL     1      26.789  18.646  16.494  0.00  0.00    -0.253 OA
ATOM      9  N   UNL     1      28.661  19.668  16.987  0.00  0.00    -0.293 N 
ATOM     10  C   UNL     1      30.115  17.522  15.558  0.00  0.00    +0.205 C 
ATOM     11  C   UNL     1      30.681  16.445  14.634  0.00  0.00    +0.233 C 
ATOM     12  O   UNL     1      31.881  16.161  14.677  0.00  0.00    -0.274 OA
ATOM     13  H   UNL     1      27.968  20.282  17.396  0.00  0.00    +0.151 HD
BRANCH   3  15
ATOM     14  C   UNL     1      29.311  14.902  11.527  0.00  0.00    +0.024 C 
ATOM     15  C   UNL     1      30.343  15.108  12.620  0.00  0.00    +0.104 C 
ENDBRANCH   3  15
ENDBRANCH   1   9
BRANCH   1  16
ATOM     16  C   UNL     1      30.470  21.085  16.165  0.00  0.00    -0.024 A 
ATOM     17  C   UNL     1      29.794  21.205  14.944  0.00  0.00    +0.009 A 
ATOM     18  C   UNL     1      30.212  22.126  13.983  0.00  0.00    +0.049 A 
ATOM     19  C   UNL     1      31.343  22.922  14.206  0.00  0.00    +0.156 A 
ATOM     20  C   UNL     1      31.992  22.830  15.434  0.00  0.00    +0.165 A 
ATOM     21  F   UNL     1      33.055  23.605  15.702  0.00  0.00    -0.202 F 
ATOM     22  C   UNL     1      31.576  21.918  16.402  0.00  0.00    +0.047 A 
BRANCH  19  23
ATOM     23  O   UNL     1      31.869  23.790  13.290  0.00  0.00    -0.489 OA
BRANCH  23  24
ATOM     24  C   UNL     1      32.811  23.214  12.385  0.00  0.00    +0.232 C 
BRANCH  24  25
ATOM     25  C   UNL     1      33.124  24.198  11.302  0.00  0.00    +0.027 C 
ATOM     26  C   UNL     1      33.111  23.740   9.865  0.00  0.00    +0.007 C 
ATOM     27  C   UNL     1      34.414  24.092  10.528  0.00  0.00    +0.007 C 
ENDBRANCH  24  25
ENDBRANCH  23  24
ENDBRANCH  19  23
ENDBRANCH   1  16
TORSDOF 6
ENDMDL
MODEL 8
REMARK VINA RESULT:      -6.5      4.981      9.237
REMARK  Name = ZINC000543478179
REMARK  8 active torsions:
REMARK  status: ('A' for Active; 'I' for Inactive)
REMARK    1  A    between atoms: C_1  and  C_2
REMARK    2  A    between atoms: C_2  and  N_3
REMARK    3  A    between atoms: N_9  and  C_10
REMARK    4  A    between atoms: C_10  and  C_11
REMARK    5  A    between atoms: C_10  and  C_12
REMARK    6  A    between atoms: C_15  and  O_16
REMARK    7  A    between atoms: O_16  and  C_17
REMARK    8  A    between atoms: C_17  and  C_18
REMARK                            x       y       z     vdW  Elec       q    Type
REMARK                         _______ _______ _______ _____ _____    ______ ____
ROOT
ATOM      1  C   UNL     1      29.971  15.144  12.756  0.00  0.00    +0.102 C 
ATOM      2  C   UNL     1      28.715  15.081  11.884  0.00  0.00    +0.033 C 
ENDROOT
BRANCH   1   9
ATOM      3  N   UNL     1      32.874  10.649  11.780  0.00  0.00    -0.299 N 
ATOM      4  C   UNL     1      33.871  11.629  11.353  0.00  0.00    +0.127 C 
ATOM      5  C   UNL     1      33.243  12.756  10.528  0.00  0.00    +0.129 C 
ATOM      6  N   UNL     1      32.179  13.415  11.292  0.00  0.00    -0.275 N 
ATOM      7  C   UNL     1      32.122  14.780  11.315  0.00  0.00    +0.303 C 
ATOM      8  O   UNL     1      32.959  15.470  10.724  0.00  0.00    -0.253 OA
ATOM      9  N   UNL     1      31.171  15.464  11.987  0.00  0.00    -0.293 N 
ATOM     10  C   UNL     1      31.254  12.506  11.951  0.00  0.00    +0.205 C 
ATOM     11  C   UNL     1      31.555  11.007  11.976  0.00  0.00    +0.233 C 
ATOM     12  O   UNL     1      30.673  10.204  12.288  0.00  0.00    -0.274 OA
ATOM     13  H   UNL     1      31.350  16.454  11.874  0.00  0.00    +0.151 HD
BRANCH   3  15
ATOM     14  C   UNL     1      33.911   9.145  13.408  0.00  0.00    +0.024 C 
ATOM     15  C   UNL     1      33.277   9.279  12.036  0.00  0.00    +0.104 C 
ENDBRANCH   3  15
ENDBRANCH   1   9
BRANCH   1  16
ATOM     16  C   UNL     1      29.817  16.120  13.909  0.00  0.00    -0.024 A 
ATOM     17  C   UNL     1      30.924  16.589  14.627  0.00  0.00    +0.009 A 
ATOM     18  C   UNL     1      30.761  17.470  15.697  0.00  0.00    +0.049 A 
ATOM     19  C   UNL     1      29.480  17.870  16.100  0.00  0.00    +0.156 A 
ATOM     20  C   UNL     1      28.382  17.433  15.362  0.00  0.00    +0.165 A 
ATOM     21  F   UNL     1      27.142  17.827  15.690  0.00  0.00    -0.202 F 
ATOM     22  C   UNL     1      28.538  16.560  14.287  0.00  0.00    +0.047 A 
BRANCH  19  23
ATOM     23  O   UNL     1      29.224  18.663  17.184  0.00  0.00    -0.489 OA
BRANCH  23  24
ATOM     24  C   UNL     1      29.543  20.043  17.009  0.00  0.00    +0.232 C 
BRANCH  24  25
ATOM     25  C   UNL     1      28.473  20.883  17.631  0.00  0.00    +0.027 C 
ATOM     26  C   UNL     1      27.094  20.890  17.020  0.00  0.00    +0.007 C 
ATOM     27  C   UNL     1      27.963  22.114  16.924  0.00  0.00    +0.007 C 
ENDBRANCH  24  25
ENDBRANCH  23  24
ENDBRANCH  19  23
ENDBRANCH   1  16
TORSDOF 6
ENDMDL
MODEL 9
REMARK VINA RESULT:      -6.4      3.418      7.468
REMARK  Name = ZINC000543478179
REMARK  8 active torsions:
REMARK  status: ('A' for Active; 'I' for Inactive)
REMARK    1  A    between atoms: C_1  and  C_2
REMARK    2  A    between atoms: C_2  and  N_3
REMARK    3  A    between atoms: N_9  and  C_10
REMARK    4  A    between atoms: C_10  and  C_11
REMARK    5  A    between atoms: C_10  and  C_12
REMARK    6  A    between atoms: C_15  and  O_16
REMARK    7  A    between atoms: O_16  and  C_17
REMARK    8  A    between atoms: C_17  and  C_18
REMARK                            x       y       z     vdW  Elec       q    Type
REMARK                         _______ _______ _______ _____ _____    ______ ____
ROOT
ATOM      1  C   UNL     1      32.739  22.763  15.063  0.00  0.00    +0.102 C 
ATOM      2  C   UNL     1      34.059  23.057  15.780  0.00  0.00    +0.033 C 
ENDROOT
BRANCH   1   9
ATOM      3  N   UNL     1      29.418  18.777  16.697  0.00  0.00    -0.299 N 
ATOM      4  C   UNL     1      28.527  19.904  16.966  0.00  0.00    +0.127 C 
ATOM      5  C   UNL     1      29.271  21.076  17.613  0.00  0.00    +0.129 C 
ATOM      6  N   UNL     1      30.387  21.503  16.763  0.00  0.00    -0.275 N 
ATOM      7  C   UNL     1      30.578  22.836  16.533  0.00  0.00    +0.303 C 
ATOM      8  O   UNL     1      29.819  23.687  17.008  0.00  0.00    -0.253 OA
ATOM      9  N   UNL     1      31.585  23.313  15.769  0.00  0.00    -0.293 N 
ATOM     10  C   UNL     1      31.211  20.417  16.254  0.00  0.00    +0.205 C 
ATOM     11  C   UNL     1      30.764  18.970  16.455  0.00  0.00    +0.233 C 
ATOM     12  O   UNL     1      31.560  18.045  16.273  0.00  0.00    -0.274 OA
ATOM     13  H   UNL     1      31.505  24.322  15.730  0.00  0.00    +0.151 HD
BRANCH   3  15
ATOM     14  C   UNL     1      28.764  16.843  18.045  0.00  0.00    +0.024 C 
ATOM     15  C   UNL     1      28.879  17.431  16.651  0.00  0.00    +0.104 C 
ENDBRANCH   3  15
ENDBRANCH   1   9
BRANCH   1  16
ATOM     16  C   UNL     1      32.749  23.250  13.626  0.00  0.00    -0.024 A 
ATOM     17  C   UNL     1      33.609  22.698  12.669  0.00  0.00    +0.009 A 
ATOM     18  C   UNL     1      33.619  23.172  11.356  0.00  0.00    +0.049 A 
ATOM     19  C   UNL     1      32.795  24.242  10.981  0.00  0.00    +0.156 A 
ATOM     20  C   UNL     1      31.912  24.765  11.923  0.00  0.00    +0.165 A 
ATOM     21  F   UNL     1      31.077  25.763  11.592  0.00  0.00    -0.202 F 
ATOM     22  C   UNL     1      31.891  24.291  13.233  0.00  0.00    +0.047 A 
BRANCH  19  23
ATOM     23  O   UNL     1      32.798  24.821   9.743  0.00  0.00    -0.489 OA
BRANCH  23  24
ATOM     24  C   UNL     1      33.815  24.349   8.860  0.00  0.00    +0.232 C 
BRANCH  24  25
ATOM     25  C   UNL     1      33.179  23.648   7.702  0.00  0.00    +0.027 C 
ATOM     26  C   UNL     1      32.531  22.304   7.920  0.00  0.00    +0.007 C 
ATOM     27  C   UNL     1      33.807  22.401   7.130  0.00  0.00    +0.007 C 
ENDBRANCH  24  25
ENDBRANCH  23  24
ENDBRANCH  19  23
ENDBRANCH   1  16
TORSDOF 6
ENDMDL
