MODEL 1
REMARK VINA RESULT:      -6.7      0.000      0.000
REMARK  Name = ZINC000870248439
REMARK  2 active torsions:
REMARK  status: ('A' for Active; 'I' for Inactive)
REMARK    1  A    between atoms: C_2  and  C_4
REMARK    2  A    between atoms: C_7  and  C_8
REMARK                            x       y       z     vdW  Elec       q    Type
REMARK                         _______ _______ _______ _____ _____    ______ ____
ROOT
ATOM      1  C   UNL     1      30.138  23.430  13.155  0.00  0.00    +0.247 C 
ATOM      2  O   UNL     1      29.373  24.075  12.439  0.00  0.00    -0.270 OA
ATOM      3  N   UNL     1      31.531  23.444  12.997  0.00  0.00    -0.297 N 
ATOM      4  C   UNL     1      32.486  22.671  13.795  0.00  0.00    +0.108 C 
ATOM      5  C   UNL     1      33.775  23.427  14.092  0.00  0.00    +0.026 C 
ATOM      6  C   UNL     1      34.426  24.055  12.841  0.00  0.00    -0.025 C 
ATOM      7  C   UNL     1      35.585  24.962  13.327  0.00  0.00    +0.017 C 
ATOM      8  C   UNL     1      36.376  25.645  12.220  0.00  0.00    +0.069 C 
ATOM      9  S   UNL     1      37.159  24.457  11.097  0.00  0.00    -0.161 S 
ATOM     10  C   UNL     1      35.715  23.441  10.682  0.00  0.00    +0.069 C 
ATOM     11  C   UNL     1      34.995  22.938  11.929  0.00  0.00    +0.017 C 
ATOM     12  C   UNL     1      33.334  24.901  12.135  0.00  0.00    +0.026 C 
ATOM     13  C   UNL     1      32.073  24.099  11.810  0.00  0.00    +0.108 C 
ENDROOT
BRANCH   1  17
ATOM     14  C   UNL     1      28.134  21.271  16.245  0.00  0.00    +0.037 A 
ATOM     15  C   UNL     1      28.711  22.511  16.540  0.00  0.00    +0.014 A 
ATOM     16  C   UNL     1      29.451  23.178  15.564  0.00  0.00    +0.014 A 
ATOM     17  C   UNL     1      29.534  22.658  14.269  0.00  0.00    +0.037 A 
ATOM     18  C   UNL     1      29.034  21.377  14.000  0.00  0.00    +0.014 A 
ATOM     19  C   UNL     1      28.342  20.678  14.993  0.00  0.00    +0.014 A 
BRANCH  14  21
ATOM     20  N   UNL     1      27.596  19.248  17.480  0.00  0.00    -0.325 N 
ATOM     21  C   UNL     1      27.297  20.561  17.244  0.00  0.00    +0.242 C 
ATOM     22  O   UNL     1      26.418  21.135  17.868  0.00  0.00    -0.270 OA
ATOM     23  H   UNL     1      27.102  18.810  18.248  0.00  0.00    +0.145 HD
ATOM     24  H   UNL     1      28.466  18.829  17.185  0.00  0.00    +0.145 HD
ENDBRANCH  14  21
ENDBRANCH   1  17
TORSDOF 2
ENDMDL
MODEL 2
REMARK VINA RESULT:      -6.7      2.150      3.035
REMARK  Name = ZINC000870248439
REMARK  2 active torsions:
REMARK  status: ('A' for Active; 'I' for Inactive)
REMARK    1  A    between atoms: C_2  and  C_4
REMARK    2  A    between atoms: C_7  and  C_8
REMARK                            x       y       z     vdW  Elec       q    Type
REMARK                         _______ _______ _______ _____ _____    ______ ____
ROOT
ATOM      1  C   UNL     1      31.396  22.011  15.613  0.00  0.00    +0.247 C 
ATOM      2  O   UNL     1      32.073  21.161  16.190  0.00  0.00    -0.270 OA
ATOM      3  N   UNL     1      31.833  22.694  14.470  0.00  0.00    -0.297 N 
ATOM      4  C   UNL     1      31.086  23.738  13.764  0.00  0.00    +0.108 C 
ATOM      5  C   UNL     1      31.248  23.675  12.250  0.00  0.00    +0.026 C 
ATOM      6  C   UNL     1      32.718  23.588  11.787  0.00  0.00    -0.025 C 
ATOM      7  C   UNL     1      32.709  23.312  10.263  0.00  0.00    +0.017 C 
ATOM      8  C   UNL     1      34.084  23.229   9.614  0.00  0.00    +0.069 C 
ATOM      9  S   UNL     1      35.027  24.767   9.799  0.00  0.00    -0.161 S 
ATOM     10  C   UNL     1      34.884  24.992  11.593  0.00  0.00    +0.069 C 
ATOM     11  C   UNL     1      33.434  24.937  12.060  0.00  0.00    +0.017 C 
ATOM     12  C   UNL     1      33.367  22.405  12.551  0.00  0.00    +0.026 C 
ATOM     13  C   UNL     1      33.227  22.524  14.069  0.00  0.00    +0.108 C 
ENDROOT
BRANCH   1  17
ATOM     14  C   UNL     1      27.539  22.558  17.359  0.00  0.00    +0.037 A 
ATOM     15  C   UNL     1      27.672  21.730  16.239  0.00  0.00    +0.014 A 
ATOM     16  C   UNL     1      28.908  21.622  15.603  0.00  0.00    +0.014 A 
ATOM     17  C   UNL     1      30.031  22.260  16.139  0.00  0.00    +0.037 A 
ATOM     18  C   UNL     1      29.879  23.158  17.204  0.00  0.00    +0.014 A 
ATOM     19  C   UNL     1      28.628  23.315  17.807  0.00  0.00    +0.014 A 
BRANCH  14  21
ATOM     20  N   UNL     1      26.100  23.710  18.944  0.00  0.00    -0.325 N 
ATOM     21  C   UNL     1      26.250  22.654  18.089  0.00  0.00    +0.242 C 
ATOM     22  O   UNL     1      25.343  21.859  17.896  0.00  0.00    -0.270 OA
ATOM     23  H   UNL     1      25.177  23.833  19.341  0.00  0.00    +0.145 HD
ATOM     24  H   UNL     1      26.712  24.513  18.925  0.00  0.00    +0.145 HD
ENDBRANCH  14  21
ENDBRANCH   1  17
TORSDOF 2
ENDMDL
MODEL 3
REMARK VINA RESULT:      -6.5      1.028      1.077
REMARK  Name = ZINC000870248439
REMARK  2 active torsions:
REMARK  status: ('A' for Active; 'I' for Inactive)
REMARK    1  A    between atoms: C_2  and  C_4
REMARK    2  A    between atoms: C_7  and  C_8
REMARK                            x       y       z     vdW  Elec       q    Type
REMARK                         _______ _______ _______ _____ _____    ______ ____
ROOT
ATOM      1  C   UNL     1      30.545  23.699  13.816  0.00  0.00    +0.247 C 
ATOM      2  O   UNL     1      30.020  24.808  13.729  0.00  0.00    -0.270 OA
ATOM      3  N   UNL     1      31.742  23.363  13.170  0.00  0.00    -0.297 N 
ATOM      4  C   UNL     1      32.392  22.051  13.210  0.00  0.00    +0.108 C 
ATOM      5  C   UNL     1      33.913  22.133  13.264  0.00  0.00    +0.026 C 
ATOM      6  C   UNL     1      34.521  23.059  12.188  0.00  0.00    -0.025 C 
ATOM      7  C   UNL     1      36.030  23.211  12.507  0.00  0.00    +0.017 C 
ATOM      8  C   UNL     1      36.813  24.070  11.524  0.00  0.00    +0.069 C 
ATOM      9  S   UNL     1      36.762  23.407   9.836  0.00  0.00    -0.161 S 
ATOM     10  C   UNL     1      34.969  23.217   9.644  0.00  0.00    +0.069 C 
ATOM     11  C   UNL     1      34.355  22.416  10.787  0.00  0.00    +0.017 C 
ATOM     12  C   UNL     1      33.800  24.428  12.305  0.00  0.00    +0.026 C 
ATOM     13  C   UNL     1      32.279  24.313  12.199  0.00  0.00    +0.108 C 
ENDROOT
BRANCH   1  17
ATOM     14  C   UNL     1      28.405  21.003  16.342  0.00  0.00    +0.037 A 
ATOM     15  C   UNL     1      29.330  21.886  16.911  0.00  0.00    +0.014 A 
ATOM     16  C   UNL     1      30.104  22.702  16.086  0.00  0.00    +0.014 A 
ATOM     17  C   UNL     1      29.888  22.708  14.704  0.00  0.00    +0.037 A 
ATOM     18  C   UNL     1      29.028  21.762  14.130  0.00  0.00    +0.014 A 
ATOM     19  C   UNL     1      28.294  20.901  14.950  0.00  0.00    +0.014 A 
BRANCH  14  21
ATOM     20  N   UNL     1      27.889  18.851  17.347  0.00  0.00    -0.325 N 
ATOM     21  C   UNL     1      27.529  20.161  17.195  0.00  0.00    +0.242 C 
ATOM     22  O   UNL     1      26.562  20.626  17.779  0.00  0.00    -0.270 OA
ATOM     23  H   UNL     1      27.358  18.319  18.025  0.00  0.00    +0.145 HD
ATOM     24  H   UNL     1      28.808  18.510  17.101  0.00  0.00    +0.145 HD
ENDBRANCH  14  21
ENDBRANCH   1  17
TORSDOF 2
ENDMDL
MODEL 4
REMARK VINA RESULT:      -6.3      3.882      7.834
REMARK  Name = ZINC000870248439
REMARK  2 active torsions:
REMARK  status: ('A' for Active; 'I' for Inactive)
REMARK    1  A    between atoms: C_2  and  C_4
REMARK    2  A    between atoms: C_7  and  C_8
REMARK                            x       y       z     vdW  Elec       q    Type
REMARK                         _______ _______ _______ _____ _____    ______ ____
ROOT
ATOM      1  C   UNL     1      31.683  24.212  11.385  0.00  0.00    +0.247 C 
ATOM      2  O   UNL     1      30.633  24.655  10.919  0.00  0.00    -0.270 OA
ATOM      3  N   UNL     1      31.882  23.993  12.755  0.00  0.00    -0.297 N 
ATOM      4  C   UNL     1      33.119  23.502  13.367  0.00  0.00    +0.108 C 
ATOM      5  C   UNL     1      32.878  22.553  14.534  0.00  0.00    +0.026 C 
ATOM      6  C   UNL     1      31.879  23.096  15.578  0.00  0.00    -0.025 C 
ATOM      7  C   UNL     1      31.573  21.945  16.570  0.00  0.00    +0.017 C 
ATOM      8  C   UNL     1      30.624  22.306  17.704  0.00  0.00    +0.069 C 
ATOM      9  S   UNL     1      31.267  23.650  18.739  0.00  0.00    -0.161 S 
ATOM     10  C   UNL     1      31.641  24.868  17.450  0.00  0.00    +0.069 C 
ATOM     11  C   UNL     1      32.517  24.281  16.348  0.00  0.00    +0.017 C 
ATOM     12  C   UNL     1      30.596  23.507  14.810  0.00  0.00    +0.026 C 
ATOM     13  C   UNL     1      30.868  24.497  13.677  0.00  0.00    +0.108 C 
ENDROOT
BRANCH   1  17
ATOM     14  C   UNL     1      34.663  23.382   8.442  0.00  0.00    +0.037 A 
ATOM     15  C   UNL     1      33.548  22.542   8.543  0.00  0.00    +0.014 A 
ATOM     16  C   UNL     1      32.619  22.747   9.563  0.00  0.00    +0.014 A 
ATOM     17  C   UNL     1      32.749  23.845  10.421  0.00  0.00    +0.037 A 
ATOM     18  C   UNL     1      33.909  24.629  10.375  0.00  0.00    +0.014 A 
ATOM     19  C   UNL     1      34.872  24.390   9.392  0.00  0.00    +0.014 A 
BRANCH  14  21
ATOM     20  N   UNL     1      35.582  24.137   6.323  0.00  0.00    -0.325 N 
ATOM     21  C   UNL     1      35.641  23.222   7.337  0.00  0.00    +0.242 C 
ATOM     22  O   UNL     1      36.494  22.348   7.357  0.00  0.00    -0.270 OA
ATOM     23  H   UNL     1      36.329  24.093   5.641  0.00  0.00    +0.145 HD
ATOM     24  H   UNL     1      35.077  25.008   6.408  0.00  0.00    +0.145 HD
ENDBRANCH  14  21
ENDBRANCH   1  17
TORSDOF 2
ENDMDL
MODEL 5
REMARK VINA RESULT:      -6.3      4.679      5.656
REMARK  Name = ZINC000870248439
REMARK  2 active torsions:
REMARK  status: ('A' for Active; 'I' for Inactive)
REMARK    1  A    between atoms: C_2  and  C_4
REMARK    2  A    between atoms: C_7  and  C_8
REMARK                            x       y       z     vdW  Elec       q    Type
REMARK                         _______ _______ _______ _____ _____    ______ ____
ROOT
ATOM      1  C   UNL     1      31.757  22.691  16.640  0.00  0.00    +0.247 C 
ATOM      2  O   UNL     1      32.491  22.279  15.742  0.00  0.00    -0.270 OA
ATOM      3  N   UNL     1      32.195  23.552  17.656  0.00  0.00    -0.297 N 
ATOM      4  C   UNL     1      31.376  24.045  18.765  0.00  0.00    +0.108 C 
ATOM      5  C   UNL     1      31.679  25.490  19.142  0.00  0.00    +0.026 C 
ATOM      6  C   UNL     1      33.183  25.774  19.347  0.00  0.00    -0.025 C 
ATOM      7  C   UNL     1      33.348  27.307  19.503  0.00  0.00    +0.017 C 
ATOM      8  C   UNL     1      34.773  27.780  19.753  0.00  0.00    +0.069 C 
ATOM      9  S   UNL     1      35.475  27.082  21.273  0.00  0.00    -0.161 S 
ATOM     10  C   UNL     1      35.143  25.325  20.977  0.00  0.00    +0.069 C 
ATOM     11  C   UNL     1      33.678  25.071  20.637  0.00  0.00    +0.017 C 
ATOM     12  C   UNL     1      33.919  25.274  18.077  0.00  0.00    +0.026 C 
ATOM     13  C   UNL     1      33.629  23.808  17.756  0.00  0.00    +0.108 C 
ENDROOT
BRANCH   1  17
ATOM     14  C   UNL     1      27.611  21.675  16.736  0.00  0.00    +0.037 A 
ATOM     15  C   UNL     1      28.565  20.685  16.998  0.00  0.00    +0.014 A 
ATOM     16  C   UNL     1      29.922  20.983  16.873  0.00  0.00    +0.014 A 
ATOM     17  C   UNL     1      30.329  22.290  16.584  0.00  0.00    +0.037 A 
ATOM     18  C   UNL     1      29.376  23.255  16.235  0.00  0.00    +0.014 A 
ATOM     19  C   UNL     1      28.015  22.943  16.301  0.00  0.00    +0.014 A 
BRANCH  14  21
ATOM     20  N   UNL     1      25.777  20.093  16.938  0.00  0.00    -0.325 N 
ATOM     21  C   UNL     1      26.162  21.404  16.911  0.00  0.00    +0.242 C 
ATOM     22  O   UNL     1      25.357  22.308  17.078  0.00  0.00    -0.270 OA
ATOM     23  H   UNL     1      24.809  19.919  17.180  0.00  0.00    +0.145 HD
ATOM     24  H   UNL     1      26.435  19.338  17.068  0.00  0.00    +0.145 HD
ENDBRANCH  14  21
ENDBRANCH   1  17
TORSDOF 2
ENDMDL
MODEL 6
REMARK VINA RESULT:      -6.3     24.295     26.189
REMARK  Name = ZINC000870248439
REMARK  2 active torsions:
REMARK  status: ('A' for Active; 'I' for Inactive)
REMARK    1  A    between atoms: C_2  and  C_4
REMARK    2  A    between atoms: C_7  and  C_8
REMARK                            x       y       z     vdW  Elec       q    Type
REMARK                         _______ _______ _______ _____ _____    ______ ____
ROOT
ATOM      1  C   UNL     1      20.110   7.970  29.688  0.00  0.00    +0.247 C 
ATOM      2  O   UNL     1      20.295   8.942  28.956  0.00  0.00    -0.270 OA
ATOM      3  N   UNL     1      21.151   7.269  30.310  0.00  0.00    -0.297 N 
ATOM      4  C   UNL     1      20.993   6.086  31.160  0.00  0.00    +0.108 C 
ATOM      5  C   UNL     1      21.957   6.058  32.339  0.00  0.00    +0.026 C 
ATOM      6  C   UNL     1      23.428   6.305  31.943  0.00  0.00    -0.025 C 
ATOM      7  C   UNL     1      24.241   6.466  33.252  0.00  0.00    +0.017 C 
ATOM      8  C   UNL     1      25.736   6.683  33.061  0.00  0.00    +0.069 C 
ATOM      9  S   UNL     1      26.527   5.301  32.192  0.00  0.00    -0.161 S 
ATOM     10  C   UNL     1      25.436   5.192  30.748  0.00  0.00    +0.069 C 
ATOM     11  C   UNL     1      23.969   5.088  31.149  0.00  0.00    +0.017 C 
ATOM     12  C   UNL     1      23.463   7.617  31.116  0.00  0.00    +0.026 C 
ATOM     13  C   UNL     1      22.519   7.592  29.914  0.00  0.00    +0.108 C 
ENDROOT
BRANCH   1  17
ATOM     14  C   UNL     1      16.153   6.725  30.700  0.00  0.00    +0.037 A 
ATOM     15  C   UNL     1      16.844   6.052  29.687  0.00  0.00    +0.014 A 
ATOM     16  C   UNL     1      18.098   6.511  29.282  0.00  0.00    +0.014 A 
ATOM     17  C   UNL     1      18.703   7.580  29.952  0.00  0.00    +0.037 A 
ATOM     18  C   UNL     1      17.974   8.308  30.902  0.00  0.00    +0.014 A 
ATOM     19  C   UNL     1      16.693   7.886  31.268  0.00  0.00    +0.014 A 
BRANCH  14  21
ATOM     20  N   UNL     1      13.925   7.172  31.563  0.00  0.00    -0.325 N 
ATOM     21  C   UNL     1      14.842   6.230  31.189  0.00  0.00    +0.242 C 
ATOM     22  O   UNL     1      14.573   5.039  31.207  0.00  0.00    -0.270 OA
ATOM     23  H   UNL     1      12.997   6.830  31.776  0.00  0.00    +0.145 HD
ATOM     24  H   UNL     1      14.018   8.147  31.313  0.00  0.00    +0.145 HD
ENDBRANCH  14  21
ENDBRANCH   1  17
TORSDOF 2
ENDMDL
MODEL 7
REMARK VINA RESULT:      -6.2      6.152      7.599
REMARK  Name = ZINC000870248439
REMARK  2 active torsions:
REMARK  status: ('A' for Active; 'I' for Inactive)
REMARK    1  A    between atoms: C_2  and  C_4
REMARK    2  A    between atoms: C_7  and  C_8
REMARK                            x       y       z     vdW  Elec       q    Type
REMARK                         _______ _______ _______ _____ _____    ______ ____
ROOT
ATOM      1  C   UNL     1      31.590  24.311  18.995  0.00  0.00    +0.247 C 
ATOM      2  O   UNL     1      30.926  25.254  19.424  0.00  0.00    -0.270 OA
ATOM      3  N   UNL     1      32.663  23.745  19.696  0.00  0.00    -0.297 N 
ATOM      4  C   UNL     1      33.508  22.648  19.219  0.00  0.00    +0.108 C 
ATOM      5  C   UNL     1      33.915  21.677  20.320  0.00  0.00    +0.026 C 
ATOM      6  C   UNL     1      34.498  22.369  21.571  0.00  0.00    -0.025 C 
ATOM      7  C   UNL     1      34.654  21.287  22.669  0.00  0.00    +0.017 C 
ATOM      8  C   UNL     1      35.255  21.779  23.979  0.00  0.00    +0.069 C 
ATOM      9  S   UNL     1      36.923  22.458  23.759  0.00  0.00    -0.161 S 
ATOM     10  C   UNL     1      36.594  23.631  22.416  0.00  0.00    +0.069 C 
ATOM     11  C   UNL     1      35.890  22.967  21.239  0.00  0.00    +0.017 C 
ATOM     12  C   UNL     1      33.477  23.450  22.013  0.00  0.00    +0.026 C 
ATOM     13  C   UNL     1      33.129  24.434  20.896  0.00  0.00    +0.108 C 
ENDROOT
BRANCH   1  17
ATOM     14  C   UNL     1      30.169  22.825  15.253  0.00  0.00    +0.037 A 
ATOM     15  C   UNL     1      29.968  22.066  16.411  0.00  0.00    +0.014 A 
ATOM     16  C   UNL     1      30.513  22.496  17.622  0.00  0.00    +0.014 A 
ATOM     17  C   UNL     1      31.173  23.727  17.696  0.00  0.00    +0.037 A 
ATOM     18  C   UNL     1      31.451  24.439  16.522  0.00  0.00    +0.014 A 
ATOM     19  C   UNL     1      30.957  23.982  15.297  0.00  0.00    +0.014 A 
BRANCH  14  21
ATOM     20  N   UNL     1      29.912  23.146  12.857  0.00  0.00    -0.325 N 
ATOM     21  C   UNL     1      29.558  22.423  13.961  0.00  0.00    +0.242 C 
ATOM     22  O   UNL     1      28.815  21.457  13.877  0.00  0.00    -0.270 OA
ATOM     23  H   UNL     1      29.588  22.788  11.968  0.00  0.00    +0.145 HD
ATOM     24  H   UNL     1      30.711  23.765  12.849  0.00  0.00    +0.145 HD
ENDBRANCH  14  21
ENDBRANCH   1  17
TORSDOF 2
ENDMDL
MODEL 8
REMARK VINA RESULT:      -6.1      3.949      7.770
REMARK  Name = ZINC000870248439
REMARK  2 active torsions:
REMARK  status: ('A' for Active; 'I' for Inactive)
REMARK    1  A    between atoms: C_2  and  C_4
REMARK    2  A    between atoms: C_7  and  C_8
REMARK                            x       y       z     vdW  Elec       q    Type
REMARK                         _______ _______ _______ _____ _____    ______ ____
ROOT
ATOM      1  C   UNL     1      31.914  23.726  11.004  0.00  0.00    +0.247 C 
ATOM      2  O   UNL     1      31.035  24.386  10.450  0.00  0.00    -0.270 OA
ATOM      3  N   UNL     1      31.977  23.544  12.392  0.00  0.00    -0.297 N 
ATOM      4  C   UNL     1      33.017  22.801  13.107  0.00  0.00    +0.108 C 
ATOM      5  C   UNL     1      32.484  22.007  14.293  0.00  0.00    +0.026 C 
ATOM      6  C   UNL     1      31.594  22.836  15.244  0.00  0.00    -0.025 C 
ATOM      7  C   UNL     1      30.958  21.853  16.259  0.00  0.00    +0.017 C 
ATOM      8  C   UNL     1      30.067  22.500  17.310  0.00  0.00    +0.069 C 
ATOM      9  S   UNL     1      30.964  23.702  18.330  0.00  0.00    -0.161 S 
ATOM     10  C   UNL     1      31.700  24.716  17.020  0.00  0.00    +0.069 C 
ATOM     11  C   UNL     1      32.463  23.871  16.006  0.00  0.00    +0.017 C 
ATOM     12  C   UNL     1      30.498  23.505  14.374  0.00  0.00    +0.026 C 
ATOM     13  C   UNL     1      31.070  24.332  13.222  0.00  0.00    +0.108 C 
ENDROOT
BRANCH   1  17
ATOM     14  C   UNL     1      34.662  21.947   8.263  0.00  0.00    +0.037 A 
ATOM     15  C   UNL     1      33.596  21.186   8.755  0.00  0.00    +0.014 A 
ATOM     16  C   UNL     1      32.750  21.726   9.724  0.00  0.00    +0.014 A 
ATOM     17  C   UNL     1      32.908  23.055  10.130  0.00  0.00    +0.037 A 
ATOM     18  C   UNL     1      34.027  23.784   9.706  0.00  0.00    +0.014 A 
ATOM     19  C   UNL     1      34.911  23.225   8.780  0.00  0.00    +0.014 A 
BRANCH  14  21
ATOM     20  N   UNL     1      35.934  22.300   6.222  0.00  0.00    -0.325 N 
ATOM     21  C   UNL     1      35.547  21.420   7.195  0.00  0.00    +0.242 C 
ATOM     22  O   UNL     1      35.957  20.270   7.210  0.00  0.00    -0.270 OA
ATOM     23  H   UNL     1      36.632  21.964   5.571  0.00  0.00    +0.145 HD
ATOM     24  H   UNL     1      35.832  23.300   6.325  0.00  0.00    +0.145 HD
ENDBRANCH  14  21
ENDBRANCH   1  17
TORSDOF 2
ENDMDL
MODEL 9
REMARK VINA RESULT:      -6.1      2.400      3.314
REMARK  Name = ZINC000870248439
REMARK  2 active torsions:
REMARK  status: ('A' for Active; 'I' for Inactive)
REMARK    1  A    between atoms: C_2  and  C_4
REMARK    2  A    between atoms: C_7  and  C_8
REMARK                            x       y       z     vdW  Elec       q    Type
REMARK                         _______ _______ _______ _____ _____    ______ ____
ROOT
ATOM      1  C   UNL     1      32.607  21.514  14.076  0.00  0.00    +0.247 C 
ATOM      2  O   UNL     1      33.270  20.613  14.590  0.00  0.00    -0.270 OA
ATOM      3  N   UNL     1      32.969  22.146  12.879  0.00  0.00    -0.297 N 
ATOM      4  C   UNL     1      32.239  23.245  12.242  0.00  0.00    +0.108 C 
ATOM      5  C   UNL     1      32.222  23.155  10.721  0.00  0.00    +0.026 C 
ATOM      6  C   UNL     1      33.617  22.935  10.098  0.00  0.00    -0.025 C 
ATOM      7  C   UNL     1      33.410  22.647   8.589  0.00  0.00    +0.017 C 
ATOM      8  C   UNL     1      34.691  22.437   7.792  0.00  0.00    +0.069 C 
ATOM      9  S   UNL     1      35.778  23.888   7.840  0.00  0.00    -0.161 S 
ATOM     10  C   UNL     1      35.860  24.141   9.634  0.00  0.00    +0.069 C 
ATOM     11  C   UNL     1      34.473  24.218  10.262  0.00  0.00    +0.017 C 
ATOM     12  C   UNL     1      34.244  21.706  10.806  0.00  0.00    +0.026 C 
ATOM     13  C   UNL     1      34.289  21.851  12.327  0.00  0.00    +0.108 C 
ENDROOT
BRANCH   1  17
ATOM     14  C   UNL     1      29.000  22.363  16.196  0.00  0.00    +0.037 A 
ATOM     15  C   UNL     1      28.926  21.780  14.926  0.00  0.00    +0.014 A 
ATOM     16  C   UNL     1      30.093  21.588  14.185  0.00  0.00    +0.014 A 
ATOM     17  C   UNL     1      31.338  21.887  14.748  0.00  0.00    +0.037 A 
ATOM     18  C   UNL     1      31.403  22.552  15.980  0.00  0.00    +0.014 A 
ATOM     19  C   UNL     1      30.231  22.800  16.699  0.00  0.00    +0.014 A 
BRANCH  14  21
ATOM     20  N   UNL     1      27.276  23.796  17.135  0.00  0.00    -0.325 N 
ATOM     21  C   UNL     1      27.783  22.532  17.029  0.00  0.00    +0.242 C 
ATOM     22  O   UNL     1      27.228  21.578  17.554  0.00  0.00    -0.270 OA
ATOM     23  H   UNL     1      26.382  23.880  17.601  0.00  0.00    +0.145 HD
ATOM     24  H   UNL     1      27.549  24.543  16.511  0.00  0.00    +0.145 HD
ENDBRANCH  14  21
ENDBRANCH   1  17
TORSDOF 2
ENDMDL
