MODEL 1
REMARK VINA RESULT:      -6.6      0.000      0.000
REMARK  Name = ZINC001228612316
REMARK  5 active torsions:
REMARK  status: ('A' for Active; 'I' for Inactive)
REMARK    1  A    between atoms: C_2  and  C_4
REMARK    2  A    between atoms: C_8  and  O_9
REMARK    3  A    between atoms: O_9  and  C_10
REMARK    4  A    between atoms: C_10  and  C_11
REMARK    5  A    between atoms: C_10  and  C_17
REMARK                            x       y       z     vdW  Elec       q    Type
REMARK                         _______ _______ _______ _____ _____    ______ ____
ROOT
ATOM      1  C   UNL     1      31.681  14.268  13.142  0.00  0.00    +0.040 A 
ATOM      2  C   UNL     1      32.435  14.596  12.012  0.00  0.00    +0.013 A 
ATOM      3  C   UNL     1      33.228  15.746  12.023  0.00  0.00    +0.004 A 
ATOM      4  C   UNL     1      33.273  16.557  13.162  0.00  0.00    +0.046 A 
ATOM      5  C   UNL     1      32.526  16.227  14.296  0.00  0.00    +0.122 A 
ATOM      6  C   UNL     1      31.711  15.100  14.265  0.00  0.00    +0.058 A 
ENDROOT
BRANCH   1   8
ATOM      7  N   UNL     1      30.210  12.640  12.080  0.00  0.00    -0.325 N 
ATOM      8  C   UNL     1      30.829  13.055  13.224  0.00  0.00    +0.242 C 
ATOM      9  O   UNL     1      30.730  12.407  14.260  0.00  0.00    -0.270 OA
ATOM     10  H   UNL     1      29.758  11.735  12.130  0.00  0.00    +0.145 HD
ATOM     11  H   UNL     1      30.485  12.975  11.168  0.00  0.00    +0.145 HD
ENDBRANCH   1   8
BRANCH   5  12
ATOM     12  O   UNL     1      32.645  17.077  15.361  0.00  0.00    -0.484 OA
BRANCH  12  13
ATOM     13  C   UNL     1      33.444  18.261  15.186  0.00  0.00    +0.208 C 
BRANCH  13  14
ATOM     14  C   UNL     1      32.553  19.479  15.319  0.00  0.00    +0.011 A 
ATOM     15  C   UNL     1      31.924  19.760  16.539  0.00  0.00    +0.010 A 
ATOM     16  C   UNL     1      31.101  20.872  16.660  0.00  0.00    +0.020 A 
ATOM     17  C   UNL     1      30.932  21.679  15.549  0.00  0.00    +0.111 A 
ATOM     18  N   UNL     1      31.514  21.445  14.354  0.00  0.00    -0.263 NA
ATOM     19  C   UNL     1      32.308  20.350  14.264  0.00  0.00    +0.118 A 
ENDBRANCH  13  14
BRANCH  13  20
ATOM     20  C   UNL     1      34.539  18.294  16.230  0.00  0.00    +0.034 C 
ATOM     21  C   UNL     1      35.664  19.307  16.184  0.00  0.00    +0.008 C 
ATOM     22  C   UNL     1      35.953  17.869  15.883  0.00  0.00    +0.008 C 
ENDBRANCH  13  20
ENDBRANCH  12  13
ENDBRANCH   5  12
TORSDOF 5
ENDMDL
MODEL 2
REMARK VINA RESULT:      -6.5      0.637      1.089
REMARK  Name = ZINC001228612316
REMARK  5 active torsions:
REMARK  status: ('A' for Active; 'I' for Inactive)
REMARK    1  A    between atoms: C_2  and  C_4
REMARK    2  A    between atoms: C_8  and  O_9
REMARK    3  A    between atoms: O_9  and  C_10
REMARK    4  A    between atoms: C_10  and  C_11
REMARK    5  A    between atoms: C_10  and  C_17
REMARK                            x       y       z     vdW  Elec       q    Type
REMARK                         _______ _______ _______ _____ _____    ______ ____
ROOT
ATOM      1  C   UNL     1      31.649  14.153  13.100  0.00  0.00    +0.040 A 
ATOM      2  C   UNL     1      32.400  14.434  11.955  0.00  0.00    +0.013 A 
ATOM      3  C   UNL     1      33.189  15.586  11.915  0.00  0.00    +0.004 A 
ATOM      4  C   UNL     1      33.234  16.445  13.018  0.00  0.00    +0.046 A 
ATOM      5  C   UNL     1      32.491  16.162  14.167  0.00  0.00    +0.122 A 
ATOM      6  C   UNL     1      31.680  15.033  14.186  0.00  0.00    +0.058 A 
ENDROOT
BRANCH   1   8
ATOM      7  N   UNL     1      30.227  12.444  12.103  0.00  0.00    -0.325 N 
ATOM      8  C   UNL     1      30.801  12.942  13.237  0.00  0.00    +0.242 C 
ATOM      9  O   UNL     1      30.669  12.368  14.311  0.00  0.00    -0.270 OA
ATOM     10  H   UNL     1      29.777  11.541  12.201  0.00  0.00    +0.145 HD
ATOM     11  H   UNL     1      30.532  12.716  11.180  0.00  0.00    +0.145 HD
ENDBRANCH   1   8
BRANCH   5  12
ATOM     12  O   UNL     1      32.611  17.057  15.194  0.00  0.00    -0.484 OA
BRANCH  12  13
ATOM     13  C   UNL     1      33.412  18.232  14.968  0.00  0.00    +0.208 C 
BRANCH  13  14
ATOM     14  C   UNL     1      32.548  19.461  15.163  0.00  0.00    +0.011 A 
ATOM     15  C   UNL     1      32.372  20.371  14.112  0.00  0.00    +0.010 A 
ATOM     16  C   UNL     1      31.585  21.501  14.291  0.00  0.00    +0.020 A 
ATOM     17  C   UNL     1      30.990  21.690  15.525  0.00  0.00    +0.111 A 
ATOM     18  N   UNL     1      31.135  20.843  16.567  0.00  0.00    -0.263 NA
ATOM     19  C   UNL     1      31.912  19.751  16.364  0.00  0.00    +0.118 A 
ENDBRANCH  13  14
BRANCH  13  20
ATOM     20  C   UNL     1      34.574  18.247  15.936  0.00  0.00    +0.034 C 
ATOM     21  C   UNL     1      35.630  19.333  15.909  0.00  0.00    +0.008 C 
ATOM     22  C   UNL     1      35.982  17.948  15.461  0.00  0.00    +0.008 C 
ENDBRANCH  13  20
ENDBRANCH  12  13
ENDBRANCH   5  12
TORSDOF 5
ENDMDL
MODEL 3
REMARK VINA RESULT:      -6.4      2.389      6.176
REMARK  Name = ZINC001228612316
REMARK  5 active torsions:
REMARK  status: ('A' for Active; 'I' for Inactive)
REMARK    1  A    between atoms: C_2  and  C_4
REMARK    2  A    between atoms: C_8  and  O_9
REMARK    3  A    between atoms: O_9  and  C_10
REMARK    4  A    between atoms: C_10  and  C_11
REMARK    5  A    between atoms: C_10  and  C_17
REMARK                            x       y       z     vdW  Elec       q    Type
REMARK                         _______ _______ _______ _____ _____    ______ ____
ROOT
ATOM      1  C   UNL     1      33.788  18.764  17.338  0.00  0.00    +0.040 A 
ATOM      2  C   UNL     1      33.031  19.927  17.501  0.00  0.00    +0.013 A 
ATOM      3  C   UNL     1      32.189  20.351  16.470  0.00  0.00    +0.004 A 
ATOM      4  C   UNL     1      32.097  19.608  15.289  0.00  0.00    +0.046 A 
ATOM      5  C   UNL     1      32.846  18.440  15.126  0.00  0.00    +0.122 A 
ATOM      6  C   UNL     1      33.710  18.045  16.142  0.00  0.00    +0.058 A 
ENDROOT
BRANCH   1   8
ATOM      7  N   UNL     1      35.934  17.818  18.000  0.00  0.00    -0.325 N 
ATOM      8  C   UNL     1      34.693  18.231  18.388  0.00  0.00    +0.242 C 
ATOM      9  O   UNL     1      34.370  18.219  19.570  0.00  0.00    -0.270 OA
ATOM     10  H   UNL     1      36.577  17.598  18.751  0.00  0.00    +0.145 HD
ATOM     11  H   UNL     1      36.329  18.068  17.105  0.00  0.00    +0.145 HD
ENDBRANCH   1   8
BRANCH   5  12
ATOM     12  O   UNL     1      32.679  17.780  13.940  0.00  0.00    -0.484 OA
BRANCH  12  13
ATOM     13  C   UNL     1      33.212  16.446  13.836  0.00  0.00    +0.208 C 
BRANCH  13  14
ATOM     14  C   UNL     1      32.093  15.499  13.457  0.00  0.00    +0.011 A 
ATOM     15  C   UNL     1      31.722  15.351  12.113  0.00  0.00    +0.010 A 
ATOM     16  C   UNL     1      30.692  14.487  11.764  0.00  0.00    +0.020 A 
ATOM     17  C   UNL     1      30.058  13.789  12.777  0.00  0.00    +0.111 A 
ATOM     18  N   UNL     1      30.378  13.904  14.084  0.00  0.00    -0.263 NA
ATOM     19  C   UNL     1      31.385  14.757  14.394  0.00  0.00    +0.118 A 
ENDBRANCH  13  14
BRANCH  13  20
ATOM     20  C   UNL     1      34.304  16.417  12.790  0.00  0.00    +0.034 C 
ATOM     21  C   UNL     1      35.353  15.324  12.752  0.00  0.00    +0.008 C 
ATOM     22  C   UNL     1      35.744  16.710  13.165  0.00  0.00    +0.008 C 
ENDBRANCH  13  20
ENDBRANCH  12  13
ENDBRANCH   5  12
TORSDOF 5
ENDMDL
MODEL 4
REMARK VINA RESULT:      -6.3      1.905      6.253
REMARK  Name = ZINC001228612316
REMARK  5 active torsions:
REMARK  status: ('A' for Active; 'I' for Inactive)
REMARK    1  A    between atoms: C_2  and  C_4
REMARK    2  A    between atoms: C_8  and  O_9
REMARK    3  A    between atoms: O_9  and  C_10
REMARK    4  A    between atoms: C_10  and  C_11
REMARK    5  A    between atoms: C_10  and  C_17
REMARK                            x       y       z     vdW  Elec       q    Type
REMARK                         _______ _______ _______ _____ _____    ______ ____
ROOT
ATOM      1  C   UNL     1      31.916  20.533  16.220  0.00  0.00    +0.040 A 
ATOM      2  C   UNL     1      32.657  20.076  17.313  0.00  0.00    +0.013 A 
ATOM      3  C   UNL     1      33.491  18.965  17.163  0.00  0.00    +0.004 A 
ATOM      4  C   UNL     1      33.590  18.324  15.923  0.00  0.00    +0.046 A 
ATOM      5  C   UNL     1      32.858  18.785  14.827  0.00  0.00    +0.122 A 
ATOM      6  C   UNL     1      32.001  19.868  14.993  0.00  0.00    +0.058 A 
ENDROOT
BRANCH   1   8
ATOM      7  N   UNL     1      31.228  22.713  15.374  0.00  0.00    -0.325 N 
ATOM      8  C   UNL     1      31.022  21.717  16.284  0.00  0.00    +0.242 C 
ATOM      9  O   UNL     1      30.090  21.776  17.078  0.00  0.00    -0.270 OA
ATOM     10  H   UNL     1      30.517  23.434  15.346  0.00  0.00    +0.145 HD
ATOM     11  H   UNL     1      31.789  22.577  14.546  0.00  0.00    +0.145 HD
ENDBRANCH   1   8
BRANCH   5  12
ATOM     12  O   UNL     1      33.031  18.097  13.657  0.00  0.00    -0.484 OA
BRANCH  12  13
ATOM     13  C   UNL     1      33.570  16.764  13.738  0.00  0.00    +0.208 C 
BRANCH  13  14
ATOM     14  C   UNL     1      32.482  15.773  13.383  0.00  0.00    +0.011 A 
ATOM     15  C   UNL     1      31.825  15.058  14.393  0.00  0.00    +0.010 A 
ATOM     16  C   UNL     1      30.831  14.143  14.069  0.00  0.00    +0.020 A 
ATOM     17  C   UNL     1      30.519  13.969  12.732  0.00  0.00    +0.111 A 
ATOM     18  N   UNL     1      31.129  14.632  11.726  0.00  0.00    -0.263 NA
ATOM     19  C   UNL     1      32.097  15.515  12.073  0.00  0.00    +0.118 A 
ENDBRANCH  13  14
BRANCH  13  20
ATOM     20  C   UNL     1      34.737  16.630  12.785  0.00  0.00    +0.034 C 
ATOM     21  C   UNL     1      35.658  15.428  12.805  0.00  0.00    +0.008 C 
ATOM     22  C   UNL     1      36.163  16.754  13.283  0.00  0.00    +0.008 C 
ENDBRANCH  13  20
ENDBRANCH  12  13
ENDBRANCH   5  12
TORSDOF 5
ENDMDL
MODEL 5
REMARK VINA RESULT:      -6.2      0.966      1.041
REMARK  Name = ZINC001228612316
REMARK  5 active torsions:
REMARK  status: ('A' for Active; 'I' for Inactive)
REMARK    1  A    between atoms: C_2  and  C_4
REMARK    2  A    between atoms: C_8  and  O_9
REMARK    3  A    between atoms: O_9  and  C_10
REMARK    4  A    between atoms: C_10  and  C_11
REMARK    5  A    between atoms: C_10  and  C_17
REMARK                            x       y       z     vdW  Elec       q    Type
REMARK                         _______ _______ _______ _____ _____    ______ ____
ROOT
ATOM      1  C   UNL     1      32.381  14.980  12.563  0.00  0.00    +0.040 A 
ATOM      2  C   UNL     1      33.425  15.449  11.761  0.00  0.00    +0.013 A 
ATOM      3  C   UNL     1      34.141  16.582  12.155  0.00  0.00    +0.004 A 
ATOM      4  C   UNL     1      33.819  17.235  13.350  0.00  0.00    +0.046 A 
ATOM      5  C   UNL     1      32.781  16.764  14.158  0.00  0.00    +0.122 A 
ATOM      6  C   UNL     1      32.050  15.657  13.741  0.00  0.00    +0.058 A 
ENDROOT
BRANCH   1   8
ATOM      7  N   UNL     1      30.621  13.898  11.270  0.00  0.00    -0.325 N 
ATOM      8  C   UNL     1      31.583  13.773  12.231  0.00  0.00    +0.242 C 
ATOM      9  O   UNL     1      31.814  12.687  12.749  0.00  0.00    -0.270 OA
ATOM     10  H   UNL     1      30.196  13.032  10.962  0.00  0.00    +0.145 HD
ATOM     11  H   UNL     1      30.592  14.684  10.637  0.00  0.00    +0.145 HD
ENDBRANCH   1   8
BRANCH   5  12
ATOM     12  O   UNL     1      32.551  17.465  15.309  0.00  0.00    -0.484 OA
BRANCH  12  13
ATOM     13  C   UNL     1      33.414  18.581  15.596  0.00  0.00    +0.208 C 
BRANCH  13  14
ATOM     14  C   UNL     1      32.573  19.836  15.705  0.00  0.00    +0.011 A 
ATOM     15  C   UNL     1      31.543  19.913  16.652  0.00  0.00    +0.010 A 
ATOM     16  C   UNL     1      30.767  21.060  16.749  0.00  0.00    +0.020 A 
ATOM     17  C   UNL     1      31.047  22.108  15.890  0.00  0.00    +0.111 A 
ATOM     18  N   UNL     1      32.025  22.077  14.959  0.00  0.00    -0.263 NA
ATOM     19  C   UNL     1      32.763  20.943  14.886  0.00  0.00    +0.118 A 
ENDBRANCH  13  14
BRANCH  13  20
ATOM     20  C   UNL     1      34.155  18.330  16.891  0.00  0.00    +0.034 C 
ATOM     21  C   UNL     1      35.090  19.357  17.496  0.00  0.00    +0.008 C 
ATOM     22  C   UNL     1      35.654  18.106  16.895  0.00  0.00    +0.008 C 
ENDBRANCH  13  20
ENDBRANCH  12  13
ENDBRANCH   5  12
TORSDOF 5
ENDMDL
MODEL 6
REMARK VINA RESULT:      -6.0      4.501      6.250
REMARK  Name = ZINC001228612316
REMARK  5 active torsions:
REMARK  status: ('A' for Active; 'I' for Inactive)
REMARK    1  A    between atoms: C_2  and  C_4
REMARK    2  A    between atoms: C_8  and  O_9
REMARK    3  A    between atoms: O_9  and  C_10
REMARK    4  A    between atoms: C_10  and  C_11
REMARK    5  A    between atoms: C_10  and  C_17
REMARK                            x       y       z     vdW  Elec       q    Type
REMARK                         _______ _______ _______ _____ _____    ______ ____
ROOT
ATOM      1  C   UNL     1      31.253  21.657  15.817  0.00  0.00    +0.040 A 
ATOM      2  C   UNL     1      31.282  21.648  14.420  0.00  0.00    +0.013 A 
ATOM      3  C   UNL     1      32.015  20.664  13.752  0.00  0.00    +0.004 A 
ATOM      4  C   UNL     1      32.707  19.690  14.479  0.00  0.00    +0.046 A 
ATOM      5  C   UNL     1      32.674  19.691  15.876  0.00  0.00    +0.122 A 
ATOM      6  C   UNL     1      31.971  20.695  16.534  0.00  0.00    +0.058 A 
ENDROOT
BRANCH   1   8
ATOM      7  N   UNL     1      30.937  23.939  16.612  0.00  0.00    -0.325 N 
ATOM      8  C   UNL     1      30.484  22.651  16.606  0.00  0.00    +0.242 C 
ATOM      9  O   UNL     1      29.444  22.351  17.180  0.00  0.00    -0.270 OA
ATOM     10  H   UNL     1      30.317  24.619  17.034  0.00  0.00    +0.145 HD
ATOM     11  H   UNL     1      31.612  24.275  15.940  0.00  0.00    +0.145 HD
ENDBRANCH   1   8
BRANCH   5  12
ATOM     12  O   UNL     1      33.373  18.692  16.494  0.00  0.00    -0.484 OA
BRANCH  12  13
ATOM     13  C   UNL     1      34.793  18.870  16.655  0.00  0.00    +0.208 C 
BRANCH  13  14
ATOM     14  C   UNL     1      35.080  19.257  18.091  0.00  0.00    +0.011 A 
ATOM     15  C   UNL     1      34.450  18.577  19.142  0.00  0.00    +0.010 A 
ATOM     16  C   UNL     1      34.707  18.935  20.459  0.00  0.00    +0.020 A 
ATOM     17  C   UNL     1      35.595  19.971  20.689  0.00  0.00    +0.111 A 
ATOM     18  N   UNL     1      36.221  20.657  19.708  0.00  0.00    -0.263 NA
ATOM     19  C   UNL     1      35.947  20.288  18.433  0.00  0.00    +0.118 A 
ENDBRANCH  13  14
BRANCH  13  20
ATOM     20  C   UNL     1      35.508  17.584  16.304  0.00  0.00    +0.034 C 
ATOM     21  C   UNL     1      37.018  17.467  16.341  0.00  0.00    +0.008 C 
ATOM     22  C   UNL     1      36.309  17.469  15.022  0.00  0.00    +0.008 C 
ENDBRANCH  13  20
ENDBRANCH  12  13
ENDBRANCH   5  12
TORSDOF 5
ENDMDL
MODEL 7
REMARK VINA RESULT:      -5.9      2.184      3.304
REMARK  Name = ZINC001228612316
REMARK  5 active torsions:
REMARK  status: ('A' for Active; 'I' for Inactive)
REMARK    1  A    between atoms: C_2  and  C_4
REMARK    2  A    between atoms: C_8  and  O_9
REMARK    3  A    between atoms: O_9  and  C_10
REMARK    4  A    between atoms: C_10  and  C_11
REMARK    5  A    between atoms: C_10  and  C_17
REMARK                            x       y       z     vdW  Elec       q    Type
REMARK                         _______ _______ _______ _____ _____    ______ ____
ROOT
ATOM      1  C   UNL     1      31.806  14.861  13.681  0.00  0.00    +0.040 A 
ATOM      2  C   UNL     1      32.100  14.731  12.321  0.00  0.00    +0.013 A 
ATOM      3  C   UNL     1      33.054  15.570  11.740  0.00  0.00    +0.004 A 
ATOM      4  C   UNL     1      33.717  16.525  12.518  0.00  0.00    +0.046 A 
ATOM      5  C   UNL     1      33.431  16.651  13.879  0.00  0.00    +0.122 A 
ATOM      6  C   UNL     1      32.454  15.838  14.443  0.00  0.00    +0.058 A 
ENDROOT
BRANCH   1   8
ATOM      7  N   UNL     1      31.244  12.769  14.796  0.00  0.00    -0.325 N 
ATOM      8  C   UNL     1      30.822  14.000  14.384  0.00  0.00    +0.242 C 
ATOM      9  O   UNL     1      29.692  14.395  14.647  0.00  0.00    -0.270 OA
ATOM     10  H   UNL     1      30.602  12.265  15.398  0.00  0.00    +0.145 HD
ATOM     11  H   UNL     1      32.222  12.524  14.848  0.00  0.00    +0.145 HD
ENDBRANCH   1   8
BRANCH   5  12
ATOM     12  O   UNL     1      34.139  17.607  14.555  0.00  0.00    -0.484 OA
BRANCH  12  13
ATOM     13  C   UNL     1      33.438  18.384  15.543  0.00  0.00    +0.208 C 
BRANCH  13  14
ATOM     14  C   UNL     1      34.264  18.425  16.812  0.00  0.00    +0.011 A 
ATOM     15  C   UNL     1      33.704  18.913  18.000  0.00  0.00    +0.010 A 
ATOM     16  C   UNL     1      34.462  18.957  19.163  0.00  0.00    +0.020 A 
ATOM     17  C   UNL     1      35.768  18.505  19.105  0.00  0.00    +0.111 A 
ATOM     18  N   UNL     1      36.350  18.031  17.983  0.00  0.00    -0.263 NA
ATOM     19  C   UNL     1      35.587  18.004  16.862  0.00  0.00    +0.118 A 
ENDBRANCH  13  14
BRANCH  13  20
ATOM     20  C   UNL     1      33.211  19.785  15.018  0.00  0.00    +0.034 C 
ATOM     21  C   UNL     1      31.947  20.562  15.322  0.00  0.00    +0.008 C 
ATOM     22  C   UNL     1      32.184  20.049  13.935  0.00  0.00    +0.008 C 
ENDBRANCH  13  20
ENDBRANCH  12  13
ENDBRANCH   5  12
TORSDOF 5
ENDMDL
MODEL 8
REMARK VINA RESULT:      -5.8      2.295      6.360
REMARK  Name = ZINC001228612316
REMARK  5 active torsions:
REMARK  status: ('A' for Active; 'I' for Inactive)
REMARK    1  A    between atoms: C_2  and  C_4
REMARK    2  A    between atoms: C_8  and  O_9
REMARK    3  A    between atoms: O_9  and  C_10
REMARK    4  A    between atoms: C_10  and  C_11
REMARK    5  A    between atoms: C_10  and  C_17
REMARK                            x       y       z     vdW  Elec       q    Type
REMARK                         _______ _______ _______ _____ _____    ______ ____
ROOT
ATOM      1  C   UNL     1      31.671  22.075  15.038  0.00  0.00    +0.040 A 
ATOM      2  C   UNL     1      32.040  23.010  14.068  0.00  0.00    +0.013 A 
ATOM      3  C   UNL     1      32.832  22.608  12.989  0.00  0.00    +0.004 A 
ATOM      4  C   UNL     1      33.242  21.275  12.878  0.00  0.00    +0.046 A 
ATOM      5  C   UNL     1      32.867  20.336  13.842  0.00  0.00    +0.122 A 
ATOM      6  C   UNL     1      32.109  20.751  14.932  0.00  0.00    +0.058 A 
ENDROOT
BRANCH   1   8
ATOM      7  N   UNL     1      30.760  23.718  16.589  0.00  0.00    -0.325 N 
ATOM      8  C   UNL     1      30.815  22.410  16.204  0.00  0.00    +0.242 C 
ATOM      9  O   UNL     1      30.131  21.562  16.765  0.00  0.00    -0.270 OA
ATOM     10  H   UNL     1      30.061  23.939  17.289  0.00  0.00    +0.145 HD
ATOM     11  H   UNL     1      31.078  24.469  15.994  0.00  0.00    +0.145 HD
ENDBRANCH   1   8
BRANCH   5  12
ATOM     12  O   UNL     1      33.310  19.057  13.639  0.00  0.00    -0.484 OA
BRANCH  12  13
ATOM     13  C   UNL     1      33.103  18.102  14.696  0.00  0.00    +0.208 C 
BRANCH  13  14
ATOM     14  C   UNL     1      32.791  16.753  14.084  0.00  0.00    +0.011 A 
ATOM     15  C   UNL     1      32.034  15.815  14.799  0.00  0.00    +0.010 A 
ATOM     16  C   UNL     1      31.752  14.574  14.242  0.00  0.00    +0.020 A 
ATOM     17  C   UNL     1      32.237  14.305  12.974  0.00  0.00    +0.111 A 
ATOM     18  N   UNL     1      32.974  15.176  12.251  0.00  0.00    -0.263 NA
ATOM     19  C   UNL     1      33.237  16.377  12.822  0.00  0.00    +0.118 A 
ENDBRANCH  13  14
BRANCH  13  20
ATOM     20  C   UNL     1      34.348  18.017  15.552  0.00  0.00    +0.034 C 
ATOM     21  C   UNL     1      34.314  17.487  16.970  0.00  0.00    +0.008 C 
ATOM     22  C   UNL     1      34.542  18.948  16.732  0.00  0.00    +0.008 C 
ENDBRANCH  13  20
ENDBRANCH  12  13
ENDBRANCH   5  12
TORSDOF 5
ENDMDL
MODEL 9
REMARK VINA RESULT:      -5.8      4.483      7.050
REMARK  Name = ZINC001228612316
REMARK  5 active torsions:
REMARK  status: ('A' for Active; 'I' for Inactive)
REMARK    1  A    between atoms: C_2  and  C_4
REMARK    2  A    between atoms: C_8  and  O_9
REMARK    3  A    between atoms: O_9  and  C_10
REMARK    4  A    between atoms: C_10  and  C_11
REMARK    5  A    between atoms: C_10  and  C_17
REMARK                            x       y       z     vdW  Elec       q    Type
REMARK                         _______ _______ _______ _____ _____    ______ ____
ROOT
ATOM      1  C   UNL     1      31.161  21.482  16.022  0.00  0.00    +0.040 A 
ATOM      2  C   UNL     1      31.496  20.282  16.654  0.00  0.00    +0.013 A 
ATOM      3  C   UNL     1      32.233  19.320  15.958  0.00  0.00    +0.004 A 
ATOM      4  C   UNL     1      32.640  19.564  14.643  0.00  0.00    +0.046 A 
ATOM      5  C   UNL     1      32.315  20.767  14.012  0.00  0.00    +0.122 A 
ATOM      6  C   UNL     1      31.550  21.704  14.698  0.00  0.00    +0.058 A 
ENDROOT
BRANCH   1   8
ATOM      7  N   UNL     1      30.910  23.831  16.622  0.00  0.00    -0.325 N 
ATOM      8  C   UNL     1      30.400  22.567  16.692  0.00  0.00    +0.242 C 
ATOM      9  O   UNL     1      29.321  22.356  17.233  0.00  0.00    -0.270 OA
ATOM     10  H   UNL     1      30.301  24.568  16.958  0.00  0.00    +0.145 HD
ATOM     11  H   UNL     1      31.631  24.085  15.963  0.00  0.00    +0.145 HD
ENDBRANCH   1   8
BRANCH   5  12
ATOM     12  O   UNL     1      32.768  20.914  12.730  0.00  0.00    -0.484 OA
BRANCH  12  13
ATOM     13  C   UNL     1      34.172  21.170  12.542  0.00  0.00    +0.208 C 
BRANCH  13  14
ATOM     14  C   UNL     1      34.604  20.587  11.212  0.00  0.00    +0.011 A 
ATOM     15  C   UNL     1      34.079  21.098  10.017  0.00  0.00    +0.010 A 
ATOM     16  C   UNL     1      34.469  20.560   8.797  0.00  0.00    +0.020 A 
ATOM     17  C   UNL     1      35.381  19.520   8.807  0.00  0.00    +0.111 A 
ATOM     18  N   UNL     1      35.909  18.993   9.933  0.00  0.00    -0.263 NA
ATOM     19  C   UNL     1      35.507  19.536  11.109  0.00  0.00    +0.118 A 
ENDBRANCH  13  14
BRANCH  13  20
ATOM     20  C   UNL     1      34.424  22.661  12.570  0.00  0.00    +0.034 C 
ATOM     21  C   UNL     1      35.821  23.242  12.501  0.00  0.00    +0.008 C 
ATOM     22  C   UNL     1      35.051  23.318  13.784  0.00  0.00    +0.008 C 
ENDBRANCH  13  20
ENDBRANCH  12  13
ENDBRANCH   5  12
TORSDOF 5
ENDMDL
