MODEL 1
REMARK VINA RESULT:      -7.2      0.000      0.000
REMARK  Name = ZINC000435351830
REMARK  5 active torsions:
REMARK  status: ('A' for Active; 'I' for Inactive)
REMARK    1  A    between atoms: C_2  and  C_3
REMARK    2  A    between atoms: C_7  and  C_8
REMARK    3  A    between atoms: C_8  and  C_9
REMARK    4  A    between atoms: N_11  and  C_12
REMARK    5  A    between atoms: C_12  and  C_13
REMARK                            x       y       z     vdW  Elec       q    Type
REMARK                         _______ _______ _______ _____ _____    ______ ____
ROOT
ATOM      1  C   UNL     1      28.351  22.048  17.530  0.00  0.00    +0.224 C 
ATOM      2  O   UNL     1      28.224  20.999  18.153  0.00  0.00    -0.275 OA
ATOM      3  N   UNL     1      27.384  23.015  17.435  0.00  0.00    -0.309 N 
ATOM      4  H   UNL     1      27.576  23.869  16.932  0.00  0.00    +0.149 HD
ENDROOT
BRANCH   1   5
ATOM      5  C   UNL     1      29.607  22.329  16.746  0.00  0.00    +0.072 C 
ATOM      6  C   UNL     1      30.025  23.781  16.540  0.00  0.00    +0.022 C 
ATOM      7  C   UNL     1      30.783  22.942  17.516  0.00  0.00    +0.022 C 
BRANCH   5  12
ATOM      8  C   UNL     1      30.685  18.934  15.322  0.00  0.00    +0.052 A 
ATOM      9  C   UNL     1      30.916  19.234  13.979  0.00  0.00    +0.019 A 
ATOM     10  C   UNL     1      30.671  20.522  13.504  0.00  0.00    +0.002 A 
ATOM     11  C   UNL     1      30.220  21.519  14.375  0.00  0.00    +0.005 A 
ATOM     12  C   UNL     1      30.010  21.253  15.739  0.00  0.00    -0.031 A 
ATOM     13  C   UNL     1      30.223  19.934  16.182  0.00  0.00    +0.023 A 
BRANCH   8  15
ATOM     14  N   UNL     1      31.182  16.562  16.245  0.00  0.00    -0.191 NA
ATOM     15  C   UNL     1      30.951  17.624  15.831  0.00  0.00    +0.099 C 
ENDBRANCH   8  15
ENDBRANCH   5  12
ENDBRANCH   1   5
BRANCH   3  16
ATOM     16  C   UNL     1      26.067  22.829  18.003  0.00  0.00    +0.159 C 
BRANCH  16  17
ATOM     17  C   UNL     1      25.106  23.946  17.661  0.00  0.00    +0.058 A 
ATOM     18  C   UNL     1      24.827  24.945  18.598  0.00  0.00    +0.028 A 
ATOM     19  C   UNL     1      23.918  25.949  18.269  0.00  0.00    +0.042 A 
ATOM     20  C   UNL     1      23.326  25.928  17.019  0.00  0.00    +0.141 A 
ATOM     21  F   UNL     1      22.443  26.873  16.671  0.00  0.00    -0.204 F 
ATOM     22  C   UNL     1      23.659  24.916  16.137  0.00  0.00    +0.149 A 
ATOM     23  N   UNL     1      24.540  23.926  16.425  0.00  0.00    -0.255 NA
ENDBRANCH  16  17
ENDBRANCH   3  16
TORSDOF 5
ENDMDL
MODEL 2
REMARK VINA RESULT:      -7.1      3.614      6.080
REMARK  Name = ZINC000435351830
REMARK  5 active torsions:
REMARK  status: ('A' for Active; 'I' for Inactive)
REMARK    1  A    between atoms: C_2  and  C_3
REMARK    2  A    between atoms: C_7  and  C_8
REMARK    3  A    between atoms: C_8  and  C_9
REMARK    4  A    between atoms: N_11  and  C_12
REMARK    5  A    between atoms: C_12  and  C_13
REMARK                            x       y       z     vdW  Elec       q    Type
REMARK                         _______ _______ _______ _____ _____    ______ ____
ROOT
ATOM      1  C   UNL     1      32.153  18.350  15.101  0.00  0.00    +0.224 C 
ATOM      2  O   UNL     1      32.481  18.834  14.023  0.00  0.00    -0.275 OA
ATOM      3  N   UNL     1      31.719  19.077  16.178  0.00  0.00    -0.309 N 
ATOM      4  H   UNL     1      31.433  18.602  17.023  0.00  0.00    +0.149 HD
ENDROOT
BRANCH   1   5
ATOM      5  C   UNL     1      32.268  16.866  15.343  0.00  0.00    +0.072 C 
ATOM      6  C   UNL     1      33.619  16.196  15.122  0.00  0.00    +0.022 C 
ATOM      7  C   UNL     1      33.144  16.421  16.520  0.00  0.00    +0.022 C 
BRANCH   5  12
ATOM      8  C   UNL     1      29.426  14.860  13.726  0.00  0.00    +0.052 A 
ATOM      9  C   UNL     1      28.519  14.726  14.777  0.00  0.00    +0.019 A 
ATOM     10  C   UNL     1      28.839  15.232  16.037  0.00  0.00    +0.002 A 
ATOM     11  C   UNL     1      30.053  15.894  16.241  0.00  0.00    +0.005 A 
ATOM     12  C   UNL     1      30.972  16.072  15.192  0.00  0.00    -0.031 A 
ATOM     13  C   UNL     1      30.643  15.512  13.942  0.00  0.00    +0.023 A 
BRANCH   8  15
ATOM     14  N   UNL     1      28.857  13.955  11.363  0.00  0.00    -0.191 NA
ATOM     15  C   UNL     1      29.106  14.366  12.421  0.00  0.00    +0.099 C 
ENDBRANCH   8  15
ENDBRANCH   5  12
ENDBRANCH   1   5
BRANCH   3  16
ATOM     16  C   UNL     1      31.697  20.523  16.159  0.00  0.00    +0.159 C 
BRANCH  16  17
ATOM     17  C   UNL     1      30.375  21.107  16.605  0.00  0.00    +0.058 A 
ATOM     18  C   UNL     1      29.326  20.265  16.983  0.00  0.00    +0.028 A 
ATOM     19  C   UNL     1      28.109  20.826  17.365  0.00  0.00    +0.042 A 
ATOM     20  C   UNL     1      27.981  22.204  17.363  0.00  0.00    +0.141 A 
ATOM     21  F   UNL     1      26.824  22.777  17.718  0.00  0.00    -0.204 F 
ATOM     22  C   UNL     1      29.065  22.976  16.989  0.00  0.00    +0.149 A 
ATOM     23  N   UNL     1      30.262  22.463  16.615  0.00  0.00    -0.255 NA
ENDBRANCH  16  17
ENDBRANCH   3  16
TORSDOF 5
ENDMDL
MODEL 3
REMARK VINA RESULT:      -7.0      3.984      6.093
REMARK  Name = ZINC000435351830
REMARK  5 active torsions:
REMARK  status: ('A' for Active; 'I' for Inactive)
REMARK    1  A    between atoms: C_2  and  C_3
REMARK    2  A    between atoms: C_7  and  C_8
REMARK    3  A    between atoms: C_8  and  C_9
REMARK    4  A    between atoms: N_11  and  C_12
REMARK    5  A    between atoms: C_12  and  C_13
REMARK                            x       y       z     vdW  Elec       q    Type
REMARK                         _______ _______ _______ _____ _____    ______ ____
ROOT
ATOM      1  C   UNL     1      30.497  18.982  15.748  0.00  0.00    +0.224 C 
ATOM      2  O   UNL     1      29.641  19.135  16.612  0.00  0.00    -0.275 OA
ATOM      3  N   UNL     1      30.869  19.943  14.845  0.00  0.00    -0.309 N 
ATOM      4  H   UNL     1      31.609  19.753  14.185  0.00  0.00    +0.149 HD
ENDROOT
BRANCH   1   5
ATOM      5  C   UNL     1      31.186  17.652  15.576  0.00  0.00    +0.072 C 
ATOM      6  C   UNL     1      32.630  17.639  15.088  0.00  0.00    +0.022 C 
ATOM      7  C   UNL     1      32.351  17.345  16.525  0.00  0.00    +0.022 C 
BRANCH   5  12
ATOM      8  C   UNL     1      29.289  14.898  13.696  0.00  0.00    +0.052 A 
ATOM      9  C   UNL     1      28.467  14.368  14.691  0.00  0.00    +0.019 A 
ATOM     10  C   UNL     1      28.557  14.855  15.996  0.00  0.00    +0.002 A 
ATOM     11  C   UNL     1      29.448  15.888  16.301  0.00  0.00    +0.005 A 
ATOM     12  C   UNL     1      30.264  16.462  15.311  0.00  0.00    -0.031 A 
ATOM     13  C   UNL     1      30.186  15.922  14.013  0.00  0.00    +0.023 A 
BRANCH   8  15
ATOM     14  N   UNL     1      29.105  14.047  11.253  0.00  0.00    -0.191 NA
ATOM     15  C   UNL     1      29.195  14.426  12.348  0.00  0.00    +0.099 C 
ENDBRANCH   8  15
ENDBRANCH   5  12
ENDBRANCH   1   5
BRANCH   3  16
ATOM     16  C   UNL     1      30.196  21.222  14.779  0.00  0.00    +0.159 C 
BRANCH  16  17
ATOM     17  C   UNL     1      30.492  22.114  15.964  0.00  0.00    +0.058 A 
ATOM     18  C   UNL     1      31.813  22.424  16.299  0.00  0.00    +0.028 A 
ATOM     19  C   UNL     1      32.062  23.227  17.411  0.00  0.00    +0.042 A 
ATOM     20  C   UNL     1      30.987  23.697  18.146  0.00  0.00    +0.141 A 
ATOM     21  F   UNL     1      31.189  24.465  19.224  0.00  0.00    -0.204 F 
ATOM     22  C   UNL     1      29.706  23.360  17.749  0.00  0.00    +0.149 A 
ATOM     23  N   UNL     1      29.431  22.584  16.673  0.00  0.00    -0.255 NA
ENDBRANCH  16  17
ENDBRANCH   3  16
TORSDOF 5
ENDMDL
MODEL 4
REMARK VINA RESULT:      -6.9      3.844      8.080
REMARK  Name = ZINC000435351830
REMARK  5 active torsions:
REMARK  status: ('A' for Active; 'I' for Inactive)
REMARK    1  A    between atoms: C_2  and  C_3
REMARK    2  A    between atoms: C_7  and  C_8
REMARK    3  A    between atoms: C_8  and  C_9
REMARK    4  A    between atoms: N_11  and  C_12
REMARK    5  A    between atoms: C_12  and  C_13
REMARK                            x       y       z     vdW  Elec       q    Type
REMARK                         _______ _______ _______ _____ _____    ______ ____
ROOT
ATOM      1  C   UNL     1      30.648  18.847  15.653  0.00  0.00    +0.224 C 
ATOM      2  O   UNL     1      29.947  18.558  16.617  0.00  0.00    -0.275 OA
ATOM      3  N   UNL     1      31.405  17.949  14.948  0.00  0.00    -0.309 N 
ATOM      4  H   UNL     1      31.931  18.257  14.143  0.00  0.00    +0.149 HD
ENDROOT
BRANCH   1   5
ATOM      5  C   UNL     1      30.776  20.278  15.198  0.00  0.00    +0.072 C 
ATOM      6  C   UNL     1      31.770  20.601  14.088  0.00  0.00    +0.022 C 
ATOM      7  C   UNL     1      30.310  20.597  13.772  0.00  0.00    +0.022 C 
BRANCH   5  12
ATOM      8  C   UNL     1      28.630  22.569  17.403  0.00  0.00    +0.052 A 
ATOM      9  C   UNL     1      29.587  23.381  18.011  0.00  0.00    +0.019 A 
ATOM     10  C   UNL     1      30.942  23.161  17.761  0.00  0.00    +0.002 A 
ATOM     11  C   UNL     1      31.340  22.148  16.884  0.00  0.00    +0.005 A 
ATOM     12  C   UNL     1      30.395  21.336  16.233  0.00  0.00    -0.031 A 
ATOM     13  C   UNL     1      29.037  21.550  16.538  0.00  0.00    +0.023 A 
BRANCH   8  15
ATOM     14  N   UNL     1      26.104  22.990  17.814  0.00  0.00    -0.191 NA
ATOM     15  C   UNL     1      27.235  22.793  17.632  0.00  0.00    +0.099 C 
ENDBRANCH   8  15
ENDBRANCH   5  12
ENDBRANCH   1   5
BRANCH   3  16
ATOM     16  C   UNL     1      31.511  16.563  15.352  0.00  0.00    +0.159 C 
BRANCH  16  17
ATOM     17  C   UNL     1      30.321  15.728  14.936  0.00  0.00    +0.058 A 
ATOM     18  C   UNL     1      30.090  15.456  13.585  0.00  0.00    +0.028 A 
ATOM     19  C   UNL     1      28.972  14.706  13.224  0.00  0.00    +0.042 A 
ATOM     20  C   UNL     1      28.128  14.247  14.221  0.00  0.00    +0.141 A 
ATOM     21  F   UNL     1      27.041  13.529  13.911  0.00  0.00    -0.204 F 
ATOM     22  C   UNL     1      28.426  14.544  15.538  0.00  0.00    +0.149 A 
ATOM     23  N   UNL     1      29.505  15.269  15.922  0.00  0.00    -0.255 NA
ENDBRANCH  16  17
ENDBRANCH   3  16
TORSDOF 5
ENDMDL
MODEL 5
REMARK VINA RESULT:      -6.8      4.866      8.400
REMARK  Name = ZINC000435351830
REMARK  5 active torsions:
REMARK  status: ('A' for Active; 'I' for Inactive)
REMARK    1  A    between atoms: C_2  and  C_3
REMARK    2  A    between atoms: C_7  and  C_8
REMARK    3  A    between atoms: C_8  and  C_9
REMARK    4  A    between atoms: N_11  and  C_12
REMARK    5  A    between atoms: C_12  and  C_13
REMARK                            x       y       z     vdW  Elec       q    Type
REMARK                         _______ _______ _______ _____ _____    ______ ____
ROOT
ATOM      1  C   UNL     1      32.420  16.560  16.000  0.00  0.00    +0.224 C 
ATOM      2  O   UNL     1      32.615  15.568  16.694  0.00  0.00    -0.275 OA
ATOM      3  N   UNL     1      31.985  16.525  14.701  0.00  0.00    -0.309 N 
ATOM      4  H   UNL     1      31.813  17.388  14.205  0.00  0.00    +0.149 HD
ENDROOT
BRANCH   1   5
ATOM      5  C   UNL     1      32.713  17.940  16.532  0.00  0.00    +0.072 C 
ATOM      6  C   UNL     1      33.386  18.065  17.894  0.00  0.00    +0.022 C 
ATOM      7  C   UNL     1      34.189  18.333  16.665  0.00  0.00    +0.022 C 
BRANCH   5  12
ATOM      8  C   UNL     1      29.841  20.475  16.327  0.00  0.00    +0.052 A 
ATOM      9  C   UNL     1      29.998  21.000  15.044  0.00  0.00    +0.019 A 
ATOM     10  C   UNL     1      31.067  20.585  14.251  0.00  0.00    +0.002 A 
ATOM     11  C   UNL     1      31.965  19.625  14.728  0.00  0.00    +0.005 A 
ATOM     12  C   UNL     1      31.813  19.055  16.004  0.00  0.00    -0.031 A 
ATOM     13  C   UNL     1      30.751  19.525  16.800  0.00  0.00    +0.023 A 
BRANCH   8  15
ATOM     14  N   UNL     1      27.851  21.198  17.824  0.00  0.00    -0.191 NA
ATOM     15  C   UNL     1      28.737  20.873  17.147  0.00  0.00    +0.099 C 
ENDBRANCH   8  15
ENDBRANCH   5  12
ENDBRANCH   1   5
BRANCH   3  16
ATOM     16  C   UNL     1      31.804  15.275  13.995  0.00  0.00    +0.159 C 
BRANCH  16  17
ATOM     17  C   UNL     1      30.352  14.873  13.857  0.00  0.00    +0.058 A 
ATOM     18  C   UNL     1      29.830  14.543  12.603  0.00  0.00    +0.028 A 
ATOM     19  C   UNL     1      28.483  14.200  12.497  0.00  0.00    +0.042 A 
ATOM     20  C   UNL     1      27.706  14.193  13.642  0.00  0.00    +0.141 A 
ATOM     21  F   UNL     1      26.407  13.875  13.577  0.00  0.00    -0.204 F 
ATOM     22  C   UNL     1      28.293  14.519  14.852  0.00  0.00    +0.149 A 
ATOM     23  N   UNL     1      29.599  14.854  14.989  0.00  0.00    -0.255 NA
ENDBRANCH  16  17
ENDBRANCH   3  16
TORSDOF 5
ENDMDL
MODEL 6
REMARK VINA RESULT:      -6.7      4.885      8.412
REMARK  Name = ZINC000435351830
REMARK  5 active torsions:
REMARK  status: ('A' for Active; 'I' for Inactive)
REMARK    1  A    between atoms: C_2  and  C_3
REMARK    2  A    between atoms: C_7  and  C_8
REMARK    3  A    between atoms: C_8  and  C_9
REMARK    4  A    between atoms: N_11  and  C_12
REMARK    5  A    between atoms: C_12  and  C_13
REMARK                            x       y       z     vdW  Elec       q    Type
REMARK                         _______ _______ _______ _____ _____    ______ ____
ROOT
ATOM      1  C   UNL     1      31.829  18.291  15.054  0.00  0.00    +0.224 C 
ATOM      2  O   UNL     1      31.509  18.946  14.068  0.00  0.00    -0.275 OA
ATOM      3  N   UNL     1      32.032  16.936  15.053  0.00  0.00    -0.309 N 
ATOM      4  H   UNL     1      32.329  16.471  15.899  0.00  0.00    +0.149 HD
ENDROOT
BRANCH   1   5
ATOM      5  C   UNL     1      31.970  18.951  16.402  0.00  0.00    +0.072 C 
ATOM      6  C   UNL     1      32.644  18.172  17.526  0.00  0.00    +0.022 C 
ATOM      7  C   UNL     1      33.393  19.284  16.868  0.00  0.00    +0.022 C 
BRANCH   5  12
ATOM      8  C   UNL     1      30.478  22.371  17.296  0.00  0.00    +0.052 A 
ATOM      9  C   UNL     1      29.125  22.072  17.461  0.00  0.00    +0.019 A 
ATOM     10  C   UNL     1      28.669  20.775  17.230  0.00  0.00    +0.002 A 
ATOM     11  C   UNL     1      29.566  19.769  16.859  0.00  0.00    +0.005 A 
ATOM     12  C   UNL     1      30.939  20.034  16.716  0.00  0.00    -0.031 A 
ATOM     13  C   UNL     1      31.366  21.361  16.913  0.00  0.00    +0.023 A 
BRANCH   8  15
ATOM     14  N   UNL     1      31.359  24.768  17.744  0.00  0.00    -0.191 NA
ATOM     15  C   UNL     1      30.968  23.691  17.550  0.00  0.00    +0.099 C 
ENDBRANCH   8  15
ENDBRANCH   5  12
ENDBRANCH   1   5
BRANCH   3  16
ATOM     16  C   UNL     1      31.789  16.133  13.874  0.00  0.00    +0.159 C 
BRANCH  16  17
ATOM     17  C   UNL     1      30.458  15.415  13.906  0.00  0.00    +0.058 A 
ATOM     18  C   UNL     1      29.912  14.895  12.730  0.00  0.00    +0.028 A 
ATOM     19  C   UNL     1      28.672  14.260  12.779  0.00  0.00    +0.042 A 
ATOM     20  C   UNL     1      28.024  14.159  13.998  0.00  0.00    +0.141 A 
ATOM     21  F   UNL     1      26.828  13.562  14.082  0.00  0.00    -0.204 F 
ATOM     22  C   UNL     1      28.630  14.686  15.124  0.00  0.00    +0.149 A 
ATOM     23  N   UNL     1      29.835  15.307  15.110  0.00  0.00    -0.255 NA
ENDBRANCH  16  17
ENDBRANCH   3  16
TORSDOF 5
ENDMDL
MODEL 7
REMARK VINA RESULT:      -6.7      4.420      7.038
REMARK  Name = ZINC000435351830
REMARK  5 active torsions:
REMARK  status: ('A' for Active; 'I' for Inactive)
REMARK    1  A    between atoms: C_2  and  C_3
REMARK    2  A    between atoms: C_7  and  C_8
REMARK    3  A    between atoms: C_8  and  C_9
REMARK    4  A    between atoms: N_11  and  C_12
REMARK    5  A    between atoms: C_12  and  C_13
REMARK                            x       y       z     vdW  Elec       q    Type
REMARK                         _______ _______ _______ _____ _____    ______ ____
ROOT
ATOM      1  C   UNL     1      32.980  17.068  16.312  0.00  0.00    +0.224 C 
ATOM      2  O   UNL     1      33.415  17.340  17.426  0.00  0.00    -0.275 OA
ATOM      3  N   UNL     1      32.662  17.996  15.356  0.00  0.00    -0.309 N 
ATOM      4  H   UNL     1      32.342  17.692  14.447  0.00  0.00    +0.149 HD
ENDROOT
BRANCH   1   5
ATOM      5  C   UNL     1      32.699  15.638  15.925  0.00  0.00    +0.072 C 
ATOM      6  C   UNL     1      33.841  14.800  15.362  0.00  0.00    +0.022 C 
ATOM      7  C   UNL     1      33.380  14.547  16.760  0.00  0.00    +0.022 C 
BRANCH   5  12
ATOM      8  C   UNL     1      29.625  14.718  13.823  0.00  0.00    +0.052 A 
ATOM      9  C   UNL     1      28.579  14.894  14.730  0.00  0.00    +0.019 A 
ATOM     10  C   UNL     1      28.859  15.256  16.047  0.00  0.00    +0.002 A 
ATOM     11  C   UNL     1      30.179  15.468  16.454  0.00  0.00    +0.005 A 
ATOM     12  C   UNL     1      31.250  15.329  15.553  0.00  0.00    -0.031 A 
ATOM     13  C   UNL     1      30.943  14.920  14.241  0.00  0.00    +0.023 A 
BRANCH   8  15
ATOM     14  N   UNL     1      29.138  14.068  11.360  0.00  0.00    -0.191 NA
ATOM     15  C   UNL     1      29.356  14.368  12.462  0.00  0.00    +0.099 C 
ENDBRANCH   8  15
ENDBRANCH   5  12
ENDBRANCH   1   5
BRANCH   3  16
ATOM     16  C   UNL     1      32.730  19.416  15.624  0.00  0.00    +0.159 C 
BRANCH  16  17
ATOM     17  C   UNL     1      31.399  20.013  16.020  0.00  0.00    +0.058 A 
ATOM     18  C   UNL     1      30.515  19.290  16.825  0.00  0.00    +0.028 A 
ATOM     19  C   UNL     1      29.282  19.851  17.156  0.00  0.00    +0.042 A 
ATOM     20  C   UNL     1      28.976  21.113  16.678  0.00  0.00    +0.141 A 
ATOM     21  F   UNL     1      27.798  21.680  16.970  0.00  0.00    -0.204 F 
ATOM     22  C   UNL     1      29.904  21.776  15.896  0.00  0.00    +0.149 A 
ATOM     23  N   UNL     1      31.111  21.260  15.559  0.00  0.00    -0.255 NA
ENDBRANCH  16  17
ENDBRANCH   3  16
TORSDOF 5
ENDMDL
MODEL 8
REMARK VINA RESULT:      -6.6      4.812      8.078
REMARK  Name = ZINC000435351830
REMARK  5 active torsions:
REMARK  status: ('A' for Active; 'I' for Inactive)
REMARK    1  A    between atoms: C_2  and  C_3
REMARK    2  A    between atoms: C_7  and  C_8
REMARK    3  A    between atoms: C_8  and  C_9
REMARK    4  A    between atoms: N_11  and  C_12
REMARK    5  A    between atoms: C_12  and  C_13
REMARK                            x       y       z     vdW  Elec       q    Type
REMARK                         _______ _______ _______ _____ _____    ______ ____
ROOT
ATOM      1  C   UNL     1      30.706  19.112  15.794  0.00  0.00    +0.224 C 
ATOM      2  O   UNL     1      30.139  18.890  16.859  0.00  0.00    -0.275 OA
ATOM      3  N   UNL     1      31.354  18.163  15.048  0.00  0.00    -0.309 N 
ATOM      4  H   UNL     1      31.769  18.416  14.163  0.00  0.00    +0.149 HD
ENDROOT
BRANCH   1   5
ATOM      5  C   UNL     1      30.784  20.513  15.242  0.00  0.00    +0.072 C 
ATOM      6  C   UNL     1      31.694  20.773  14.047  0.00  0.00    +0.022 C 
ATOM      7  C   UNL     1      30.216  20.736  13.835  0.00  0.00    +0.022 C 
BRANCH   5  12
ATOM      8  C   UNL     1      31.278  23.337  17.792  0.00  0.00    +0.052 A 
ATOM      9  C   UNL     1      29.970  23.606  18.196  0.00  0.00    +0.019 A 
ATOM     10  C   UNL     1      28.908  22.919  17.609  0.00  0.00    +0.002 A 
ATOM     11  C   UNL     1      29.152  21.945  16.636  0.00  0.00    +0.005 A 
ATOM     12  C   UNL     1      30.462  21.630  16.233  0.00  0.00    -0.031 A 
ATOM     13  C   UNL     1      31.512  22.370  16.809  0.00  0.00    +0.023 A 
BRANCH   8  15
ATOM     14  N   UNL     1      33.277  24.558  18.903  0.00  0.00    -0.191 NA
ATOM     15  C   UNL     1      32.382  24.016  18.398  0.00  0.00    +0.099 C 
ENDBRANCH   8  15
ENDBRANCH   5  12
ENDBRANCH   1   5
BRANCH   3  16
ATOM     16  C   UNL     1      31.502  16.801  15.515  0.00  0.00    +0.159 C 
BRANCH  16  17
ATOM     17  C   UNL     1      30.370  15.896  15.084  0.00  0.00    +0.058 A 
ATOM     18  C   UNL     1      30.171  15.615  13.730  0.00  0.00    +0.028 A 
ATOM     19  C   UNL     1      29.104  14.798  13.355  0.00  0.00    +0.042 A 
ATOM     20  C   UNL     1      28.279  14.287  14.341  0.00  0.00    +0.141 A 
ATOM     21  F   UNL     1      27.241  13.505  14.018  0.00  0.00    -0.204 F 
ATOM     22  C   UNL     1      28.543  14.598  15.663  0.00  0.00    +0.149 A 
ATOM     23  N   UNL     1      29.572  15.386  16.060  0.00  0.00    -0.255 NA
ENDBRANCH  16  17
ENDBRANCH   3  16
TORSDOF 5
ENDMDL
MODEL 9
REMARK VINA RESULT:      -6.5      3.438      8.260
REMARK  Name = ZINC000435351830
REMARK  5 active torsions:
REMARK  status: ('A' for Active; 'I' for Inactive)
REMARK    1  A    between atoms: C_2  and  C_3
REMARK    2  A    between atoms: C_7  and  C_8
REMARK    3  A    between atoms: C_8  and  C_9
REMARK    4  A    between atoms: N_11  and  C_12
REMARK    5  A    between atoms: C_12  and  C_13
REMARK                            x       y       z     vdW  Elec       q    Type
REMARK                         _______ _______ _______ _____ _____    ______ ____
ROOT
ATOM      1  C   UNL     1      25.998  24.485  19.996  0.00  0.00    +0.224 C 
ATOM      2  O   UNL     1      25.743  23.804  20.983  0.00  0.00    -0.275 OA
ATOM      3  N   UNL     1      26.973  24.189  19.080  0.00  0.00    -0.309 N 
ATOM      4  H   UNL     1      27.100  24.782  18.272  0.00  0.00    +0.149 HD
ENDROOT
BRANCH   1   5
ATOM      5  C   UNL     1      25.265  25.778  19.745  0.00  0.00    +0.072 C 
ATOM      6  C   UNL     1      24.840  26.617  20.945  0.00  0.00    +0.022 C 
ATOM      7  C   UNL     1      25.996  27.074  20.117  0.00  0.00    +0.022 C 
BRANCH   5  12
ATOM      8  C   UNL     1      22.777  26.968  17.078  0.00  0.00    +0.052 A 
ATOM      9  C   UNL     1      22.891  25.980  16.101  0.00  0.00    +0.019 A 
ATOM     10  C   UNL     1      23.814  24.947  16.264  0.00  0.00    +0.002 A 
ATOM     11  C   UNL     1      24.606  24.887  17.415  0.00  0.00    +0.005 A 
ATOM     12  C   UNL     1      24.489  25.852  18.431  0.00  0.00    -0.031 A 
ATOM     13  C   UNL     1      23.581  26.907  18.220  0.00  0.00    +0.023 A 
BRANCH   8  15
ATOM     14  N   UNL     1      21.037  28.872  16.812  0.00  0.00    -0.191 NA
ATOM     15  C   UNL     1      21.820  28.023  16.938  0.00  0.00    +0.099 C 
ENDBRANCH   8  15
ENDBRANCH   5  12
ENDBRANCH   1   5
BRANCH   3  16
ATOM     16  C   UNL     1      27.866  23.066  19.259  0.00  0.00    +0.159 C 
BRANCH  16  17
ATOM     17  C   UNL     1      28.715  22.779  18.041  0.00  0.00    +0.058 A 
ATOM     18  C   UNL     1      28.507  21.615  17.296  0.00  0.00    +0.028 A 
ATOM     19  C   UNL     1      29.320  21.359  16.193  0.00  0.00    +0.042 A 
ATOM     20  C   UNL     1      30.306  22.273  15.867  0.00  0.00    +0.141 A 
ATOM     21  F   UNL     1      31.110  22.057  14.817  0.00  0.00    -0.204 F 
ATOM     22  C   UNL     1      30.448  23.410  16.641  0.00  0.00    +0.149 A 
ATOM     23  N   UNL     1      29.673  23.689  17.718  0.00  0.00    -0.255 NA
ENDBRANCH  16  17
ENDBRANCH   3  16
TORSDOF 5
ENDMDL
