MODEL 1
REMARK VINA RESULT:      -6.0      0.000      0.000
REMARK  Name = ZINC000583127796
REMARK  2 active torsions:
REMARK  status: ('A' for Active; 'I' for Inactive)
REMARK    1  A    between atoms: C_2  and  C_4
REMARK    2  A    between atoms: C_7  and  C_8
REMARK                            x       y       z     vdW  Elec       q    Type
REMARK                         _______ _______ _______ _____ _____    ______ ____
ROOT
ATOM      1  C   UNL     1      34.069  23.756   9.022  0.00  0.00    +0.247 C 
ATOM      2  O   UNL     1      34.693  24.810   8.916  0.00  0.00    -0.270 OA
ATOM      3  N   UNL     1      33.974  22.823   7.976  0.00  0.00    -0.297 N 
ATOM      4  C   UNL     1      33.261  21.543   8.012  0.00  0.00    +0.108 C 
ATOM      5  C   UNL     1      34.152  20.374   7.633  0.00  0.00    +0.020 C 
ATOM      6  C   UNL     1      34.883  20.631   6.328  0.00  0.00    +0.011 C 
ATOM      7  C   UNL     1      35.644  21.980   6.317  0.00  0.00    -0.004 C 
ATOM      8  C   UNL     1      36.219  22.162   4.896  0.00  0.00    +0.020 C 
ATOM      9  C   UNL     1      37.413  23.091   4.941  0.00  0.00    +0.070 C 
ATOM     10  S   UNL     1      38.296  22.598   6.430  0.00  0.00    -0.160 S 
ATOM     11  C   UNL     1      36.837  21.959   7.299  0.00  0.00    +0.077 C 
ATOM     12  C   UNL     1      34.653  23.113   6.702  0.00  0.00    +0.115 C 
ENDROOT
BRANCH   1  16
ATOM     13  C   UNL     1      32.271  22.522  12.702  0.00  0.00    +0.037 A 
ATOM     14  C   UNL     1      31.716  23.596  11.998  0.00  0.00    +0.014 A 
ATOM     15  C   UNL     1      32.357  24.086  10.857  0.00  0.00    +0.014 A 
ATOM     16  C   UNL     1      33.493  23.440  10.359  0.00  0.00    +0.037 A 
ATOM     17  C   UNL     1      34.103  22.434  11.121  0.00  0.00    +0.014 A 
ATOM     18  C   UNL     1      33.498  21.984  12.298  0.00  0.00    +0.014 A 
BRANCH  13  20
ATOM     19  N   UNL     1      31.543  22.687  15.016  0.00  0.00    -0.325 N 
ATOM     20  C   UNL     1      31.579  21.933  13.877  0.00  0.00    +0.242 C 
ATOM     21  O   UNL     1      31.022  20.847  13.810  0.00  0.00    -0.270 OA
ATOM     22  H   UNL     1      30.960  22.329  15.764  0.00  0.00    +0.145 HD
ATOM     23  H   UNL     1      31.741  23.677  15.013  0.00  0.00    +0.145 HD
ENDBRANCH  13  20
ENDBRANCH   1  16
TORSDOF 2
ENDMDL
MODEL 2
REMARK VINA RESULT:      -6.0      1.828      2.563
REMARK  Name = ZINC000583127796
REMARK  2 active torsions:
REMARK  status: ('A' for Active; 'I' for Inactive)
REMARK    1  A    between atoms: C_2  and  C_4
REMARK    2  A    between atoms: C_7  and  C_8
REMARK                            x       y       z     vdW  Elec       q    Type
REMARK                         _______ _______ _______ _____ _____    ______ ____
ROOT
ATOM      1  C   UNL     1      35.027  22.080  10.874  0.00  0.00    +0.247 C 
ATOM      2  O   UNL     1      36.095  21.473  10.805  0.00  0.00    -0.270 OA
ATOM      3  N   UNL     1      34.527  22.857   9.816  0.00  0.00    -0.297 N 
ATOM      4  C   UNL     1      33.268  23.606   9.805  0.00  0.00    +0.108 C 
ATOM      5  C   UNL     1      32.386  23.237   8.626  0.00  0.00    +0.020 C 
ATOM      6  C   UNL     1      33.149  23.304   7.316  0.00  0.00    +0.011 C 
ATOM      7  C   UNL     1      34.467  22.492   7.344  0.00  0.00    -0.004 C 
ATOM      8  C   UNL     1      35.190  22.760   6.006  0.00  0.00    +0.020 C 
ATOM      9  C   UNL     1      36.132  21.617   5.693  0.00  0.00    +0.070 C 
ATOM     10  S   UNL     1      35.208  20.147   6.166  0.00  0.00    -0.160 S 
ATOM     11  C   UNL     1      34.189  20.973   7.420  0.00  0.00    +0.077 C 
ATOM     12  C   UNL     1      35.306  22.945   8.570  0.00  0.00    +0.115 C 
ENDROOT
BRANCH   1  16
ATOM     13  C   UNL     1      32.372  21.622  14.196  0.00  0.00    +0.037 A 
ATOM     14  C   UNL     1      33.312  22.657  14.212  0.00  0.00    +0.014 A 
ATOM     15  C   UNL     1      34.262  22.751  13.191  0.00  0.00    +0.014 A 
ATOM     16  C   UNL     1      34.210  21.875  12.102  0.00  0.00    +0.037 A 
ATOM     17  C   UNL     1      33.336  20.779  12.141  0.00  0.00    +0.014 A 
ATOM     18  C   UNL     1      32.427  20.646  13.194  0.00  0.00    +0.014 A 
BRANCH  13  20
ATOM     19  N   UNL     1      31.038  22.669  15.939  0.00  0.00    -0.325 N 
ATOM     20  C   UNL     1      31.305  21.534  15.227  0.00  0.00    +0.242 C 
ATOM     21  O   UNL     1      30.660  20.509  15.391  0.00  0.00    -0.270 OA
ATOM     22  H   UNL     1      30.226  22.630  16.543  0.00  0.00    +0.145 HD
ATOM     23  H   UNL     1      31.350  23.581  15.636  0.00  0.00    +0.145 HD
ENDBRANCH  13  20
ENDBRANCH   1  16
TORSDOF 2
ENDMDL
MODEL 3
REMARK VINA RESULT:      -6.0      3.628      7.686
REMARK  Name = ZINC000583127796
REMARK  2 active torsions:
REMARK  status: ('A' for Active; 'I' for Inactive)
REMARK    1  A    between atoms: C_2  and  C_4
REMARK    2  A    between atoms: C_7  and  C_8
REMARK                            x       y       z     vdW  Elec       q    Type
REMARK                         _______ _______ _______ _____ _____    ______ ____
ROOT
ATOM      1  C   UNL     1      34.472  20.962  12.574  0.00  0.00    +0.247 C 
ATOM      2  O   UNL     1      35.670  21.068  12.831  0.00  0.00    -0.270 OA
ATOM      3  N   UNL     1      33.534  20.494  13.508  0.00  0.00    -0.297 N 
ATOM      4  C   UNL     1      32.092  20.342  13.294  0.00  0.00    +0.108 C 
ATOM      5  C   UNL     1      31.272  21.076  14.340  0.00  0.00    +0.020 C 
ATOM      6  C   UNL     1      31.722  20.728  15.747  0.00  0.00    +0.011 C 
ATOM      7  C   UNL     1      33.245  20.912  15.956  0.00  0.00    -0.004 C 
ATOM      8  C   UNL     1      33.571  20.399  17.375  0.00  0.00    +0.020 C 
ATOM      9  C   UNL     1      34.842  21.050  17.878  0.00  0.00    +0.070 C 
ATOM     10  S   UNL     1      34.703  22.759  17.333  0.00  0.00    -0.160 S 
ATOM     11  C   UNL     1      33.643  22.406  15.904  0.00  0.00    +0.077 C 
ATOM     12  C   UNL     1      33.999  20.119  14.854  0.00  0.00    +0.115 C 
ENDROOT
BRANCH   1  16
ATOM     13  C   UNL     1      33.543  22.384   8.648  0.00  0.00    +0.037 A 
ATOM     14  C   UNL     1      33.458  23.266   9.730  0.00  0.00    +0.014 A 
ATOM     15  C   UNL     1      33.645  22.791  11.031  0.00  0.00    +0.014 A 
ATOM     16  C   UNL     1      34.018  21.460  11.245  0.00  0.00    +0.037 A 
ATOM     17  C   UNL     1      33.999  20.558  10.172  0.00  0.00    +0.014 A 
ATOM     18  C   UNL     1      33.750  21.019   8.876  0.00  0.00    +0.014 A 
BRANCH  13  20
ATOM     19  N   UNL     1      32.478  23.829   7.007  0.00  0.00    -0.325 N 
ATOM     20  C   UNL     1      33.420  22.869   7.248  0.00  0.00    +0.242 C 
ATOM     21  O   UNL     1      34.163  22.465   6.367  0.00  0.00    -0.270 OA
ATOM     22  H   UNL     1      32.495  24.240   6.081  0.00  0.00    +0.145 HD
ATOM     23  H   UNL     1      32.058  24.370   7.749  0.00  0.00    +0.145 HD
ENDBRANCH  13  20
ENDBRANCH   1  16
TORSDOF 2
ENDMDL
MODEL 4
REMARK VINA RESULT:      -5.9      5.974      7.099
REMARK  Name = ZINC000583127796
REMARK  2 active torsions:
REMARK  status: ('A' for Active; 'I' for Inactive)
REMARK    1  A    between atoms: C_2  and  C_4
REMARK    2  A    between atoms: C_7  and  C_8
REMARK                            x       y       z     vdW  Elec       q    Type
REMARK                         _______ _______ _______ _____ _____    ______ ____
ROOT
ATOM      1  C   UNL     1      34.034  17.165  13.809  0.00  0.00    +0.247 C 
ATOM      2  O   UNL     1      34.059  16.204  14.576  0.00  0.00    -0.270 OA
ATOM      3  N   UNL     1      34.629  17.136  12.537  0.00  0.00    -0.297 N 
ATOM      4  C   UNL     1      34.643  18.225  11.557  0.00  0.00    +0.108 C 
ATOM      5  C   UNL     1      34.095  17.796  10.207  0.00  0.00    +0.020 C 
ATOM      6  C   UNL     1      34.757  16.522   9.716  0.00  0.00    +0.011 C 
ATOM      7  C   UNL     1      34.716  15.379  10.760  0.00  0.00    -0.004 C 
ATOM      8  C   UNL     1      35.535  14.207  10.178  0.00  0.00    +0.020 C 
ATOM      9  C   UNL     1      35.084  12.905  10.805  0.00  0.00    +0.070 C 
ATOM     10  S   UNL     1      33.293  13.058  10.891  0.00  0.00    -0.160 S 
ATOM     11  C   UNL     1      33.272  14.870  10.978  0.00  0.00    +0.077 C 
ATOM     12  C   UNL     1      35.306  15.905  12.098  0.00  0.00    +0.115 C 
ENDROOT
BRANCH   1  16
ATOM     13  C   UNL     1      31.636  20.360  15.339  0.00  0.00    +0.037 A 
ATOM     14  C   UNL     1      31.223  19.691  14.182  0.00  0.00    +0.014 A 
ATOM     15  C   UNL     1      32.051  18.725  13.604  0.00  0.00    +0.014 A 
ATOM     16  C   UNL     1      33.241  18.352  14.236  0.00  0.00    +0.037 A 
ATOM     17  C   UNL     1      33.700  19.094  15.333  0.00  0.00    +0.014 A 
ATOM     18  C   UNL     1      32.903  20.105  15.877  0.00  0.00    +0.014 A 
BRANCH  13  20
ATOM     19  N   UNL     1      31.092  22.660  15.912  0.00  0.00    -0.325 N 
ATOM     20  C   UNL     1      30.750  21.341  16.018  0.00  0.00    +0.242 C 
ATOM     21  O   UNL     1      29.735  20.988  16.599  0.00  0.00    -0.270 OA
ATOM     22  H   UNL     1      30.412  23.322  16.268  0.00  0.00    +0.145 HD
ATOM     23  H   UNL     1      31.747  22.992  15.219  0.00  0.00    +0.145 HD
ENDBRANCH  13  20
ENDBRANCH   1  16
TORSDOF 2
ENDMDL
MODEL 5
REMARK VINA RESULT:      -5.8      3.309      7.350
REMARK  Name = ZINC000583127796
REMARK  2 active torsions:
REMARK  status: ('A' for Active; 'I' for Inactive)
REMARK    1  A    between atoms: C_2  and  C_4
REMARK    2  A    between atoms: C_7  and  C_8
REMARK                            x       y       z     vdW  Elec       q    Type
REMARK                         _______ _______ _______ _____ _____    ______ ____
ROOT
ATOM      1  C   UNL     1      33.694  23.095  10.825  0.00  0.00    +0.247 C 
ATOM      2  O   UNL     1      32.611  23.675  10.874  0.00  0.00    -0.270 OA
ATOM      3  N   UNL     1      34.366  22.645  11.973  0.00  0.00    -0.297 N 
ATOM      4  C   UNL     1      35.651  21.942  12.011  0.00  0.00    +0.108 C 
ATOM      5  C   UNL     1      35.568  20.626  12.764  0.00  0.00    +0.020 C 
ATOM      6  C   UNL     1      34.928  20.804  14.128  0.00  0.00    +0.011 C 
ATOM      7  C   UNL     1      33.563  21.533  14.064  0.00  0.00    -0.004 C 
ATOM      8  C   UNL     1      33.102  21.758  15.520  0.00  0.00    +0.020 C 
ATOM      9  C   UNL     1      31.597  21.907  15.565  0.00  0.00    +0.070 C 
ATOM     10  S   UNL     1      30.999  20.671  14.401  0.00  0.00    -0.160 S 
ATOM     11  C   UNL     1      32.492  20.659  13.370  0.00  0.00    +0.077 C 
ATOM     12  C   UNL     1      33.747  22.868  13.290  0.00  0.00    +0.115 C 
ENDROOT
BRANCH   1  16
ATOM     13  C   UNL     1      35.021  22.486   6.804  0.00  0.00    +0.037 A 
ATOM     14  C   UNL     1      34.160  21.551   7.387  0.00  0.00    +0.014 A 
ATOM     15  C   UNL     1      33.809  21.672   8.734  0.00  0.00    +0.014 A 
ATOM     16  C   UNL     1      34.234  22.782   9.472  0.00  0.00    +0.037 A 
ATOM     17  C   UNL     1      35.178  23.658   8.917  0.00  0.00    +0.014 A 
ATOM     18  C   UNL     1      35.580  23.502   7.588  0.00  0.00    +0.014 A 
BRANCH  13  20
ATOM     19  N   UNL     1      35.516  23.619   4.710  0.00  0.00    -0.325 N 
ATOM     20  C   UNL     1      35.357  22.427   5.358  0.00  0.00    +0.242 C 
ATOM     21  O   UNL     1      35.535  21.361   4.788  0.00  0.00    -0.270 OA
ATOM     22  H   UNL     1      35.870  23.563   3.763  0.00  0.00    +0.145 HD
ATOM     23  H   UNL     1      35.652  24.488   5.207  0.00  0.00    +0.145 HD
ENDBRANCH  13  20
ENDBRANCH   1  16
TORSDOF 2
ENDMDL
MODEL 6
REMARK VINA RESULT:      -5.8     15.525     17.936
REMARK  Name = ZINC000583127796
REMARK  2 active torsions:
REMARK  status: ('A' for Active; 'I' for Inactive)
REMARK    1  A    between atoms: C_2  and  C_4
REMARK    2  A    between atoms: C_7  and  C_8
REMARK                            x       y       z     vdW  Elec       q    Type
REMARK                         _______ _______ _______ _____ _____    ______ ____
ROOT
ATOM      1  C   UNL     1      24.193  25.912  23.506  0.00  0.00    +0.247 C 
ATOM      2  O   UNL     1      23.502  24.911  23.686  0.00  0.00    -0.270 OA
ATOM      3  N   UNL     1      25.164  26.339  24.427  0.00  0.00    -0.297 N 
ATOM      4  C   UNL     1      26.035  27.510  24.293  0.00  0.00    +0.108 C 
ATOM      5  C   UNL     1      27.505  27.156  24.430  0.00  0.00    +0.020 C 
ATOM      6  C   UNL     1      27.767  26.338  25.681  0.00  0.00    +0.011 C 
ATOM      7  C   UNL     1      26.849  25.096  25.793  0.00  0.00    -0.004 C 
ATOM      8  C   UNL     1      27.136  24.445  27.163  0.00  0.00    +0.020 C 
ATOM      9  C   UNL     1      26.760  22.979  27.123  0.00  0.00    +0.070 C 
ATOM     10  S   UNL     1      27.321  22.426  25.505  0.00  0.00    -0.160 S 
ATOM     11  C   UNL     1      27.185  24.049  24.705  0.00  0.00    +0.077 C 
ATOM     12  C   UNL     1      25.371  25.555  25.655  0.00  0.00    +0.115 C 
ENDROOT
BRANCH   1  16
ATOM     13  C   UNL     1      23.473  27.671  19.674  0.00  0.00    +0.037 A 
ATOM     14  C   UNL     1      24.646  26.937  19.878  0.00  0.00    +0.014 A 
ATOM     15  C   UNL     1      24.952  26.454  21.153  0.00  0.00    +0.014 A 
ATOM     16  C   UNL     1      24.040  26.614  22.201  0.00  0.00    +0.037 A 
ATOM     17  C   UNL     1      22.920  27.437  22.020  0.00  0.00    +0.014 A 
ATOM     18  C   UNL     1      22.644  27.975  20.759  0.00  0.00    +0.014 A 
BRANCH  13  20
ATOM     19  N   UNL     1      22.330  27.283  17.563  0.00  0.00    -0.325 N 
ATOM     20  C   UNL     1      23.083  28.137  18.318  0.00  0.00    +0.242 C 
ATOM     21  O   UNL     1      23.377  29.254  17.919  0.00  0.00    -0.270 OA
ATOM     22  H   UNL     1      21.965  27.664  16.698  0.00  0.00    +0.145 HD
ATOM     23  H   UNL     1      21.847  26.492  17.965  0.00  0.00    +0.145 HD
ENDBRANCH  13  20
ENDBRANCH   1  16
TORSDOF 2
ENDMDL
MODEL 7
REMARK VINA RESULT:      -5.8      5.226      7.625
REMARK  Name = ZINC000583127796
REMARK  2 active torsions:
REMARK  status: ('A' for Active; 'I' for Inactive)
REMARK    1  A    between atoms: C_2  and  C_4
REMARK    2  A    between atoms: C_7  and  C_8
REMARK                            x       y       z     vdW  Elec       q    Type
REMARK                         _______ _______ _______ _____ _____    ______ ____
ROOT
ATOM      1  C   UNL     1      34.330  18.645  14.081  0.00  0.00    +0.247 C 
ATOM      2  O   UNL     1      35.535  18.672  14.325  0.00  0.00    -0.270 OA
ATOM      3  N   UNL     1      33.487  19.747  14.298  0.00  0.00    -0.297 N 
ATOM      4  C   UNL     1      32.047  19.808  14.032  0.00  0.00    +0.108 C 
ATOM      5  C   UNL     1      31.674  20.972  13.131  0.00  0.00    +0.020 C 
ATOM      6  C   UNL     1      32.258  22.278  13.638  0.00  0.00    +0.011 C 
ATOM      7  C   UNL     1      33.783  22.196  13.895  0.00  0.00    -0.004 C 
ATOM      8  C   UNL     1      34.206  23.541  14.526  0.00  0.00    +0.020 C 
ATOM      9  C   UNL     1      35.679  23.784  14.275  0.00  0.00    +0.070 C 
ATOM     10  S   UNL     1      35.930  23.239  12.578  0.00  0.00    -0.160 S 
ATOM     11  C   UNL     1      34.569  22.039  12.573  0.00  0.00    +0.077 C 
ATOM     12  C   UNL     1      34.067  20.990  14.832  0.00  0.00    +0.115 C 
ENDROOT
BRANCH   1  16
ATOM     13  C   UNL     1      32.523  15.334  12.064  0.00  0.00    +0.037 A 
ATOM     14  C   UNL     1      32.397  15.437  13.453  0.00  0.00    +0.014 A 
ATOM     15  C   UNL     1      33.077  16.446  14.140  0.00  0.00    +0.014 A 
ATOM     16  C   UNL     1      33.798  17.413  13.433  0.00  0.00    +0.037 A 
ATOM     17  C   UNL     1      34.007  17.247  12.057  0.00  0.00    +0.014 A 
ATOM     18  C   UNL     1      33.379  16.200  11.375  0.00  0.00    +0.014 A 
BRANCH  13  20
ATOM     19  N   UNL     1      30.477  14.640  10.948  0.00  0.00    -0.325 N 
ATOM     20  C   UNL     1      31.759  14.317  11.295  0.00  0.00    +0.242 C 
ATOM     21  O   UNL     1      32.271  13.265  10.944  0.00  0.00    -0.270 OA
ATOM     22  H   UNL     1      30.015  13.995  10.317  0.00  0.00    +0.145 HD
ATOM     23  H   UNL     1      30.133  15.589  10.977  0.00  0.00    +0.145 HD
ENDBRANCH  13  20
ENDBRANCH   1  16
TORSDOF 2
ENDMDL
MODEL 8
REMARK VINA RESULT:      -5.7      4.094      7.991
REMARK  Name = ZINC000583127796
REMARK  2 active torsions:
REMARK  status: ('A' for Active; 'I' for Inactive)
REMARK    1  A    between atoms: C_2  and  C_4
REMARK    2  A    between atoms: C_7  and  C_8
REMARK                            x       y       z     vdW  Elec       q    Type
REMARK                         _______ _______ _______ _____ _____    ______ ____
ROOT
ATOM      1  C   UNL     1      32.879  22.343  14.376  0.00  0.00    +0.247 C 
ATOM      2  O   UNL     1      32.127  21.454  14.772  0.00  0.00    -0.270 OA
ATOM      3  N   UNL     1      33.843  22.944  15.201  0.00  0.00    -0.297 N 
ATOM      4  C   UNL     1      34.782  24.001  14.817  0.00  0.00    +0.108 C 
ATOM      5  C   UNL     1      36.225  23.625  15.105  0.00  0.00    +0.020 C 
ATOM      6  C   UNL     1      36.400  23.140  16.532  0.00  0.00    +0.011 C 
ATOM      7  C   UNL     1      35.410  22.012  16.912  0.00  0.00    -0.004 C 
ATOM      8  C   UNL     1      35.616  21.718  18.414  0.00  0.00    +0.020 C 
ATOM      9  C   UNL     1      35.159  20.310  18.728  0.00  0.00    +0.070 C 
ATOM     10  S   UNL     1      35.739  19.338  17.329  0.00  0.00    -0.160 S 
ATOM     11  C   UNL     1      35.720  20.709  16.140  0.00  0.00    +0.077 C 
ATOM     12  C   UNL     1      33.965  22.490  16.596  0.00  0.00    +0.115 C 
ENDROOT
BRANCH   1  16
ATOM     13  C   UNL     1      33.015  23.546  10.273  0.00  0.00    +0.037 A 
ATOM     14  C   UNL     1      32.093  24.153  11.132  0.00  0.00    +0.014 A 
ATOM     15  C   UNL     1      31.955  23.692  12.444  0.00  0.00    +0.014 A 
ATOM     16  C   UNL     1      32.808  22.696  12.930  0.00  0.00    +0.037 A 
ATOM     17  C   UNL     1      33.656  22.021  12.042  0.00  0.00    +0.014 A 
ATOM     18  C   UNL     1      33.750  22.438  10.711  0.00  0.00    +0.014 A 
BRANCH  13  20
ATOM     19  N   UNL     1      34.337  24.841   8.696  0.00  0.00    -0.325 N 
ATOM     20  C   UNL     1      33.237  24.057   8.896  0.00  0.00    +0.242 C 
ATOM     21  O   UNL     1      32.498  23.745   7.974  0.00  0.00    -0.270 OA
ATOM     22  H   UNL     1      34.545  25.074   7.732  0.00  0.00    +0.145 HD
ATOM     23  H   UNL     1      35.099  24.880   9.359  0.00  0.00    +0.145 HD
ENDBRANCH  13  20
ENDBRANCH   1  16
TORSDOF 2
ENDMDL
MODEL 9
REMARK VINA RESULT:      -5.7      6.423      7.944
REMARK  Name = ZINC000583127796
REMARK  2 active torsions:
REMARK  status: ('A' for Active; 'I' for Inactive)
REMARK    1  A    between atoms: C_2  and  C_4
REMARK    2  A    between atoms: C_7  and  C_8
REMARK                            x       y       z     vdW  Elec       q    Type
REMARK                         _______ _______ _______ _____ _____    ______ ____
ROOT
ATOM      1  C   UNL     1      35.138  21.844  15.142  0.00  0.00    +0.247 C 
ATOM      2  O   UNL     1      36.211  21.369  14.773  0.00  0.00    -0.270 OA
ATOM      3  N   UNL     1      33.899  21.346  14.707  0.00  0.00    -0.297 N 
ATOM      4  C   UNL     1      32.576  21.841  15.097  0.00  0.00    +0.108 C 
ATOM      5  C   UNL     1      31.689  20.742  15.655  0.00  0.00    +0.020 C 
ATOM      6  C   UNL     1      31.644  19.539  14.732  0.00  0.00    +0.011 C 
ATOM      7  C   UNL     1      33.052  19.021  14.346  0.00  0.00    -0.004 C 
ATOM      8  C   UNL     1      32.850  17.894  13.310  0.00  0.00    +0.020 C 
ATOM      9  C   UNL     1      34.048  16.969  13.320  0.00  0.00    +0.070 C 
ATOM     10  S   UNL     1      34.456  16.798  15.065  0.00  0.00    -0.160 S 
ATOM     11  C   UNL     1      33.777  18.405  15.564  0.00  0.00    +0.077 C 
ATOM     12  C   UNL     1      33.879  20.207  13.775  0.00  0.00    +0.115 C 
ENDROOT
BRANCH   1  16
ATOM     13  C   UNL     1      34.919  24.839  18.188  0.00  0.00    +0.037 A 
ATOM     14  C   UNL     1      34.946  25.231  16.846  0.00  0.00    +0.014 A 
ATOM     15  C   UNL     1      35.134  24.275  15.845  0.00  0.00    +0.014 A 
ATOM     16  C   UNL     1      35.191  22.917  16.173  0.00  0.00    +0.037 A 
ATOM     17  C   UNL     1      35.269  22.537  17.521  0.00  0.00    +0.014 A 
ATOM     18  C   UNL     1      35.145  23.500  18.527  0.00  0.00    +0.014 A 
BRANCH  13  20
ATOM     19  N   UNL     1      33.341  26.071  19.569  0.00  0.00    -0.325 N 
ATOM     20  C   UNL     1      34.651  25.819  19.272  0.00  0.00    +0.242 C 
ATOM     21  O   UNL     1      35.561  26.335  19.904  0.00  0.00    -0.270 OA
ATOM     22  H   UNL     1      33.176  26.639  20.391  0.00  0.00    +0.145 HD
ATOM     23  H   UNL     1      32.594  25.463  19.265  0.00  0.00    +0.145 HD
ENDBRANCH  13  20
ENDBRANCH   1  16
TORSDOF 2
ENDMDL
