MODEL 1
REMARK VINA RESULT:      -7.3      0.000      0.000
REMARK  Name = ZINC000543478179
REMARK  8 active torsions:
REMARK  status: ('A' for Active; 'I' for Inactive)
REMARK    1  A    between atoms: C_1  and  C_2
REMARK    2  A    between atoms: C_2  and  N_3
REMARK    3  A    between atoms: N_9  and  C_10
REMARK    4  A    between atoms: C_10  and  C_11
REMARK    5  A    between atoms: C_10  and  C_12
REMARK    6  A    between atoms: C_15  and  O_16
REMARK    7  A    between atoms: O_16  and  C_17
REMARK    8  A    between atoms: C_17  and  C_18
REMARK                            x       y       z     vdW  Elec       q    Type
REMARK                         _______ _______ _______ _____ _____    ______ ____
ROOT
ATOM      1  C   UNL     1      26.841  20.697  16.654  0.00  0.00    +0.102 C 
ATOM      2  C   UNL     1      26.335  19.258  16.537  0.00  0.00    +0.033 C 
ENDROOT
BRANCH   1   9
ATOM      3  N   UNL     1      23.410  24.810  17.607  0.00  0.00    -0.299 N 
ATOM      4  C   UNL     1      24.182  24.900  18.845  0.00  0.00    +0.127 C 
ATOM      5  C   UNL     1      24.465  23.518  19.441  0.00  0.00    +0.129 C 
ATOM      6  N   UNL     1      25.166  22.676  18.467  0.00  0.00    -0.275 N 
ATOM      7  C   UNL     1      26.247  21.947  18.873  0.00  0.00    +0.303 C 
ATOM      8  O   UNL     1      26.660  21.998  20.036  0.00  0.00    -0.253 OA
ATOM      9  N   UNL     1      26.944  21.142  18.041  0.00  0.00    -0.293 N 
ATOM     10  C   UNL     1      24.597  22.698  17.128  0.00  0.00    +0.205 C 
ATOM     11  C   UNL     1      23.494  23.700  16.790  0.00  0.00    +0.233 C 
ATOM     12  O   UNL     1      22.825  23.561  15.763  0.00  0.00    -0.274 OA
ATOM     13  H   UNL     1      27.708  20.730  18.562  0.00  0.00    +0.151 HD
BRANCH   3  15
ATOM     14  C   UNL     1      21.681  26.370  18.356  0.00  0.00    +0.024 C 
ATOM     15  C   UNL     1      22.562  25.917  17.206  0.00  0.00    +0.104 C 
ENDBRANCH   3  15
ENDBRANCH   1   9
BRANCH   1  16
ATOM     16  C   UNL     1      28.167  20.897  15.944  0.00  0.00    -0.024 A 
ATOM     17  C   UNL     1      29.026  21.952  16.274  0.00  0.00    +0.009 A 
ATOM     18  C   UNL     1      30.233  22.131  15.596  0.00  0.00    +0.049 A 
ATOM     19  C   UNL     1      30.589  21.279  14.542  0.00  0.00    +0.156 A 
ATOM     20  C   UNL     1      29.753  20.207  14.240  0.00  0.00    +0.165 A 
ATOM     21  F   UNL     1      30.079  19.344  13.264  0.00  0.00    -0.202 F 
ATOM     22  C   UNL     1      28.550  20.017  14.917  0.00  0.00    +0.047 A 
BRANCH  19  23
ATOM     23  O   UNL     1      31.709  21.429  13.773  0.00  0.00    -0.489 OA
BRANCH  23  24
ATOM     24  C   UNL     1      31.932  22.752  13.284  0.00  0.00    +0.232 C 
BRANCH  24  25
ATOM     25  C   UNL     1      30.986  23.032  12.160  0.00  0.00    +0.027 C 
ATOM     26  C   UNL     1      31.458  23.853  10.987  0.00  0.00    +0.007 C 
ATOM     27  C   UNL     1      30.450  24.425  11.946  0.00  0.00    +0.007 C 
ENDBRANCH  24  25
ENDBRANCH  23  24
ENDBRANCH  19  23
ENDBRANCH   1  16
TORSDOF 6
ENDMDL
MODEL 2
REMARK VINA RESULT:      -6.4      4.456      6.932
REMARK  Name = ZINC000543478179
REMARK  8 active torsions:
REMARK  status: ('A' for Active; 'I' for Inactive)
REMARK    1  A    between atoms: C_1  and  C_2
REMARK    2  A    between atoms: C_2  and  N_3
REMARK    3  A    between atoms: N_9  and  C_10
REMARK    4  A    between atoms: C_10  and  C_11
REMARK    5  A    between atoms: C_10  and  C_12
REMARK    6  A    between atoms: C_15  and  O_16
REMARK    7  A    between atoms: O_16  and  C_17
REMARK    8  A    between atoms: C_17  and  C_18
REMARK                            x       y       z     vdW  Elec       q    Type
REMARK                         _______ _______ _______ _____ _____    ______ ____
ROOT
ATOM      1  C   UNL     1      29.960  20.624  15.110  0.00  0.00    +0.102 C 
ATOM      2  C   UNL     1      29.841  21.602  13.938  0.00  0.00    +0.033 C 
ENDROOT
BRANCH   1   9
ATOM      3  N   UNL     1      31.527  23.223  19.624  0.00  0.00    -0.299 N 
ATOM      4  C   UNL     1      30.232  22.745  20.106  0.00  0.00    +0.127 C 
ATOM      5  C   UNL     1      29.137  22.903  19.047  0.00  0.00    +0.129 C 
ATOM      6  N   UNL     1      29.512  22.198  17.817  0.00  0.00    -0.275 N 
ATOM      7  C   UNL     1      28.586  21.415  17.189  0.00  0.00    +0.303 C 
ATOM      8  O   UNL     1      27.448  21.270  17.646  0.00  0.00    -0.253 OA
ATOM      9  N   UNL     1      28.848  20.738  16.049  0.00  0.00    -0.293 N 
ATOM     10  C   UNL     1      30.877  22.438  17.374  0.00  0.00    +0.205 C 
ATOM     11  C   UNL     1      31.845  23.198  18.281  0.00  0.00    +0.233 C 
ATOM     12  O   UNL     1      32.904  23.637  17.825  0.00  0.00    -0.274 OA
ATOM     13  H   UNL     1      28.020  20.215  15.791  0.00  0.00    +0.151 HD
BRANCH   3  15
ATOM     14  C   UNL     1      32.339  23.039  21.925  0.00  0.00    +0.024 C 
ATOM     15  C   UNL     1      32.513  23.706  20.572  0.00  0.00    +0.104 C 
ENDBRANCH   3  15
ENDBRANCH   1   9
BRANCH   1  16
ATOM     16  C   UNL     1      30.100  19.186  14.642  0.00  0.00    -0.024 A 
ATOM     17  C   UNL     1      31.273  18.721  14.036  0.00  0.00    +0.009 A 
ATOM     18  C   UNL     1      31.375  17.401  13.594  0.00  0.00    +0.049 A 
ATOM     19  C   UNL     1      30.287  16.526  13.712  0.00  0.00    +0.156 A 
ATOM     20  C   UNL     1      29.134  16.978  14.349  0.00  0.00    +0.165 A 
ATOM     21  F   UNL     1      28.085  16.158  14.518  0.00  0.00    -0.202 F 
ATOM     22  C   UNL     1      29.028  18.292  14.800  0.00  0.00    +0.047 A 
BRANCH  19  23
ATOM     23  O   UNL     1      30.271  15.245  13.234  0.00  0.00    -0.489 OA
BRANCH  23  24
ATOM     24  C   UNL     1      31.558  14.680  12.983  0.00  0.00    +0.232 C 
BRANCH  24  25
ATOM     25  C   UNL     1      31.475  13.759  11.808  0.00  0.00    +0.027 C 
ATOM     26  C   UNL     1      32.082  12.382  11.907  0.00  0.00    +0.007 C 
ATOM     27  C   UNL     1      32.714  13.419  11.018  0.00  0.00    +0.007 C 
ENDBRANCH  24  25
ENDBRANCH  23  24
ENDBRANCH  19  23
ENDBRANCH   1  16
TORSDOF 6
ENDMDL
MODEL 3
REMARK VINA RESULT:      -6.3      4.309      9.471
REMARK  Name = ZINC000543478179
REMARK  8 active torsions:
REMARK  status: ('A' for Active; 'I' for Inactive)
REMARK    1  A    between atoms: C_1  and  C_2
REMARK    2  A    between atoms: C_2  and  N_3
REMARK    3  A    between atoms: N_9  and  C_10
REMARK    4  A    between atoms: C_10  and  C_11
REMARK    5  A    between atoms: C_10  and  C_12
REMARK    6  A    between atoms: C_15  and  O_16
REMARK    7  A    between atoms: O_16  and  C_17
REMARK    8  A    between atoms: C_17  and  C_18
REMARK                            x       y       z     vdW  Elec       q    Type
REMARK                         _______ _______ _______ _____ _____    ______ ____
ROOT
ATOM      1  C   UNL     1      29.295  19.249  15.084  0.00  0.00    +0.102 C 
ATOM      2  C   UNL     1      28.654  19.324  13.696  0.00  0.00    +0.033 C 
ENDROOT
BRANCH   1   9
ATOM      3  N   UNL     1      32.544  15.206  13.446  0.00  0.00    -0.299 N 
ATOM      4  C   UNL     1      33.582  16.115  13.929  0.00  0.00    +0.127 C 
ATOM      5  C   UNL     1      33.305  17.564  13.518  0.00  0.00    +0.129 C 
ATOM      6  N   UNL     1      31.990  17.991  14.006  0.00  0.00    -0.275 N 
ATOM      7  C   UNL     1      31.866  19.211  14.608  0.00  0.00    +0.303 C 
ATOM      8  O   UNL     1      32.840  19.953  14.768  0.00  0.00    -0.253 OA
ATOM      9  N   UNL     1      30.690  19.681  15.079  0.00  0.00    -0.293 N 
ATOM     10  C   UNL     1      30.918  17.037  13.769  0.00  0.00    +0.205 C 
ATOM     11  C   UNL     1      31.250  15.640  13.244  0.00  0.00    +0.233 C 
ATOM     12  O   UNL     1      30.356  14.921  12.791  0.00  0.00    -0.274 OA
ATOM     13  H   UNL     1      30.854  20.588  15.498  0.00  0.00    +0.151 HD
BRANCH   3  15
ATOM     14  C   UNL     1      34.217  13.678  12.522  0.00  0.00    +0.024 C 
ATOM     15  C   UNL     1      32.867  13.813  13.202  0.00  0.00    +0.104 C 
ENDBRANCH   3  15
ENDBRANCH   1   9
BRANCH   1  16
ATOM     16  C   UNL     1      28.511  20.036  16.118  0.00  0.00    -0.024 A 
ATOM     17  C   UNL     1      27.129  19.875  16.271  0.00  0.00    +0.009 A 
ATOM     18  C   UNL     1      26.421  20.623  17.214  0.00  0.00    +0.049 A 
ATOM     19  C   UNL     1      27.078  21.580  17.999  0.00  0.00    +0.156 A 
ATOM     20  C   UNL     1      28.458  21.713  17.874  0.00  0.00    +0.165 A 
ATOM     21  F   UNL     1      29.130  22.590  18.637  0.00  0.00    -0.202 F 
ATOM     22  C   UNL     1      29.172  20.964  16.940  0.00  0.00    +0.047 A 
BRANCH  19  23
ATOM     23  O   UNL     1      26.452  22.411  18.887  0.00  0.00    -0.489 OA
BRANCH  23  24
ATOM     24  C   UNL     1      25.040  22.229  18.989  0.00  0.00    +0.232 C 
BRANCH  24  25
ATOM     25  C   UNL     1      24.353  23.534  18.736  0.00  0.00    +0.027 C 
ATOM     26  C   UNL     1      22.852  23.613  18.863  0.00  0.00    +0.007 C 
ATOM     27  C   UNL     1      23.497  23.717  17.508  0.00  0.00    +0.007 C 
ENDBRANCH  24  25
ENDBRANCH  23  24
ENDBRANCH  19  23
ENDBRANCH   1  16
TORSDOF 6
ENDMDL
MODEL 4
REMARK VINA RESULT:      -6.2      5.737      8.415
REMARK  Name = ZINC000543478179
REMARK  8 active torsions:
REMARK  status: ('A' for Active; 'I' for Inactive)
REMARK    1  A    between atoms: C_1  and  C_2
REMARK    2  A    between atoms: C_2  and  N_3
REMARK    3  A    between atoms: N_9  and  C_10
REMARK    4  A    between atoms: C_10  and  C_11
REMARK    5  A    between atoms: C_10  and  C_12
REMARK    6  A    between atoms: C_15  and  O_16
REMARK    7  A    between atoms: O_16  and  C_17
REMARK    8  A    between atoms: C_17  and  C_18
REMARK                            x       y       z     vdW  Elec       q    Type
REMARK                         _______ _______ _______ _____ _____    ______ ____
ROOT
ATOM      1  C   UNL     1      31.342  21.459  14.120  0.00  0.00    +0.102 C 
ATOM      2  C   UNL     1      31.324  22.123  15.499  0.00  0.00    +0.033 C 
ENDROOT
BRANCH   1   9
ATOM      3  N   UNL     1      31.869  16.047  14.263  0.00  0.00    -0.299 N 
ATOM      4  C   UNL     1      30.551  16.104  13.634  0.00  0.00    +0.127 C 
ATOM      5  C   UNL     1      29.653  17.159  14.287  0.00  0.00    +0.129 C 
ATOM      6  N   UNL     1      30.295  18.476  14.240  0.00  0.00    -0.275 N 
ATOM      7  C   UNL     1      29.561  19.562  13.859  0.00  0.00    +0.303 C 
ATOM      8  O   UNL     1      28.374  19.456  13.532  0.00  0.00    -0.253 OA
ATOM      9  N   UNL     1      30.074  20.810  13.795  0.00  0.00    -0.293 N 
ATOM     10  C   UNL     1      31.694  18.482  14.640  0.00  0.00    +0.205 C 
ATOM     11  C   UNL     1      32.422  17.157  14.869  0.00  0.00    +0.233 C 
ATOM     12  O   UNL     1      33.508  17.141  15.455  0.00  0.00    -0.274 OA
ATOM     13  H   UNL     1      29.350  21.437  13.468  0.00  0.00    +0.151 HD
BRANCH   3  15
ATOM     14  C   UNL     1      32.310  14.013  12.977  0.00  0.00    +0.024 C 
ATOM     15  C   UNL     1      32.629  14.812  14.227  0.00  0.00    +0.104 C 
ENDBRANCH   3  15
ENDBRANCH   1   9
BRANCH   1  16
ATOM     16  C   UNL     1      31.723  22.435  13.021  0.00  0.00    -0.024 A 
ATOM     17  C   UNL     1      33.044  22.560  12.576  0.00  0.00    +0.009 A 
ATOM     18  C   UNL     1      33.379  23.478  11.579  0.00  0.00    +0.049 A 
ATOM     19  C   UNL     1      32.403  24.321  11.032  0.00  0.00    +0.156 A 
ATOM     20  C   UNL     1      31.082  24.169  11.448  0.00  0.00    +0.165 A 
ATOM     21  F   UNL     1      30.111  24.930  10.918  0.00  0.00    -0.202 F 
ATOM     22  C   UNL     1      30.739  23.250  12.437  0.00  0.00    +0.047 A 
BRANCH  19  23
ATOM     23  O   UNL     1      32.656  25.300  10.113  0.00  0.00    -0.489 OA
BRANCH  23  24
ATOM     24  C   UNL     1      33.584  24.941   9.089  0.00  0.00    +0.232 C 
BRANCH  24  25
ATOM     25  C   UNL     1      32.875  24.158   8.030  0.00  0.00    +0.027 C 
ATOM     26  C   UNL     1      32.901  22.651   8.087  0.00  0.00    +0.007 C 
ATOM     27  C   UNL     1      33.661  23.374   7.009  0.00  0.00    +0.007 C 
ENDBRANCH  24  25
ENDBRANCH  23  24
ENDBRANCH  19  23
ENDBRANCH   1  16
TORSDOF 6
ENDMDL
MODEL 5
REMARK VINA RESULT:      -6.2      3.320      8.437
REMARK  Name = ZINC000543478179
REMARK  8 active torsions:
REMARK  status: ('A' for Active; 'I' for Inactive)
REMARK    1  A    between atoms: C_1  and  C_2
REMARK    2  A    between atoms: C_2  and  N_3
REMARK    3  A    between atoms: N_9  and  C_10
REMARK    4  A    between atoms: C_10  and  C_11
REMARK    5  A    between atoms: C_10  and  C_12
REMARK    6  A    between atoms: C_15  and  O_16
REMARK    7  A    between atoms: O_16  and  C_17
REMARK    8  A    between atoms: C_17  and  C_18
REMARK                            x       y       z     vdW  Elec       q    Type
REMARK                         _______ _______ _______ _____ _____    ______ ____
ROOT
ATOM      1  C   UNL     1      29.865  20.359  14.569  0.00  0.00    +0.102 C 
ATOM      2  C   UNL     1      29.525  18.998  13.957  0.00  0.00    +0.033 C 
ENDROOT
BRANCH   1   9
ATOM      3  N   UNL     1      34.245  23.531  15.146  0.00  0.00    -0.299 N 
ATOM      4  C   UNL     1      33.500  24.384  14.221  0.00  0.00    +0.127 C 
ATOM      5  C   UNL     1      32.846  23.571  13.100  0.00  0.00    +0.129 C 
ATOM      6  N   UNL     1      31.967  22.541  13.661  0.00  0.00    -0.275 N 
ATOM      7  C   UNL     1      30.722  22.365  13.128  0.00  0.00    +0.303 C 
ATOM      8  O   UNL     1      30.314  23.067  12.197  0.00  0.00    -0.253 OA
ATOM      9  N   UNL     1      29.854  21.434  13.582  0.00  0.00    -0.293 N 
ATOM     10  C   UNL     1      32.549  21.779  14.755  0.00  0.00    +0.205 C 
ATOM     11  C   UNL     1      33.886  22.215  15.354  0.00  0.00    +0.233 C 
ATOM     12  O   UNL     1      34.516  21.447  16.086  0.00  0.00    -0.274 OA
ATOM     13  H   UNL     1      28.997  21.510  13.047  0.00  0.00    +0.151 HD
BRANCH   3  15
ATOM     14  C   UNL     1      35.157  25.556  16.173  0.00  0.00    +0.024 C 
ATOM     15  C   UNL     1      35.366  24.081  15.885  0.00  0.00    +0.104 C 
ENDBRANCH   3  15
ENDBRANCH   1   9
BRANCH   1  16
ATOM     16  C   UNL     1      28.949  20.708  15.728  0.00  0.00    -0.024 A 
ATOM     17  C   UNL     1      27.665  20.163  15.841  0.00  0.00    +0.009 A 
ATOM     18  C   UNL     1      26.830  20.512  16.903  0.00  0.00    +0.049 A 
ATOM     19  C   UNL     1      27.248  21.449  17.858  0.00  0.00    +0.156 A 
ATOM     20  C   UNL     1      28.540  21.962  17.767  0.00  0.00    +0.165 A 
ATOM     21  F   UNL     1      28.992  22.831  18.685  0.00  0.00    -0.202 F 
ATOM     22  C   UNL     1      29.382  21.612  16.713  0.00  0.00    +0.047 A 
BRANCH  19  23
ATOM     23  O   UNL     1      26.468  21.908  18.882  0.00  0.00    -0.489 OA
BRANCH  23  24
ATOM     24  C   UNL     1      25.238  22.512  18.479  0.00  0.00    +0.232 C 
BRANCH  24  25
ATOM     25  C   UNL     1      24.650  23.258  19.634  0.00  0.00    +0.027 C 
ATOM     26  C   UNL     1      23.189  23.629  19.604  0.00  0.00    +0.007 C 
ATOM     27  C   UNL     1      24.237  24.700  19.477  0.00  0.00    +0.007 C 
ENDBRANCH  24  25
ENDBRANCH  23  24
ENDBRANCH  19  23
ENDBRANCH   1  16
TORSDOF 6
ENDMDL
MODEL 6
REMARK VINA RESULT:      -6.2      4.456      7.337
REMARK  Name = ZINC000543478179
REMARK  8 active torsions:
REMARK  status: ('A' for Active; 'I' for Inactive)
REMARK    1  A    between atoms: C_1  and  C_2
REMARK    2  A    between atoms: C_2  and  N_3
REMARK    3  A    between atoms: N_9  and  C_10
REMARK    4  A    between atoms: C_10  and  C_11
REMARK    5  A    between atoms: C_10  and  C_12
REMARK    6  A    between atoms: C_15  and  O_16
REMARK    7  A    between atoms: O_16  and  C_17
REMARK    8  A    between atoms: C_17  and  C_18
REMARK                            x       y       z     vdW  Elec       q    Type
REMARK                         _______ _______ _______ _____ _____    ______ ____
ROOT
ATOM      1  C   UNL     1      21.860  26.180  18.108  0.00  0.00    +0.102 C 
ATOM      2  C   UNL     1      20.976  26.221  16.858  0.00  0.00    +0.033 C 
ENDROOT
BRANCH   1   9
ATOM      3  N   UNL     1      24.128  29.253  21.980  0.00  0.00    -0.299 N 
ATOM      4  C   UNL     1      23.166  28.546  22.823  0.00  0.00    +0.127 C 
ATOM      5  C   UNL     1      21.797  28.428  22.147  0.00  0.00    +0.129 C 
ATOM      6  N   UNL     1      21.924  27.757  20.849  0.00  0.00    -0.275 N 
ATOM      7  C   UNL     1      21.037  26.773  20.518  0.00  0.00    +0.303 C 
ATOM      8  O   UNL     1      20.143  26.422  21.295  0.00  0.00    -0.253 OA
ATOM      9  N   UNL     1      21.080  26.111  19.341  0.00  0.00    -0.293 N 
ATOM     10  C   UNL     1      23.014  28.247  20.019  0.00  0.00    +0.205 C 
ATOM     11  C   UNL     1      24.028  29.230  20.603  0.00  0.00    +0.233 C 
ATOM     12  O   UNL     1      24.788  29.852  19.857  0.00  0.00    -0.274 OA
ATOM     13  H   UNL     1      20.341  25.419  19.336  0.00  0.00    +0.151 HD
BRANCH   3  15
ATOM     14  C   UNL     1      26.381  29.032  22.910  0.00  0.00    +0.024 C 
ATOM     15  C   UNL     1      25.230  29.970  22.594  0.00  0.00    +0.104 C 
ENDBRANCH   3  15
ENDBRANCH   1   9
BRANCH   1  16
ATOM     16  C   UNL     1      22.861  25.040  18.061  0.00  0.00    -0.024 A 
ATOM     17  C   UNL     1      23.070  24.292  16.897  0.00  0.00    +0.009 A 
ATOM     18  C   UNL     1      23.980  23.234  16.879  0.00  0.00    +0.049 A 
ATOM     19  C   UNL     1      24.675  22.875  18.042  0.00  0.00    +0.156 A 
ATOM     20  C   UNL     1      24.497  23.644  19.189  0.00  0.00    +0.165 A 
ATOM     21  F   UNL     1      25.175  23.358  20.312  0.00  0.00    -0.202 F 
ATOM     22  C   UNL     1      23.595  24.706  19.212  0.00  0.00    +0.047 A 
BRANCH  19  23
ATOM     23  O   UNL     1      25.523  21.807  18.135  0.00  0.00    -0.489 OA
BRANCH  23  24
ATOM     24  C   UNL     1      26.118  21.400  16.903  0.00  0.00    +0.232 C 
BRANCH  24  25
ATOM     25  C   UNL     1      26.810  20.088  17.096  0.00  0.00    +0.027 C 
ATOM     26  C   UNL     1      27.469  19.423  15.914  0.00  0.00    +0.007 C 
ATOM     27  C   UNL     1      26.224  18.827  16.512  0.00  0.00    +0.007 C 
ENDBRANCH  24  25
ENDBRANCH  23  24
ENDBRANCH  19  23
ENDBRANCH   1  16
TORSDOF 6
ENDMDL
MODEL 7
REMARK VINA RESULT:      -6.2      4.612      7.595
REMARK  Name = ZINC000543478179
REMARK  8 active torsions:
REMARK  status: ('A' for Active; 'I' for Inactive)
REMARK    1  A    between atoms: C_1  and  C_2
REMARK    2  A    between atoms: C_2  and  N_3
REMARK    3  A    between atoms: N_9  and  C_10
REMARK    4  A    between atoms: C_10  and  C_11
REMARK    5  A    between atoms: C_10  and  C_12
REMARK    6  A    between atoms: C_15  and  O_16
REMARK    7  A    between atoms: O_16  and  C_17
REMARK    8  A    between atoms: C_17  and  C_18
REMARK                            x       y       z     vdW  Elec       q    Type
REMARK                         _______ _______ _______ _____ _____    ______ ____
ROOT
ATOM      1  C   UNL     1      22.317  27.150  18.631  0.00  0.00    +0.102 C 
ATOM      2  C   UNL     1      20.789  27.131  18.560  0.00  0.00    +0.033 C 
ENDROOT
BRANCH   1   9
ATOM      3  N   UNL     1      25.669  31.423  18.320  0.00  0.00    -0.299 N 
ATOM      4  C   UNL     1      25.947  31.049  19.706  0.00  0.00    +0.127 C 
ATOM      5  C   UNL     1      24.668  30.684  20.464  0.00  0.00    +0.129 C 
ATOM      6  N   UNL     1      23.961  29.598  19.778  0.00  0.00    -0.275 N 
ATOM      7  C   UNL     1      23.478  28.551  20.510  0.00  0.00    +0.303 C 
ATOM      8  O   UNL     1      23.642  28.488  21.732  0.00  0.00    -0.253 OA
ATOM      9  N   UNL     1      22.810  27.515  19.957  0.00  0.00    -0.293 N 
ATOM     10  C   UNL     1      23.831  29.774  18.340  0.00  0.00    +0.205 C 
ATOM     11  C   UNL     1      24.579  30.911  17.645  0.00  0.00    +0.233 C 
ATOM     12  O   UNL     1      24.280  31.236  16.493  0.00  0.00    -0.274 OA
ATOM     13  H   UNL     1      22.575  26.858  20.691  0.00  0.00    +0.151 HD
BRANCH   3  15
ATOM     14  C   UNL     1      28.018  31.950  17.881  0.00  0.00    +0.024 C 
ATOM     15  C   UNL     1      26.570  32.323  17.624  0.00  0.00    +0.104 C 
ENDBRANCH   3  15
ENDBRANCH   1   9
BRANCH   1  16
ATOM     16  C   UNL     1      22.926  25.830  18.195  0.00  0.00    -0.024 A 
ATOM     17  C   UNL     1      23.851  25.148  18.994  0.00  0.00    +0.009 A 
ATOM     18  C   UNL     1      24.416  23.945  18.568  0.00  0.00    +0.049 A 
ATOM     19  C   UNL     1      24.097  23.417  17.309  0.00  0.00    +0.156 A 
ATOM     20  C   UNL     1      23.148  24.076  16.531  0.00  0.00    +0.165 A 
ATOM     21  F   UNL     1      22.785  23.581  15.337  0.00  0.00    -0.202 F 
ATOM     22  C   UNL     1      22.574  25.273  16.954  0.00  0.00    +0.047 A 
BRANCH  19  23
ATOM     23  O   UNL     1      24.662  22.291  16.779  0.00  0.00    -0.489 OA
BRANCH  23  24
ATOM     24  C   UNL     1      25.715  21.722  17.556  0.00  0.00    +0.232 C 
BRANCH  24  25
ATOM     25  C   UNL     1      26.790  21.221  16.644  0.00  0.00    +0.027 C 
ATOM     26  C   UNL     1      27.414  19.875  16.912  0.00  0.00    +0.007 C 
ATOM     27  C   UNL     1      28.216  21.129  17.127  0.00  0.00    +0.007 C 
ENDBRANCH  24  25
ENDBRANCH  23  24
ENDBRANCH  19  23
ENDBRANCH   1  16
TORSDOF 6
ENDMDL
MODEL 8
REMARK VINA RESULT:      -6.1      7.310     11.908
REMARK  Name = ZINC000543478179
REMARK  8 active torsions:
REMARK  status: ('A' for Active; 'I' for Inactive)
REMARK    1  A    between atoms: C_1  and  C_2
REMARK    2  A    between atoms: C_2  and  N_3
REMARK    3  A    between atoms: N_9  and  C_10
REMARK    4  A    between atoms: C_10  and  C_11
REMARK    5  A    between atoms: C_10  and  C_12
REMARK    6  A    between atoms: C_15  and  O_16
REMARK    7  A    between atoms: O_16  and  C_17
REMARK    8  A    between atoms: C_17  and  C_18
REMARK                            x       y       z     vdW  Elec       q    Type
REMARK                         _______ _______ _______ _____ _____    ______ ____
ROOT
ATOM      1  C   UNL     1      33.118  15.873  14.643  0.00  0.00    +0.102 C 
ATOM      2  C   UNL     1      33.947  16.309  15.853  0.00  0.00    +0.033 C 
ENDROOT
BRANCH   1   9
ATOM      3  N   UNL     1      35.369  12.995  10.613  0.00  0.00    -0.299 N 
ATOM      4  C   UNL     1      34.417  11.985  11.074  0.00  0.00    +0.127 C 
ATOM      5  C   UNL     1      34.360  11.914  12.603  0.00  0.00    +0.129 C 
ATOM      6  N   UNL     1      34.018  13.226  13.162  0.00  0.00    -0.275 N 
ATOM      7  C   UNL     1      33.076  13.306  14.148  0.00  0.00    +0.303 C 
ATOM      8  O   UNL     1      32.491  12.300  14.563  0.00  0.00    -0.253 OA
ATOM      9  N   UNL     1      32.709  14.473  14.720  0.00  0.00    -0.293 N 
ATOM     10  C   UNL     1      34.765  14.339  12.595  0.00  0.00    +0.205 C 
ATOM     11  C   UNL     1      35.657  14.109  11.376  0.00  0.00    +0.233 C 
ATOM     12  O   UNL     1      36.489  14.959  11.048  0.00  0.00    -0.274 OA
ATOM     13  H   UNL     1      31.985  14.280  15.402  0.00  0.00    +0.151 HD
BRANCH   3  15
ATOM     14  C   UNL     1      36.144  11.380   8.946  0.00  0.00    +0.024 C 
ATOM     15  C   UNL     1      36.002  12.845   9.316  0.00  0.00    +0.104 C 
ENDBRANCH   3  15
ENDBRANCH   1   9
BRANCH   1  16
ATOM     16  C   UNL     1      31.903  16.758  14.434  0.00  0.00    -0.024 A 
ATOM     17  C   UNL     1      32.019  18.148  14.309  0.00  0.00    +0.009 A 
ATOM     18  C   UNL     1      30.888  18.948  14.138  0.00  0.00    +0.049 A 
ATOM     19  C   UNL     1      29.609  18.377  14.129  0.00  0.00    +0.156 A 
ATOM     20  C   UNL     1      29.496  16.992  14.215  0.00  0.00    +0.165 A 
ATOM     21  F   UNL     1      28.290  16.403  14.169  0.00  0.00    -0.202 F 
ATOM     22  C   UNL     1      30.621  16.186  14.378  0.00  0.00    +0.047 A 
BRANCH  19  23
ATOM     23  O   UNL     1      28.446  19.091  14.048  0.00  0.00    -0.489 OA
BRANCH  23  24
ATOM     24  C   UNL     1      28.308  20.131  15.017  0.00  0.00    +0.232 C 
BRANCH  24  25
ATOM     25  C   UNL     1      27.770  19.555  16.289  0.00  0.00    +0.027 C 
ATOM     26  C   UNL     1      26.592  18.616  16.232  0.00  0.00    +0.007 C 
ATOM     27  C   UNL     1      26.426  19.994  16.814  0.00  0.00    +0.007 C 
ENDBRANCH  24  25
ENDBRANCH  23  24
ENDBRANCH  19  23
ENDBRANCH   1  16
TORSDOF 6
ENDMDL
MODEL 9
REMARK VINA RESULT:      -6.1      4.903      6.571
REMARK  Name = ZINC000543478179
REMARK  8 active torsions:
REMARK  status: ('A' for Active; 'I' for Inactive)
REMARK    1  A    between atoms: C_1  and  C_2
REMARK    2  A    between atoms: C_2  and  N_3
REMARK    3  A    between atoms: N_9  and  C_10
REMARK    4  A    between atoms: C_10  and  C_11
REMARK    5  A    between atoms: C_10  and  C_12
REMARK    6  A    between atoms: C_15  and  O_16
REMARK    7  A    between atoms: O_16  and  C_17
REMARK    8  A    between atoms: C_17  and  C_18
REMARK                            x       y       z     vdW  Elec       q    Type
REMARK                         _______ _______ _______ _____ _____    ______ ____
ROOT
ATOM      1  C   UNL     1      30.990  22.004  14.333  0.00  0.00    +0.102 C 
ATOM      2  C   UNL     1      29.802  21.136  13.911  0.00  0.00    +0.033 C 
ENDROOT
BRANCH   1   9
ATOM      3  N   UNL     1      31.071  22.460  19.752  0.00  0.00    -0.299 N 
ATOM      4  C   UNL     1      32.367  21.805  19.586  0.00  0.00    +0.127 C 
ATOM      5  C   UNL     1      32.304  20.670  18.559  0.00  0.00    +0.129 C 
ATOM      6  N   UNL     1      31.821  21.175  17.270  0.00  0.00    -0.275 N 
ATOM      7  C   UNL     1      32.467  20.804  16.125  0.00  0.00    +0.303 C 
ATOM      8  O   UNL     1      33.461  20.071  16.154  0.00  0.00    -0.253 OA
ATOM      9  N   UNL     1      32.083  21.219  14.898  0.00  0.00    -0.293 N 
ATOM     10  C   UNL     1      30.650  22.034  17.356  0.00  0.00    +0.205 C 
ATOM     11  C   UNL     1      30.151  22.498  18.724  0.00  0.00    +0.233 C 
ATOM     12  O   UNL     1      29.027  22.995  18.837  0.00  0.00    -0.274 OA
ATOM     13  H   UNL     1      32.725  20.833  14.216  0.00  0.00    +0.151 HD
BRANCH   3  15
ATOM     14  C   UNL     1      31.336  22.346  22.182  0.00  0.00    +0.024 C 
ATOM     15  C   UNL     1      30.751  23.110  21.009  0.00  0.00    +0.104 C 
ENDBRANCH   3  15
ENDBRANCH   1   9
BRANCH   1  16
ATOM     16  C   UNL     1      31.503  22.864  13.191  0.00  0.00    -0.024 A 
ATOM     17  C   UNL     1      32.871  22.990  12.924  0.00  0.00    +0.009 A 
ATOM     18  C   UNL     1      33.326  23.801  11.883  0.00  0.00    +0.049 A 
ATOM     19  C   UNL     1      32.419  24.538  11.110  0.00  0.00    +0.156 A 
ATOM     20  C   UNL     1      31.056  24.383  11.351  0.00  0.00    +0.165 A 
ATOM     21  F   UNL     1      30.154  25.041  10.605  0.00  0.00    -0.202 F 
ATOM     22  C   UNL     1      30.595  23.569  12.384  0.00  0.00    +0.047 A 
BRANCH  19  23
ATOM     23  O   UNL     1      32.780  25.417  10.126  0.00  0.00    -0.489 OA
BRANCH  23  24
ATOM     24  C   UNL     1      33.667  24.887   9.142  0.00  0.00    +0.232 C 
BRANCH  24  25
ATOM     25  C   UNL     1      32.887  24.083   8.151  0.00  0.00    +0.027 C 
ATOM     26  C   UNL     1      32.962  22.577   8.202  0.00  0.00    +0.007 C 
ATOM     27  C   UNL     1      33.597  23.322   7.060  0.00  0.00    +0.007 C 
ENDBRANCH  24  25
ENDBRANCH  23  24
ENDBRANCH  19  23
ENDBRANCH   1  16
TORSDOF 6
ENDMDL
