MODEL 1
REMARK VINA RESULT:      -6.8      0.000      0.000
REMARK  Name = ZINC001228612316
REMARK  5 active torsions:
REMARK  status: ('A' for Active; 'I' for Inactive)
REMARK    1  A    between atoms: C_2  and  C_4
REMARK    2  A    between atoms: C_8  and  O_9
REMARK    3  A    between atoms: O_9  and  C_10
REMARK    4  A    between atoms: C_10  and  C_11
REMARK    5  A    between atoms: C_10  and  C_17
REMARK                            x       y       z     vdW  Elec       q    Type
REMARK                         _______ _______ _______ _____ _____    ______ ____
ROOT
ATOM      1  C   UNL     1      28.575  22.299  17.790  0.00  0.00    +0.040 A 
ATOM      2  C   UNL     1      28.997  23.038  18.901  0.00  0.00    +0.013 A 
ATOM      3  C   UNL     1      30.343  23.374  19.046  0.00  0.00    +0.004 A 
ATOM      4  C   UNL     1      31.276  22.977  18.085  0.00  0.00    +0.046 A 
ATOM      5  C   UNL     1      30.868  22.236  16.975  0.00  0.00    +0.122 A 
ATOM      6  C   UNL     1      29.515  21.902  16.831  0.00  0.00    +0.058 A 
ENDROOT
BRANCH   1   8
ATOM      7  N   UNL     1      26.325  22.276  18.740  0.00  0.00    -0.325 N 
ATOM      8  C   UNL     1      27.127  21.980  17.671  0.00  0.00    +0.242 C 
ATOM      9  O   UNL     1      26.653  21.506  16.646  0.00  0.00    -0.270 OA
ATOM     10  H   UNL     1      25.330  22.150  18.599  0.00  0.00    +0.145 HD
ATOM     11  H   UNL     1      26.619  22.875  19.496  0.00  0.00    +0.145 HD
ENDBRANCH   1   8
BRANCH   5  12
ATOM     12  O   UNL     1      31.693  21.729  16.008  0.00  0.00    -0.484 OA
BRANCH  12  13
ATOM     13  C   UNL     1      31.115  21.270  14.775  0.00  0.00    +0.208 C 
BRANCH  13  14
ATOM     14  C   UNL     1      31.446  22.158  13.591  0.00  0.00    +0.011 A 
ATOM     15  C   UNL     1      30.623  23.203  13.162  0.00  0.00    +0.010 A 
ATOM     16  C   UNL     1      31.043  24.027  12.120  0.00  0.00    +0.020 A 
ATOM     17  C   UNL     1      32.277  23.782  11.540  0.00  0.00    +0.111 A 
ATOM     18  N   UNL     1      33.095  22.779  11.918  0.00  0.00    -0.263 NA
ATOM     19  C   UNL     1      32.664  21.997  12.931  0.00  0.00    +0.118 A 
ENDBRANCH  13  14
BRANCH  13  20
ATOM     20  C   UNL     1      31.645  19.876  14.458  0.00  0.00    +0.034 C 
ATOM     21  C   UNL     1      30.821  18.909  13.642  0.00  0.00    +0.008 C 
ATOM     22  C   UNL     1      31.093  18.618  15.092  0.00  0.00    +0.008 C 
ENDBRANCH  13  20
ENDBRANCH  12  13
ENDBRANCH   5  12
TORSDOF 5
ENDMDL
MODEL 2
REMARK VINA RESULT:      -6.6      2.174      3.809
REMARK  Name = ZINC001228612316
REMARK  5 active torsions:
REMARK  status: ('A' for Active; 'I' for Inactive)
REMARK    1  A    between atoms: C_2  and  C_4
REMARK    2  A    between atoms: C_8  and  O_9
REMARK    3  A    between atoms: O_9  and  C_10
REMARK    4  A    between atoms: C_10  and  C_11
REMARK    5  A    between atoms: C_10  and  C_17
REMARK                            x       y       z     vdW  Elec       q    Type
REMARK                         _______ _______ _______ _____ _____    ______ ____
ROOT
ATOM      1  C   UNL     1      28.124  22.060  17.343  0.00  0.00    +0.040 A 
ATOM      2  C   UNL     1      28.945  22.686  18.287  0.00  0.00    +0.013 A 
ATOM      3  C   UNL     1      30.316  22.801  18.056  0.00  0.00    +0.004 A 
ATOM      4  C   UNL     1      30.876  22.294  16.880  0.00  0.00    +0.046 A 
ATOM      5  C   UNL     1      30.069  21.664  15.933  0.00  0.00    +0.122 A 
ATOM      6  C   UNL     1      28.692  21.552  16.168  0.00  0.00    +0.058 A 
ENDROOT
BRANCH   1   8
ATOM      7  N   UNL     1      26.249  22.311  18.889  0.00  0.00    -0.325 N 
ATOM      8  C   UNL     1      26.666  21.978  17.628  0.00  0.00    +0.242 C 
ATOM      9  O   UNL     1      25.857  21.662  16.764  0.00  0.00    -0.270 OA
ATOM     10  H   UNL     1      25.248  22.350  19.030  0.00  0.00    +0.145 HD
ATOM     11  H   UNL     1      26.836  22.799  19.548  0.00  0.00    +0.145 HD
ENDBRANCH   1   8
BRANCH   5  12
ATOM     12  O   UNL     1      30.507  21.066  14.783  0.00  0.00    -0.484 OA
BRANCH  12  13
ATOM     13  C   UNL     1      31.822  20.485  14.762  0.00  0.00    +0.208 C 
BRANCH  13  14
ATOM     14  C   UNL     1      31.817  18.984  14.974  0.00  0.00    +0.011 A 
ATOM     15  C   UNL     1      31.154  18.091  14.127  0.00  0.00    +0.010 A 
ATOM     16  C   UNL     1      31.274  16.720  14.341  0.00  0.00    +0.020 A 
ATOM     17  C   UNL     1      32.057  16.282  15.396  0.00  0.00    +0.111 A 
ATOM     18  N   UNL     1      32.704  17.110  16.241  0.00  0.00    -0.263 NA
ATOM     19  C   UNL     1      32.573  18.434  16.010  0.00  0.00    +0.118 A 
ENDBRANCH  13  14
BRANCH  13  20
ATOM     20  C   UNL     1      32.468  20.750  13.407  0.00  0.00    +0.034 C 
ATOM     21  C   UNL     1      33.944  20.504  13.200  0.00  0.00    +0.008 C 
ATOM     22  C   UNL     1      33.407  21.909  13.151  0.00  0.00    +0.008 C 
ENDBRANCH  13  20
ENDBRANCH  12  13
ENDBRANCH   5  12
TORSDOF 5
ENDMDL
MODEL 3
REMARK VINA RESULT:      -6.5      3.048      5.708
REMARK  Name = ZINC001228612316
REMARK  5 active torsions:
REMARK  status: ('A' for Active; 'I' for Inactive)
REMARK    1  A    between atoms: C_2  and  C_4
REMARK    2  A    between atoms: C_8  and  O_9
REMARK    3  A    between atoms: O_9  and  C_10
REMARK    4  A    between atoms: C_10  and  C_11
REMARK    5  A    between atoms: C_10  and  C_17
REMARK                            x       y       z     vdW  Elec       q    Type
REMARK                         _______ _______ _______ _____ _____    ______ ____
ROOT
ATOM      1  C   UNL     1      28.519  21.870  16.987  0.00  0.00    +0.040 A 
ATOM      2  C   UNL     1      28.773  21.252  15.758  0.00  0.00    +0.013 A 
ATOM      3  C   UNL     1      30.075  21.188  15.263  0.00  0.00    +0.004 A 
ATOM      4  C   UNL     1      31.133  21.740  15.991  0.00  0.00    +0.046 A 
ATOM      5  C   UNL     1      30.892  22.363  17.215  0.00  0.00    +0.122 A 
ATOM      6  C   UNL     1      29.583  22.423  17.711  0.00  0.00    +0.058 A 
ENDROOT
BRANCH   1   8
ATOM      7  N   UNL     1      26.911  22.259  18.785  0.00  0.00    -0.325 N 
ATOM      8  C   UNL     1      27.116  21.896  17.481  0.00  0.00    +0.242 C 
ATOM      9  O   UNL     1      26.169  21.641  16.746  0.00  0.00    -0.270 OA
ATOM     10  H   UNL     1      25.946  22.373  19.068  0.00  0.00    +0.145 HD
ATOM     11  H   UNL     1      27.621  22.702  19.347  0.00  0.00    +0.145 HD
ENDBRANCH   1   8
BRANCH   5  12
ATOM     12  O   UNL     1      31.828  23.001  17.983  0.00  0.00    -0.484 OA
BRANCH  12  13
ATOM     13  C   UNL     1      32.111  22.492  19.296  0.00  0.00    +0.208 C 
BRANCH  13  14
ATOM     14  C   UNL     1      33.575  22.160  19.509  0.00  0.00    +0.011 A 
ATOM     15  C   UNL     1      34.027  20.896  19.900  0.00  0.00    +0.010 A 
ATOM     16  C   UNL     1      35.395  20.649  19.986  0.00  0.00    +0.020 A 
ATOM     17  C   UNL     1      36.272  21.676  19.676  0.00  0.00    +0.111 A 
ATOM     18  N   UNL     1      35.877  22.911  19.305  0.00  0.00    -0.263 NA
ATOM     19  C   UNL     1      34.546  23.122  19.228  0.00  0.00    +0.118 A 
ENDBRANCH  13  14
BRANCH  13  20
ATOM     20  C   UNL     1      31.729  23.540  20.336  0.00  0.00    +0.034 C 
ATOM     21  C   UNL     1      31.796  23.219  21.810  0.00  0.00    +0.008 C 
ATOM     22  C   UNL     1      30.462  23.465  21.159  0.00  0.00    +0.008 C 
ENDBRANCH  13  20
ENDBRANCH  12  13
ENDBRANCH   5  12
TORSDOF 5
ENDMDL
MODEL 4
REMARK VINA RESULT:      -6.4      2.219      3.072
REMARK  Name = ZINC001228612316
REMARK  5 active torsions:
REMARK  status: ('A' for Active; 'I' for Inactive)
REMARK    1  A    between atoms: C_2  and  C_4
REMARK    2  A    between atoms: C_8  and  O_9
REMARK    3  A    between atoms: O_9  and  C_10
REMARK    4  A    between atoms: C_10  and  C_11
REMARK    5  A    between atoms: C_10  and  C_17
REMARK                            x       y       z     vdW  Elec       q    Type
REMARK                         _______ _______ _______ _____ _____    ______ ____
ROOT
ATOM      1  C   UNL     1      28.529  22.292  17.731  0.00  0.00    +0.040 A 
ATOM      2  C   UNL     1      28.987  23.091  18.784  0.00  0.00    +0.013 A 
ATOM      3  C   UNL     1      30.341  23.414  18.880  0.00  0.00    +0.004 A 
ATOM      4  C   UNL     1      31.246  22.942  17.925  0.00  0.00    +0.046 A 
ATOM      5  C   UNL     1      30.802  22.141  16.873  0.00  0.00    +0.122 A 
ATOM      6  C   UNL     1      29.442  21.821  16.779  0.00  0.00    +0.058 A 
ENDROOT
BRANCH   1   8
ATOM      7  N   UNL     1      26.311  22.304  18.756  0.00  0.00    -0.325 N 
ATOM      8  C   UNL     1      27.074  21.990  17.663  0.00  0.00    +0.242 C 
ATOM      9  O   UNL     1      26.560  21.515  16.657  0.00  0.00    -0.270 OA
ATOM     10  H   UNL     1      25.312  22.190  18.648  0.00  0.00    +0.145 HD
ATOM     11  H   UNL     1      26.638  22.906  19.496  0.00  0.00    +0.145 HD
ENDBRANCH   1   8
BRANCH   5  12
ATOM     12  O   UNL     1      31.598  21.561  15.923  0.00  0.00    -0.484 OA
BRANCH  12  13
ATOM     13  C   UNL     1      32.053  20.214  16.128  0.00  0.00    +0.208 C 
BRANCH  13  14
ATOM     14  C   UNL     1      32.009  19.368  14.871  0.00  0.00    +0.011 A 
ATOM     15  C   UNL     1      31.077  18.347  14.665  0.00  0.00    +0.010 A 
ATOM     16  C   UNL     1      31.047  17.675  13.445  0.00  0.00    +0.020 A 
ATOM     17  C   UNL     1      31.952  18.049  12.464  0.00  0.00    +0.111 A 
ATOM     18  N   UNL     1      32.872  19.021  12.626  0.00  0.00    -0.263 NA
ATOM     19  C   UNL     1      32.877  19.656  13.818  0.00  0.00    +0.118 A 
ENDBRANCH  13  14
BRANCH  13  20
ATOM     20  C   UNL     1      33.501  20.239  16.607  0.00  0.00    +0.034 C 
ATOM     21  C   UNL     1      34.092  19.049  17.324  0.00  0.00    +0.008 C 
ATOM     22  C   UNL     1      33.888  20.342  18.065  0.00  0.00    +0.008 C 
ENDBRANCH  13  20
ENDBRANCH  12  13
ENDBRANCH   5  12
TORSDOF 5
ENDMDL
MODEL 5
REMARK VINA RESULT:      -6.4      2.326      4.087
REMARK  Name = ZINC001228612316
REMARK  5 active torsions:
REMARK  status: ('A' for Active; 'I' for Inactive)
REMARK    1  A    between atoms: C_2  and  C_4
REMARK    2  A    between atoms: C_8  and  O_9
REMARK    3  A    between atoms: O_9  and  C_10
REMARK    4  A    between atoms: C_10  and  C_11
REMARK    5  A    between atoms: C_10  and  C_17
REMARK                            x       y       z     vdW  Elec       q    Type
REMARK                         _______ _______ _______ _____ _____    ______ ____
ROOT
ATOM      1  C   UNL     1      29.290  22.894  18.669  0.00  0.00    +0.040 A 
ATOM      2  C   UNL     1      28.010  22.697  19.201  0.00  0.00    +0.013 A 
ATOM      3  C   UNL     1      27.029  22.058  18.443  0.00  0.00    +0.004 A 
ATOM      4  C   UNL     1      27.317  21.610  17.151  0.00  0.00    +0.046 A 
ATOM      5  C   UNL     1      28.587  21.804  16.608  0.00  0.00    +0.122 A 
ATOM      6  C   UNL     1      29.571  22.445  17.373  0.00  0.00    +0.058 A 
ENDROOT
BRANCH   1   8
ATOM      7  N   UNL     1      31.230  24.360  18.899  0.00  0.00    -0.325 N 
ATOM      8  C   UNL     1      30.307  23.565  19.522  0.00  0.00    +0.242 C 
ATOM      9  O   UNL     1      30.304  23.447  20.742  0.00  0.00    -0.270 OA
ATOM     10  H   UNL     1      31.844  24.889  19.506  0.00  0.00    +0.145 HD
ATOM     11  H   UNL     1      31.126  24.674  17.946  0.00  0.00    +0.145 HD
ENDBRANCH   1   8
BRANCH   5  12
ATOM     12  O   UNL     1      28.968  21.478  15.335  0.00  0.00    -0.484 OA
BRANCH  12  13
ATOM     13  C   UNL     1      30.367  21.483  15.008  0.00  0.00    +0.208 C 
BRANCH  13  14
ATOM     14  C   UNL     1      30.962  20.092  14.899  0.00  0.00    +0.011 A 
ATOM     15  C   UNL     1      30.592  19.174  13.913  0.00  0.00    +0.010 A 
ATOM     16  C   UNL     1      31.251  17.949  13.828  0.00  0.00    +0.020 A 
ATOM     17  C   UNL     1      32.264  17.681  14.735  0.00  0.00    +0.111 A 
ATOM     18  N   UNL     1      32.644  18.535  15.706  0.00  0.00    -0.263 NA
ATOM     19  C   UNL     1      31.990  19.715  15.764  0.00  0.00    +0.118 A 
ENDBRANCH  13  14
BRANCH  13  20
ATOM     20  C   UNL     1      30.567  22.168  13.660  0.00  0.00    +0.034 C 
ATOM     21  C   UNL     1      31.938  22.635  13.234  0.00  0.00    +0.008 C 
ATOM     22  C   UNL     1      30.860  23.645  13.520  0.00  0.00    +0.008 C 
ENDBRANCH  13  20
ENDBRANCH  12  13
ENDBRANCH   5  12
TORSDOF 5
ENDMDL
MODEL 6
REMARK VINA RESULT:      -6.3      1.580      2.145
REMARK  Name = ZINC001228612316
REMARK  5 active torsions:
REMARK  status: ('A' for Active; 'I' for Inactive)
REMARK    1  A    between atoms: C_2  and  C_4
REMARK    2  A    between atoms: C_8  and  O_9
REMARK    3  A    between atoms: O_9  and  C_10
REMARK    4  A    between atoms: C_10  and  C_11
REMARK    5  A    between atoms: C_10  and  C_17
REMARK                            x       y       z     vdW  Elec       q    Type
REMARK                         _______ _______ _______ _____ _____    ______ ____
ROOT
ATOM      1  C   UNL     1      29.105  22.734  18.155  0.00  0.00    +0.040 A 
ATOM      2  C   UNL     1      27.926  22.112  17.729  0.00  0.00    +0.013 A 
ATOM      3  C   UNL     1      27.894  21.435  16.509  0.00  0.00    +0.004 A 
ATOM      4  C   UNL     1      29.037  21.374  15.708  0.00  0.00    +0.046 A 
ATOM      5  C   UNL     1      30.217  21.993  16.121  0.00  0.00    +0.122 A 
ATOM      6  C   UNL     1      30.247  22.670  17.347  0.00  0.00    +0.058 A 
ENDROOT
BRANCH   1   8
ATOM      7  N   UNL     1      27.975  24.147  19.796  0.00  0.00    -0.325 N 
ATOM      8  C   UNL     1      29.093  23.428  19.471  0.00  0.00    +0.242 C 
ATOM      9  O   UNL     1      30.028  23.334  20.258  0.00  0.00    -0.270 OA
ATOM     10  H   UNL     1      27.945  24.521  20.736  0.00  0.00    +0.145 HD
ATOM     11  H   UNL     1      27.103  24.057  19.299  0.00  0.00    +0.145 HD
ENDBRANCH   1   8
BRANCH   5  12
ATOM     12  O   UNL     1      31.375  22.065  15.395  0.00  0.00    -0.484 OA
BRANCH  12  13
ATOM     13  C   UNL     1      31.394  21.523  14.064  0.00  0.00    +0.208 C 
BRANCH  13  14
ATOM     14  C   UNL     1      31.605  22.575  12.992  0.00  0.00    +0.011 A 
ATOM     15  C   UNL     1      30.739  23.653  12.794  0.00  0.00    +0.010 A 
ATOM     16  C   UNL     1      31.052  24.624  11.844  0.00  0.00    +0.020 A 
ATOM     17  C   UNL     1      32.227  24.486  11.123  0.00  0.00    +0.111 A 
ATOM     18  N   UNL     1      33.083  23.456  11.276  0.00  0.00    -0.263 NA
ATOM     19  C   UNL     1      32.756  22.531  12.204  0.00  0.00    +0.118 A 
ENDBRANCH  13  14
BRANCH  13  20
ATOM     20  C   UNL     1      32.535  20.519  13.945  0.00  0.00    +0.034 C 
ATOM     21  C   UNL     1      32.291  19.146  13.366  0.00  0.00    +0.008 C 
ATOM     22  C   UNL     1      32.650  19.291  14.820  0.00  0.00    +0.008 C 
ENDBRANCH  13  20
ENDBRANCH  12  13
ENDBRANCH   5  12
TORSDOF 5
ENDMDL
MODEL 7
REMARK VINA RESULT:      -6.2      2.221      6.256
REMARK  Name = ZINC001228612316
REMARK  5 active torsions:
REMARK  status: ('A' for Active; 'I' for Inactive)
REMARK    1  A    between atoms: C_2  and  C_4
REMARK    2  A    between atoms: C_8  and  O_9
REMARK    3  A    between atoms: O_9  and  C_10
REMARK    4  A    between atoms: C_10  and  C_11
REMARK    5  A    between atoms: C_10  and  C_17
REMARK                            x       y       z     vdW  Elec       q    Type
REMARK                         _______ _______ _______ _____ _____    ______ ____
ROOT
ATOM      1  C   UNL     1      32.186  23.294  11.241  0.00  0.00    +0.040 A 
ATOM      2  C   UNL     1      31.934  24.668  11.162  0.00  0.00    +0.013 A 
ATOM      3  C   UNL     1      31.017  25.262  12.031  0.00  0.00    +0.004 A 
ATOM      4  C   UNL     1      30.347  24.488  12.983  0.00  0.00    +0.046 A 
ATOM      5  C   UNL     1      30.587  23.117  13.068  0.00  0.00    +0.122 A 
ATOM      6  C   UNL     1      31.510  22.525  12.196  0.00  0.00    +0.058 A 
ENDROOT
BRANCH   1   8
ATOM      7  N   UNL     1      32.893  21.497   9.744  0.00  0.00    -0.325 N 
ATOM      8  C   UNL     1      33.185  22.712  10.304  0.00  0.00    +0.242 C 
ATOM      9  O   UNL     1      34.215  23.306  10.010  0.00  0.00    -0.270 OA
ATOM     10  H   UNL     1      33.534  21.171   9.032  0.00  0.00    +0.145 HD
ATOM     11  H   UNL     1      31.970  21.092   9.767  0.00  0.00    +0.145 HD
ENDBRANCH   1   8
BRANCH   5  12
ATOM     12  O   UNL     1      29.944  22.246  13.904  0.00  0.00    -0.484 OA
BRANCH  12  13
ATOM     13  C   UNL     1      30.688  21.630  14.968  0.00  0.00    +0.208 C 
BRANCH  13  14
ATOM     14  C   UNL     1      30.361  22.198  16.336  0.00  0.00    +0.011 A 
ATOM     15  C   UNL     1      29.062  22.267  16.848  0.00  0.00    +0.010 A 
ATOM     16  C   UNL     1      28.857  22.721  18.149  0.00  0.00    +0.020 A 
ATOM     17  C   UNL     1      29.960  23.092  18.900  0.00  0.00    +0.111 A 
ATOM     18  N   UNL     1      31.227  23.050  18.440  0.00  0.00    -0.263 NA
ATOM     19  C   UNL     1      31.397  22.604  17.177  0.00  0.00    +0.118 A 
ENDBRANCH  13  14
BRANCH  13  20
ATOM     20  C   UNL     1      30.369  20.139  15.010  0.00  0.00    +0.034 C 
ATOM     21  C   UNL     1      31.447  19.134  15.336  0.00  0.00    +0.008 C 
ATOM     22  C   UNL     1      30.847  19.163  13.957  0.00  0.00    +0.008 C 
ENDBRANCH  13  20
ENDBRANCH  12  13
ENDBRANCH   5  12
TORSDOF 5
ENDMDL
MODEL 8
REMARK VINA RESULT:      -6.2      3.037      4.659
REMARK  Name = ZINC001228612316
REMARK  5 active torsions:
REMARK  status: ('A' for Active; 'I' for Inactive)
REMARK    1  A    between atoms: C_2  and  C_4
REMARK    2  A    between atoms: C_8  and  O_9
REMARK    3  A    between atoms: O_9  and  C_10
REMARK    4  A    between atoms: C_10  and  C_11
REMARK    5  A    between atoms: C_10  and  C_17
REMARK                            x       y       z     vdW  Elec       q    Type
REMARK                         _______ _______ _______ _____ _____    ______ ____
ROOT
ATOM      1  C   UNL     1      28.129  22.010  17.280  0.00  0.00    +0.040 A 
ATOM      2  C   UNL     1      28.500  21.358  16.099  0.00  0.00    +0.013 A 
ATOM      3  C   UNL     1      29.840  21.319  15.713  0.00  0.00    +0.004 A 
ATOM      4  C   UNL     1      30.818  21.929  16.503  0.00  0.00    +0.046 A 
ATOM      5  C   UNL     1      30.460  22.585  17.680  0.00  0.00    +0.122 A 
ATOM      6  C   UNL     1      29.114  22.621  18.066  0.00  0.00    +0.058 A 
ENDROOT
BRANCH   1   8
ATOM      7  N   UNL     1      26.369  22.401  18.929  0.00  0.00    -0.325 N 
ATOM      8  C   UNL     1      26.690  22.010  17.657  0.00  0.00    +0.242 C 
ATOM      9  O   UNL     1      25.813  21.709  16.856  0.00  0.00    -0.270 OA
ATOM     10  H   UNL     1      25.382  22.494  19.130  0.00  0.00    +0.145 HD
ATOM     11  H   UNL     1      27.019  22.878  19.534  0.00  0.00    +0.145 HD
ENDBRANCH   1   8
BRANCH   5  12
ATOM     12  O   UNL     1      31.312  23.279  18.496  0.00  0.00    -0.484 OA
BRANCH  12  13
ATOM     13  C   UNL     1      32.727  23.076  18.354  0.00  0.00    +0.208 C 
BRANCH  13  14
ATOM     14  C   UNL     1      33.464  24.309  17.869  0.00  0.00    +0.011 A 
ATOM     15  C   UNL     1      34.437  24.278  16.866  0.00  0.00    +0.010 A 
ATOM     16  C   UNL     1      35.003  25.469  16.417  0.00  0.00    +0.020 A 
ATOM     17  C   UNL     1      34.576  26.658  16.984  0.00  0.00    +0.111 A 
ATOM     18  N   UNL     1      33.648  26.731  17.960  0.00  0.00    -0.263 NA
ATOM     19  C   UNL     1      33.114  25.562  18.375  0.00  0.00    +0.118 A 
ENDBRANCH  13  14
BRANCH  13  20
ATOM     20  C   UNL     1      33.321  22.696  19.706  0.00  0.00    +0.034 C 
ATOM     21  C   UNL     1      34.745  22.206  19.808  0.00  0.00    +0.008 C 
ATOM     22  C   UNL     1      33.609  21.267  20.110  0.00  0.00    +0.008 C 
ENDBRANCH  13  20
ENDBRANCH  12  13
ENDBRANCH   5  12
TORSDOF 5
ENDMDL
MODEL 9
REMARK VINA RESULT:      -6.2      3.011      6.290
REMARK  Name = ZINC001228612316
REMARK  5 active torsions:
REMARK  status: ('A' for Active; 'I' for Inactive)
REMARK    1  A    between atoms: C_2  and  C_4
REMARK    2  A    between atoms: C_8  and  O_9
REMARK    3  A    between atoms: O_9  and  C_10
REMARK    4  A    between atoms: C_10  and  C_11
REMARK    5  A    between atoms: C_10  and  C_17
REMARK                            x       y       z     vdW  Elec       q    Type
REMARK                         _______ _______ _______ _____ _____    ______ ____
ROOT
ATOM      1  C   UNL     1      32.118  23.658  11.089  0.00  0.00    +0.040 A 
ATOM      2  C   UNL     1      31.270  24.734  11.375  0.00  0.00    +0.013 A 
ATOM      3  C   UNL     1      30.637  24.815  12.616  0.00  0.00    +0.004 A 
ATOM      4  C   UNL     1      30.846  23.825  13.579  0.00  0.00    +0.046 A 
ATOM      5  C   UNL     1      31.685  22.745  13.304  0.00  0.00    +0.122 A 
ATOM      6  C   UNL     1      32.321  22.667  12.058  0.00  0.00    +0.058 A 
ENDROOT
BRANCH   1   8
ATOM      7  N   UNL     1      33.453  24.751   9.360  0.00  0.00    -0.325 N 
ATOM      8  C   UNL     1      32.783  23.626   9.759  0.00  0.00    +0.242 C 
ATOM      9  O   UNL     1      32.770  22.622   9.056  0.00  0.00    -0.270 OA
ATOM     10  H   UNL     1      33.986  24.671   8.503  0.00  0.00    +0.145 HD
ATOM     11  H   UNL     1      33.691  25.499   9.993  0.00  0.00    +0.145 HD
ENDBRANCH   1   8
BRANCH   5  12
ATOM     12  O   UNL     1      31.911  21.680  14.134  0.00  0.00    -0.484 OA
BRANCH  12  13
ATOM     13  C   UNL     1      30.862  20.718  14.328  0.00  0.00    +0.208 C 
BRANCH  13  14
ATOM     14  C   UNL     1      31.299  19.291  14.061  0.00  0.00    +0.011 A 
ATOM     15  C   UNL     1      30.835  18.196  14.794  0.00  0.00    +0.010 A 
ATOM     16  C   UNL     1      31.218  16.908  14.427  0.00  0.00    +0.020 A 
ATOM     17  C   UNL     1      32.054  16.755  13.333  0.00  0.00    +0.111 A 
ATOM     18  N   UNL     1      32.532  17.785  12.605  0.00  0.00    -0.263 NA
ATOM     19  C   UNL     1      32.143  19.022  12.982  0.00  0.00    +0.118 A 
ENDBRANCH  13  14
BRANCH  13  20
ATOM     20  C   UNL     1      30.382  20.781  15.774  0.00  0.00    +0.034 C 
ATOM     21  C   UNL     1      29.111  21.516  16.129  0.00  0.00    +0.008 C 
ATOM     22  C   UNL     1      30.436  22.042  16.609  0.00  0.00    +0.008 C 
ENDBRANCH  13  20
ENDBRANCH  12  13
ENDBRANCH   5  12
TORSDOF 5
ENDMDL
