MODEL 1
REMARK VINA RESULT:      -6.1      0.000      0.000
REMARK  Name = ZINC001228612316
REMARK  5 active torsions:
REMARK  status: ('A' for Active; 'I' for Inactive)
REMARK    1  A    between atoms: C_2  and  C_4
REMARK    2  A    between atoms: C_8  and  O_9
REMARK    3  A    between atoms: O_9  and  C_10
REMARK    4  A    between atoms: C_10  and  C_11
REMARK    5  A    between atoms: C_10  and  C_17
REMARK                            x       y       z     vdW  Elec       q    Type
REMARK                         _______ _______ _______ _____ _____    ______ ____
ROOT
ATOM      1  C   UNL     1      29.414  21.837  16.606  0.00  0.00    +0.040 A 
ATOM      2  C   UNL     1      30.297  20.755  16.658  0.00  0.00    +0.013 A 
ATOM      3  C   UNL     1      31.365  20.694  15.759  0.00  0.00    +0.004 A 
ATOM      4  C   UNL     1      31.554  21.715  14.822  0.00  0.00    +0.046 A 
ATOM      5  C   UNL     1      30.678  22.802  14.773  0.00  0.00    +0.122 A 
ATOM      6  C   UNL     1      29.596  22.838  15.647  0.00  0.00    +0.058 A 
ENDROOT
BRANCH   1   8
ATOM      7  N   UNL     1      28.237  23.109  18.319  0.00  0.00    -0.325 N 
ATOM      8  C   UNL     1      28.266  21.993  17.534  0.00  0.00    +0.242 C 
ATOM      9  O   UNL     1      27.342  21.188  17.555  0.00  0.00    -0.270 OA
ATOM     10  H   UNL     1      27.377  23.262  18.831  0.00  0.00    +0.145 HD
ATOM     11  H   UNL     1      28.819  23.913  18.133  0.00  0.00    +0.145 HD
ENDBRANCH   1   8
BRANCH   5  12
ATOM     12  O   UNL     1      30.953  23.753  13.829  0.00  0.00    -0.484 OA
BRANCH  12  13
ATOM     13  C   UNL     1      32.331  24.121  13.633  0.00  0.00    +0.208 C 
BRANCH  13  14
ATOM     14  C   UNL     1      32.597  24.252  12.148  0.00  0.00    +0.011 A 
ATOM     15  C   UNL     1      32.003  25.289  11.416  0.00  0.00    +0.010 A 
ATOM     16  C   UNL     1      32.241  25.407  10.052  0.00  0.00    +0.020 A 
ATOM     17  C   UNL     1      33.074  24.478   9.456  0.00  0.00    +0.111 A 
ATOM     18  N   UNL     1      33.664  23.461  10.120  0.00  0.00    -0.263 NA
ATOM     19  C   UNL     1      33.411  23.369  11.448  0.00  0.00    +0.118 A 
ENDBRANCH  13  14
BRANCH  13  20
ATOM     20  C   UNL     1      32.611  25.431  14.336  0.00  0.00    +0.034 C 
ATOM     21  C   UNL     1      34.005  26.018  14.417  0.00  0.00    +0.008 C 
ATOM     22  C   UNL     1      33.366  25.459  15.650  0.00  0.00    +0.008 C 
ENDBRANCH  13  20
ENDBRANCH  12  13
ENDBRANCH   5  12
TORSDOF 5
ENDMDL
MODEL 2
REMARK VINA RESULT:      -6.0      2.923      6.054
REMARK  Name = ZINC001228612316
REMARK  5 active torsions:
REMARK  status: ('A' for Active; 'I' for Inactive)
REMARK    1  A    between atoms: C_2  and  C_4
REMARK    2  A    between atoms: C_8  and  O_9
REMARK    3  A    between atoms: O_9  and  C_10
REMARK    4  A    between atoms: C_10  and  C_11
REMARK    5  A    between atoms: C_10  and  C_17
REMARK                            x       y       z     vdW  Elec       q    Type
REMARK                         _______ _______ _______ _____ _____    ______ ____
ROOT
ATOM      1  C   UNL     1      31.840  25.684  13.613  0.00  0.00    +0.040 A 
ATOM      2  C   UNL     1      32.974  26.450  13.889  0.00  0.00    +0.013 A 
ATOM      3  C   UNL     1      33.870  26.025  14.873  0.00  0.00    +0.004 A 
ATOM      4  C   UNL     1      33.636  24.835  15.568  0.00  0.00    +0.046 A 
ATOM      5  C   UNL     1      32.507  24.061  15.288  0.00  0.00    +0.122 A 
ATOM      6  C   UNL     1      31.601  24.509  14.333  0.00  0.00    +0.058 A 
ENDROOT
BRANCH   1   8
ATOM      7  N   UNL     1      29.604  26.428  12.989  0.00  0.00    -0.325 N 
ATOM      8  C   UNL     1      30.847  26.049  12.571  0.00  0.00    +0.242 C 
ATOM      9  O   UNL     1      31.143  26.075  11.382  0.00  0.00    -0.270 OA
ATOM     10  H   UNL     1      28.999  26.809  12.273  0.00  0.00    +0.145 HD
ATOM     11  H   UNL     1      29.414  26.683  13.947  0.00  0.00    +0.145 HD
ENDBRANCH   1   8
BRANCH   5  12
ATOM     12  O   UNL     1      32.373  22.910  16.015  0.00  0.00    -0.484 OA
BRANCH  12  13
ATOM     13  C   UNL     1      31.206  22.100  15.775  0.00  0.00    +0.208 C 
BRANCH  13  14
ATOM     14  C   UNL     1      31.636  20.657  15.609  0.00  0.00    +0.011 A 
ATOM     15  C   UNL     1      31.383  19.982  14.408  0.00  0.00    +0.010 A 
ATOM     16  C   UNL     1      31.770  18.657  14.256  0.00  0.00    +0.020 A 
ATOM     17  C   UNL     1      32.407  18.041  15.319  0.00  0.00    +0.111 A 
ATOM     18  N   UNL     1      32.666  18.650  16.496  0.00  0.00    -0.263 NA
ATOM     19  C   UNL     1      32.273  19.941  16.616  0.00  0.00    +0.118 A 
ENDBRANCH  13  14
BRANCH  13  20
ATOM     20  C   UNL     1      30.249  22.234  16.939  0.00  0.00    +0.034 C 
ATOM     21  C   UNL     1      28.905  21.537  16.959  0.00  0.00    +0.008 C 
ATOM     22  C   UNL     1      28.963  23.024  16.797  0.00  0.00    +0.008 C 
ENDBRANCH  13  20
ENDBRANCH  12  13
ENDBRANCH   5  12
TORSDOF 5
ENDMDL
MODEL 3
REMARK VINA RESULT:      -5.9      2.596      6.458
REMARK  Name = ZINC001228612316
REMARK  5 active torsions:
REMARK  status: ('A' for Active; 'I' for Inactive)
REMARK    1  A    between atoms: C_2  and  C_4
REMARK    2  A    between atoms: C_8  and  O_9
REMARK    3  A    between atoms: O_9  and  C_10
REMARK    4  A    between atoms: C_10  and  C_11
REMARK    5  A    between atoms: C_10  and  C_17
REMARK                            x       y       z     vdW  Elec       q    Type
REMARK                         _______ _______ _______ _____ _____    ______ ____
ROOT
ATOM      1  C   UNL     1      32.295  24.907  11.338  0.00  0.00    +0.040 A 
ATOM      2  C   UNL     1      31.310  25.854  11.628  0.00  0.00    +0.013 A 
ATOM      3  C   UNL     1      30.666  25.821  12.867  0.00  0.00    +0.004 A 
ATOM      4  C   UNL     1      31.013  24.852  13.813  0.00  0.00    +0.046 A 
ATOM      5  C   UNL     1      32.004  23.908  13.530  0.00  0.00    +0.122 A 
ATOM      6  C   UNL     1      32.615  23.925  12.281  0.00  0.00    +0.058 A 
ENDROOT
BRANCH   1   8
ATOM      7  N   UNL     1      33.916  25.903   9.815  0.00  0.00    -0.325 N 
ATOM      8  C   UNL     1      33.044  24.881  10.057  0.00  0.00    +0.242 C 
ATOM      9  O   UNL     1      32.939  23.948   9.270  0.00  0.00    -0.270 OA
ATOM     10  H   UNL     1      34.516  25.785   9.008  0.00  0.00    +0.145 HD
ATOM     11  H   UNL     1      34.231  26.525  10.545  0.00  0.00    +0.145 HD
ENDBRANCH   1   8
BRANCH   5  12
ATOM     12  O   UNL     1      32.278  23.009  14.524  0.00  0.00    -0.484 OA
BRANCH  12  13
ATOM     13  C   UNL     1      31.300  21.987  14.790  0.00  0.00    +0.208 C 
BRANCH  13  14
ATOM     14  C   UNL     1      31.965  20.631  14.683  0.00  0.00    +0.011 A 
ATOM     15  C   UNL     1      31.316  19.580  14.021  0.00  0.00    +0.010 A 
ATOM     16  C   UNL     1      31.922  18.333  13.927  0.00  0.00    +0.020 A 
ATOM     17  C   UNL     1      33.170  18.173  14.502  0.00  0.00    +0.111 A 
ATOM     18  N   UNL     1      33.830  19.155  15.153  0.00  0.00    -0.263 NA
ATOM     19  C   UNL     1      33.212  20.359  15.232  0.00  0.00    +0.118 A 
ENDBRANCH  13  14
BRANCH  13  20
ATOM     20  C   UNL     1      30.726  22.184  16.176  0.00  0.00    +0.034 C 
ATOM     21  C   UNL     1      29.688  21.247  16.757  0.00  0.00    +0.008 C 
ATOM     22  C   UNL     1      29.290  22.635  16.363  0.00  0.00    +0.008 C 
ENDBRANCH  13  20
ENDBRANCH  12  13
ENDBRANCH   5  12
TORSDOF 5
ENDMDL
MODEL 4
REMARK VINA RESULT:      -5.8      2.039      6.795
REMARK  Name = ZINC001228612316
REMARK  5 active torsions:
REMARK  status: ('A' for Active; 'I' for Inactive)
REMARK    1  A    between atoms: C_2  and  C_4
REMARK    2  A    between atoms: C_8  and  O_9
REMARK    3  A    between atoms: O_9  and  C_10
REMARK    4  A    between atoms: C_10  and  C_11
REMARK    5  A    between atoms: C_10  and  C_17
REMARK                            x       y       z     vdW  Elec       q    Type
REMARK                         _______ _______ _______ _____ _____    ______ ____
ROOT
ATOM      1  C   UNL     1      32.670  25.104  11.605  0.00  0.00    +0.040 A 
ATOM      2  C   UNL     1      32.168  26.407  11.653  0.00  0.00    +0.013 A 
ATOM      3  C   UNL     1      31.058  26.688  12.454  0.00  0.00    +0.004 A 
ATOM      4  C   UNL     1      30.462  25.673  13.209  0.00  0.00    +0.046 A 
ATOM      5  C   UNL     1      30.967  24.371  13.170  0.00  0.00    +0.122 A 
ATOM      6  C   UNL     1      32.050  24.091  12.342  0.00  0.00    +0.058 A 
ENDROOT
BRANCH   1   8
ATOM      7  N   UNL     1      34.274  25.597   9.838  0.00  0.00    -0.325 N 
ATOM      8  C   UNL     1      33.856  24.721  10.798  0.00  0.00    +0.242 C 
ATOM      9  O   UNL     1      34.481  23.692  11.022  0.00  0.00    -0.270 OA
ATOM     10  H   UNL     1      35.165  25.380   9.406  0.00  0.00    +0.145 HD
ATOM     11  H   UNL     1      33.965  26.557   9.814  0.00  0.00    +0.145 HD
ENDBRANCH   1   8
BRANCH   5  12
ATOM     12  O   UNL     1      30.322  23.452  13.951  0.00  0.00    -0.484 OA
BRANCH  12  13
ATOM     13  C   UNL     1      31.111  22.708  14.898  0.00  0.00    +0.208 C 
BRANCH  13  14
ATOM     14  C   UNL     1      31.116  23.447  16.220  0.00  0.00    +0.011 A 
ATOM     15  C   UNL     1      32.327  23.873  16.783  0.00  0.00    +0.010 A 
ATOM     16  C   UNL     1      32.334  24.545  17.999  0.00  0.00    +0.020 A 
ATOM     17  C   UNL     1      31.119  24.775  18.621  0.00  0.00    +0.111 A 
ATOM     18  N   UNL     1      29.930  24.378  18.119  0.00  0.00    -0.263 NA
ATOM     19  C   UNL     1      29.955  23.722  16.933  0.00  0.00    +0.118 A 
ENDBRANCH  13  14
BRANCH  13  20
ATOM     20  C   UNL     1      30.524  21.324  15.071  0.00  0.00    +0.034 C 
ATOM     21  C   UNL     1      31.025  20.364  16.129  0.00  0.00    +0.008 C 
ATOM     22  C   UNL     1      31.319  20.092  14.686  0.00  0.00    +0.008 C 
ENDBRANCH  13  20
ENDBRANCH  12  13
ENDBRANCH   5  12
TORSDOF 5
ENDMDL
MODEL 5
REMARK VINA RESULT:      -5.7      2.012      2.512
REMARK  Name = ZINC001228612316
REMARK  5 active torsions:
REMARK  status: ('A' for Active; 'I' for Inactive)
REMARK    1  A    between atoms: C_2  and  C_4
REMARK    2  A    between atoms: C_8  and  O_9
REMARK    3  A    between atoms: O_9  and  C_10
REMARK    4  A    between atoms: C_10  and  C_11
REMARK    5  A    between atoms: C_10  and  C_17
REMARK                            x       y       z     vdW  Elec       q    Type
REMARK                         _______ _______ _______ _____ _____    ______ ____
ROOT
ATOM      1  C   UNL     1      31.100  20.448  15.720  0.00  0.00    +0.040 A 
ATOM      2  C   UNL     1      30.100  20.673  16.669  0.00  0.00    +0.013 A 
ATOM      3  C   UNL     1      29.424  21.895  16.682  0.00  0.00    +0.004 A 
ATOM      4  C   UNL     1      29.741  22.882  15.743  0.00  0.00    +0.046 A 
ATOM      5  C   UNL     1      30.735  22.658  14.787  0.00  0.00    +0.122 A 
ATOM      6  C   UNL     1      31.428  21.452  14.804  0.00  0.00    +0.058 A 
ENDROOT
BRANCH   1   8
ATOM      7  N   UNL     1      32.944  19.147  14.801  0.00  0.00    -0.325 N 
ATOM      8  C   UNL     1      31.853  19.173  15.621  0.00  0.00    +0.242 C 
ATOM      9  O   UNL     1      31.554  18.195  16.295  0.00  0.00    -0.270 OA
ATOM     10  H   UNL     1      33.520  18.317  14.864  0.00  0.00    +0.145 HD
ATOM     11  H   UNL     1      33.378  19.991  14.455  0.00  0.00    +0.145 HD
ENDBRANCH   1   8
BRANCH   5  12
ATOM     12  O   UNL     1      30.964  23.680  13.907  0.00  0.00    -0.484 OA
BRANCH  12  13
ATOM     13  C   UNL     1      32.328  24.090  13.700  0.00  0.00    +0.208 C 
BRANCH  13  14
ATOM     14  C   UNL     1      32.572  24.250  12.213  0.00  0.00    +0.011 A 
ATOM     15  C   UNL     1      31.963  25.297  11.509  0.00  0.00    +0.010 A 
ATOM     16  C   UNL     1      32.180  25.441  10.145  0.00  0.00    +0.020 A 
ATOM     17  C   UNL     1      33.009  24.526   9.519  0.00  0.00    +0.111 A 
ATOM     18  N   UNL     1      33.612  23.500  10.156  0.00  0.00    -0.263 NA
ATOM     19  C   UNL     1      33.379  23.383  11.486  0.00  0.00    +0.118 A 
ENDBRANCH  13  14
BRANCH  13  20
ATOM     20  C   UNL     1      32.579  25.398  14.418  0.00  0.00    +0.034 C 
ATOM     21  C   UNL     1      33.946  26.051  14.446  0.00  0.00    +0.008 C 
ATOM     22  C   UNL     1      33.395  25.436  15.695  0.00  0.00    +0.008 C 
ENDBRANCH  13  20
ENDBRANCH  12  13
ENDBRANCH   5  12
TORSDOF 5
ENDMDL
MODEL 6
REMARK VINA RESULT:      -5.7      1.660      2.758
REMARK  Name = ZINC001228612316
REMARK  5 active torsions:
REMARK  status: ('A' for Active; 'I' for Inactive)
REMARK    1  A    between atoms: C_2  and  C_4
REMARK    2  A    between atoms: C_8  and  O_9
REMARK    3  A    between atoms: O_9  and  C_10
REMARK    4  A    between atoms: C_10  and  C_11
REMARK    5  A    between atoms: C_10  and  C_17
REMARK                            x       y       z     vdW  Elec       q    Type
REMARK                         _______ _______ _______ _____ _____    ______ ____
ROOT
ATOM      1  C   UNL     1      29.873  21.982  16.444  0.00  0.00    +0.040 A 
ATOM      2  C   UNL     1      30.266  20.646  16.555  0.00  0.00    +0.013 A 
ATOM      3  C   UNL     1      31.278  20.154  15.726  0.00  0.00    +0.004 A 
ATOM      4  C   UNL     1      31.898  20.998  14.800  0.00  0.00    +0.046 A 
ATOM      5  C   UNL     1      31.513  22.337  14.692  0.00  0.00    +0.122 A 
ATOM      6  C   UNL     1      30.480  22.810  15.495  0.00  0.00    +0.058 A 
ENDROOT
BRANCH   1   8
ATOM      7  N   UNL     1      29.171  23.680  18.044  0.00  0.00    -0.325 N 
ATOM      8  C   UNL     1      28.822  22.592  17.297  0.00  0.00    +0.242 C 
ATOM      9  O   UNL     1      27.668  22.183  17.287  0.00  0.00    -0.270 OA
ATOM     10  H   UNL     1      28.405  24.162  18.500  0.00  0.00    +0.145 HD
ATOM     11  H   UNL     1      30.015  24.205  17.869  0.00  0.00    +0.145 HD
ENDBRANCH   1   8
BRANCH   5  12
ATOM     12  O   UNL     1      32.186  23.082  13.763  0.00  0.00    -0.484 OA
BRANCH  12  13
ATOM     13  C   UNL     1      32.075  24.515  13.848  0.00  0.00    +0.208 C 
BRANCH  13  14
ATOM     14  C   UNL     1      33.464  25.110  13.949  0.00  0.00    +0.011 A 
ATOM     15  C   UNL     1      33.728  26.126  14.877  0.00  0.00    +0.010 A 
ATOM     16  C   UNL     1      35.000  26.678  14.966  0.00  0.00    +0.020 A 
ATOM     17  C   UNL     1      35.979  26.192  14.118  0.00  0.00    +0.111 A 
ATOM     18  N   UNL     1      35.769  25.219  13.205  0.00  0.00    -0.263 NA
ATOM     19  C   UNL     1      34.518  24.703  13.139  0.00  0.00    +0.118 A 
ENDBRANCH  13  14
BRANCH  13  20
ATOM     20  C   UNL     1      31.364  25.042  12.621  0.00  0.00    +0.034 C 
ATOM     21  C   UNL     1      31.655  26.414  12.049  0.00  0.00    +0.008 C 
ATOM     22  C   UNL     1      30.348  26.162  12.735  0.00  0.00    +0.008 C 
ENDBRANCH  13  20
ENDBRANCH  12  13
ENDBRANCH   5  12
TORSDOF 5
ENDMDL
MODEL 7
REMARK VINA RESULT:      -5.7      3.191      4.607
REMARK  Name = ZINC001228612316
REMARK  5 active torsions:
REMARK  status: ('A' for Active; 'I' for Inactive)
REMARK    1  A    between atoms: C_2  and  C_4
REMARK    2  A    between atoms: C_8  and  O_9
REMARK    3  A    between atoms: O_9  and  C_10
REMARK    4  A    between atoms: C_10  and  C_11
REMARK    5  A    between atoms: C_10  and  C_17
REMARK                            x       y       z     vdW  Elec       q    Type
REMARK                         _______ _______ _______ _____ _____    ______ ____
ROOT
ATOM      1  C   UNL     1      33.028  18.375  16.068  0.00  0.00    +0.040 A 
ATOM      2  C   UNL     1      33.338  17.653  14.912  0.00  0.00    +0.013 A 
ATOM      3  C   UNL     1      32.714  17.982  13.706  0.00  0.00    +0.004 A 
ATOM      4  C   UNL     1      31.793  19.034  13.657  0.00  0.00    +0.046 A 
ATOM      5  C   UNL     1      31.488  19.763  14.808  0.00  0.00    +0.122 A 
ATOM      6  C   UNL     1      32.086  19.407  16.012  0.00  0.00    +0.058 A 
ENDROOT
BRANCH   1   8
ATOM      7  N   UNL     1      34.284  19.149  18.008  0.00  0.00    -0.325 N 
ATOM      8  C   UNL     1      33.658  18.107  17.385  0.00  0.00    +0.242 C 
ATOM      9  O   UNL     1      33.569  17.014  17.931  0.00  0.00    -0.270 OA
ATOM     10  H   UNL     1      34.574  18.977  18.963  0.00  0.00    +0.145 HD
ATOM     11  H   UNL     1      34.138  20.108  17.729  0.00  0.00    +0.145 HD
ENDBRANCH   1   8
BRANCH   5  12
ATOM     12  O   UNL     1      30.584  20.778  14.654  0.00  0.00    -0.484 OA
BRANCH  12  13
ATOM     13  C   UNL     1      30.803  21.988  15.404  0.00  0.00    +0.208 C 
BRANCH  13  14
ATOM     14  C   UNL     1      31.469  23.009  14.506  0.00  0.00    +0.011 A 
ATOM     15  C   UNL     1      30.691  23.917  13.775  0.00  0.00    +0.010 A 
ATOM     16  C   UNL     1      31.301  24.850  12.946  0.00  0.00    +0.020 A 
ATOM     17  C   UNL     1      32.683  24.849  12.872  0.00  0.00    +0.111 A 
ATOM     18  N   UNL     1      33.471  23.990  13.554  0.00  0.00    -0.263 NA
ATOM     19  C   UNL     1      32.848  23.089  14.352  0.00  0.00    +0.118 A 
ENDBRANCH  13  14
BRANCH  13  20
ATOM     20  C   UNL     1      29.479  22.516  15.910  0.00  0.00    +0.034 C 
ATOM     21  C   UNL     1      29.348  23.205  17.253  0.00  0.00    +0.008 C 
ATOM     22  C   UNL     1      28.764  21.839  17.063  0.00  0.00    +0.008 C 
ENDBRANCH  13  20
ENDBRANCH  12  13
ENDBRANCH   5  12
TORSDOF 5
ENDMDL
MODEL 8
REMARK VINA RESULT:      -5.6      2.760      6.340
REMARK  Name = ZINC001228612316
REMARK  5 active torsions:
REMARK  status: ('A' for Active; 'I' for Inactive)
REMARK    1  A    between atoms: C_2  and  C_4
REMARK    2  A    between atoms: C_8  and  O_9
REMARK    3  A    between atoms: O_9  and  C_10
REMARK    4  A    between atoms: C_10  and  C_11
REMARK    5  A    between atoms: C_10  and  C_17
REMARK                            x       y       z     vdW  Elec       q    Type
REMARK                         _______ _______ _______ _____ _____    ______ ____
ROOT
ATOM      1  C   UNL     1      32.210  26.163  13.293  0.00  0.00    +0.040 A 
ATOM      2  C   UNL     1      33.332  26.986  13.169  0.00  0.00    +0.013 A 
ATOM      3  C   UNL     1      34.366  26.887  14.103  0.00  0.00    +0.004 A 
ATOM      4  C   UNL     1      34.281  25.961  15.148  0.00  0.00    +0.046 A 
ATOM      5  C   UNL     1      33.164  25.130  15.270  0.00  0.00    +0.122 A 
ATOM      6  C   UNL     1      32.122  25.260  14.357  0.00  0.00    +0.058 A 
ENDROOT
BRANCH   1   8
ATOM      7  N   UNL     1      29.829  26.421  12.841  0.00  0.00    -0.325 N 
ATOM      8  C   UNL     1      31.075  26.187  12.335  0.00  0.00    +0.242 C 
ATOM      9  O   UNL     1      31.250  26.069  11.128  0.00  0.00    -0.270 OA
ATOM     10  H   UNL     1      29.101  26.577  12.154  0.00  0.00    +0.145 HD
ATOM     11  H   UNL     1      29.685  26.794  13.767  0.00  0.00    +0.145 HD
ENDBRANCH   1   8
BRANCH   5  12
ATOM     12  O   UNL     1      33.181  24.252  16.318  0.00  0.00    -0.484 OA
BRANCH  12  13
ATOM     13  C   UNL     1      32.171  24.404  17.334  0.00  0.00    +0.208 C 
BRANCH  13  14
ATOM     14  C   UNL     1      31.099  23.355  17.121  0.00  0.00    +0.011 A 
ATOM     15  C   UNL     1      31.457  22.016  16.912  0.00  0.00    +0.010 A 
ATOM     16  C   UNL     1      30.475  21.055  16.710  0.00  0.00    +0.020 A 
ATOM     17  C   UNL     1      29.153  21.462  16.725  0.00  0.00    +0.111 A 
ATOM     18  N   UNL     1      28.763  22.741  16.918  0.00  0.00    -0.263 NA
ATOM     19  C   UNL     1      29.743  23.658  17.108  0.00  0.00    +0.118 A 
ENDBRANCH  13  14
BRANCH  13  20
ATOM     20  C   UNL     1      32.799  24.245  18.701  0.00  0.00    +0.034 C 
ATOM     21  C   UNL     1      31.989  24.356  19.976  0.00  0.00    +0.008 C 
ATOM     22  C   UNL     1      32.962  25.439  19.622  0.00  0.00    +0.008 C 
ENDBRANCH  13  20
ENDBRANCH  12  13
ENDBRANCH   5  12
TORSDOF 5
ENDMDL
MODEL 9
REMARK VINA RESULT:      -5.6      5.012      7.744
REMARK  Name = ZINC001228612316
REMARK  5 active torsions:
REMARK  status: ('A' for Active; 'I' for Inactive)
REMARK    1  A    between atoms: C_2  and  C_4
REMARK    2  A    between atoms: C_8  and  O_9
REMARK    3  A    between atoms: O_9  and  C_10
REMARK    4  A    between atoms: C_10  and  C_11
REMARK    5  A    between atoms: C_10  and  C_17
REMARK                            x       y       z     vdW  Elec       q    Type
REMARK                         _______ _______ _______ _____ _____    ______ ____
ROOT
ATOM      1  C   UNL     1      35.300  23.137   7.876  0.00  0.00    +0.040 A 
ATOM      2  C   UNL     1      35.075  21.859   8.394  0.00  0.00    +0.013 A 
ATOM      3  C   UNL     1      34.076  21.669   9.352  0.00  0.00    +0.004 A 
ATOM      4  C   UNL     1      33.300  22.752   9.779  0.00  0.00    +0.046 A 
ATOM      5  C   UNL     1      33.516  24.029   9.257  0.00  0.00    +0.122 A 
ATOM      6  C   UNL     1      34.537  24.216   8.331  0.00  0.00    +0.058 A 
ENDROOT
BRANCH   1   8
ATOM      7  N   UNL     1      36.352  22.620   5.739  0.00  0.00    -0.325 N 
ATOM      8  C   UNL     1      36.326  23.424   6.842  0.00  0.00    +0.242 C 
ATOM      9  O   UNL     1      37.081  24.384   6.935  0.00  0.00    -0.270 OA
ATOM     10  H   UNL     1      36.959  22.926   4.989  0.00  0.00    +0.145 HD
ATOM     11  H   UNL     1      35.584  22.010   5.500  0.00  0.00    +0.145 HD
ENDBRANCH   1   8
BRANCH   5  12
ATOM     12  O   UNL     1      32.699  25.018   9.731  0.00  0.00    -0.484 OA
BRANCH  12  13
ATOM     13  C   UNL     1      32.736  25.297  11.143  0.00  0.00    +0.208 C 
BRANCH  13  14
ATOM     14  C   UNL     1      33.922  26.193  11.436  0.00  0.00    +0.011 A 
ATOM     15  C   UNL     1      34.889  25.796  12.369  0.00  0.00    +0.010 A 
ATOM     16  C   UNL     1      35.974  26.620  12.643  0.00  0.00    +0.020 A 
ATOM     17  C   UNL     1      36.061  27.825  11.970  0.00  0.00    +0.111 A 
ATOM     18  N   UNL     1      35.151  28.250  11.067  0.00  0.00    -0.263 NA
ATOM     19  C   UNL     1      34.102  27.427  10.823  0.00  0.00    +0.118 A 
ENDBRANCH  13  14
BRANCH  13  20
ATOM     20  C   UNL     1      31.449  25.974  11.561  0.00  0.00    +0.034 C 
ATOM     21  C   UNL     1      31.326  26.731  12.866  0.00  0.00    +0.008 C 
ATOM     22  C   UNL     1      30.618  25.421  12.702  0.00  0.00    +0.008 C 
ENDBRANCH  13  20
ENDBRANCH  12  13
ENDBRANCH   5  12
TORSDOF 5
ENDMDL
