MODEL 1
REMARK VINA RESULT:      -6.2      0.000      0.000
REMARK  Name = ZINC000826139982
REMARK  4 active torsions:
REMARK  status: ('A' for Active; 'I' for Inactive)
REMARK    1  A    between atoms: C_2  and  C_4
REMARK    2  A    between atoms: C_8  and  C_10
REMARK    3  A    between atoms: C_14  and  S_15
REMARK    4  A    between atoms: S_15  and  C_16
REMARK                            x       y       z     vdW  Elec       q    Type
REMARK                         _______ _______ _______ _____ _____    ______ ____
ROOT
ATOM      1  C   UNL     1      32.175  24.914  13.905  0.00  0.00    +0.093 C 
ATOM      2  C   UNL     1      32.229  23.453  13.457  0.00  0.00    +0.033 C 
ATOM      3  C   UNL     1      30.861  22.940  13.880  0.00  0.00    +0.109 C 
ATOM      4  N   UNL     1      30.704  23.536  15.200  0.00  0.00    -0.297 N 
ATOM      5  C   UNL     1      29.983  23.122  16.313  0.00  0.00    +0.247 C 
ATOM      6  O   UNL     1      29.879  23.852  17.303  0.00  0.00    -0.270 OA
ATOM      7  C   UNL     1      31.353  24.849  15.201  0.00  0.00    +0.120 C 
ENDROOT
BRANCH   5   8
ATOM      8  C   UNL     1      29.286  21.801  16.358  0.00  0.00    +0.038 A 
ATOM      9  C   UNL     1      27.904  21.653  16.246  0.00  0.00    +0.013 A 
ATOM     10  C   UNL     1      27.302  20.401  16.387  0.00  0.00    +0.002 A 
ATOM     11  C   UNL     1      28.091  19.260  16.500  0.00  0.00    +0.015 A 
ATOM     12  C   UNL     1      29.483  19.365  16.433  0.00  0.00    +0.017 A 
ATOM     13  C   UNL     1      30.075  20.636  16.406  0.00  0.00    +0.028 A 
BRANCH  12  14
ATOM     14  S   UNL     1      30.506  17.908  16.400  0.00  0.00    -0.016 S 
BRANCH  14  15
ATOM     15  C   UNL     1      30.097  17.226  14.778  0.00  0.00    +0.448 C 
ATOM     16  F   UNL     1      31.121  16.570  14.181  0.00  0.00    -0.160 F 
ATOM     17  F   UNL     1      29.066  16.352  14.867  0.00  0.00    -0.160 F 
ATOM     18  F   UNL     1      29.713  18.211  13.929  0.00  0.00    -0.160 F 
ENDBRANCH  14  15
ENDBRANCH  12  14
ENDBRANCH   5   8
BRANCH   1  20
ATOM     19  N   UNL     1      30.379  26.404  13.164  0.00  0.00    -0.329 N 
ATOM     20  C   UNL     1      31.538  25.776  12.826  0.00  0.00    +0.215 C 
ATOM     21  O   UNL     1      32.029  25.960  11.716  0.00  0.00    -0.276 OA
ATOM     22  H   UNL     1      30.001  27.049  12.482  0.00  0.00    +0.145 HD
ATOM     23  H   UNL     1      30.010  26.424  14.103  0.00  0.00    +0.145 HD
ENDBRANCH   1  20
TORSDOF 4
ENDMDL
MODEL 2
REMARK VINA RESULT:      -6.0      5.030      6.623
REMARK  Name = ZINC000826139982
REMARK  4 active torsions:
REMARK  status: ('A' for Active; 'I' for Inactive)
REMARK    1  A    between atoms: C_2  and  C_4
REMARK    2  A    between atoms: C_8  and  C_10
REMARK    3  A    between atoms: C_14  and  S_15
REMARK    4  A    between atoms: S_15  and  C_16
REMARK                            x       y       z     vdW  Elec       q    Type
REMARK                         _______ _______ _______ _____ _____    ______ ____
ROOT
ATOM      1  C   UNL     1      34.356  17.694  15.995  0.00  0.00    +0.093 C 
ATOM      2  C   UNL     1      33.559  17.769  17.298  0.00  0.00    +0.033 C 
ATOM      3  C   UNL     1      32.136  17.940  16.789  0.00  0.00    +0.109 C 
ATOM      4  N   UNL     1      32.307  18.903  15.710  0.00  0.00    -0.297 N 
ATOM      5  C   UNL     1      31.439  19.845  15.174  0.00  0.00    +0.247 C 
ATOM      6  O   UNL     1      31.745  20.481  14.161  0.00  0.00    -0.270 OA
ATOM      7  C   UNL     1      33.604  18.662  15.071  0.00  0.00    +0.120 C 
ENDROOT
BRANCH   5   8
ATOM      8  C   UNL     1      30.098  20.116  15.775  0.00  0.00    +0.038 A 
ATOM      9  C   UNL     1      28.998  19.273  15.620  0.00  0.00    +0.013 A 
ATOM     10  C   UNL     1      27.746  19.625  16.129  0.00  0.00    +0.002 A 
ATOM     11  C   UNL     1      27.613  20.760  16.923  0.00  0.00    +0.015 A 
ATOM     12  C   UNL     1      28.739  21.524  17.242  0.00  0.00    +0.017 A 
ATOM     13  C   UNL     1      29.967  21.225  16.633  0.00  0.00    +0.028 A 
BRANCH  12  14
ATOM     14  S   UNL     1      28.626  22.877  18.395  0.00  0.00    -0.016 S 
BRANCH  14  15
ATOM     15  C   UNL     1      28.530  21.994  19.967  0.00  0.00    +0.448 C 
ATOM     16  F   UNL     1      28.792  20.668  19.872  0.00  0.00    -0.160 F 
ATOM     17  F   UNL     1      29.405  22.507  20.865  0.00  0.00    -0.160 F 
ATOM     18  F   UNL     1      27.291  22.111  20.506  0.00  0.00    -0.160 F 
ENDBRANCH  14  15
ENDBRANCH  12  14
ENDBRANCH   5   8
BRANCH   1  20
ATOM     19  N   UNL     1      35.123  15.377  16.204  0.00  0.00    -0.329 N 
ATOM     20  C   UNL     1      34.390  16.264  15.477  0.00  0.00    +0.215 C 
ATOM     21  O   UNL     1      33.771  15.877  14.490  0.00  0.00    -0.276 OA
ATOM     22  H   UNL     1      35.075  14.409  15.915  0.00  0.00    +0.145 HD
ATOM     23  H   UNL     1      35.521  15.592  17.107  0.00  0.00    +0.145 HD
ENDBRANCH   1  20
TORSDOF 4
ENDMDL
MODEL 3
REMARK VINA RESULT:      -6.0      3.647      5.286
REMARK  Name = ZINC000826139982
REMARK  4 active torsions:
REMARK  status: ('A' for Active; 'I' for Inactive)
REMARK    1  A    between atoms: C_2  and  C_4
REMARK    2  A    between atoms: C_8  and  C_10
REMARK    3  A    between atoms: C_14  and  S_15
REMARK    4  A    between atoms: S_15  and  C_16
REMARK                            x       y       z     vdW  Elec       q    Type
REMARK                         _______ _______ _______ _____ _____    ______ ____
ROOT
ATOM      1  C   UNL     1      27.543  21.928  19.785  0.00  0.00    +0.093 C 
ATOM      2  C   UNL     1      29.053  22.164  19.776  0.00  0.00    +0.033 C 
ATOM      3  C   UNL     1      29.363  22.177  18.286  0.00  0.00    +0.109 C 
ATOM      4  N   UNL     1      28.561  21.065  17.796  0.00  0.00    -0.297 N 
ATOM      5  C   UNL     1      28.729  20.225  16.702  0.00  0.00    +0.247 C 
ATOM      6  O   UNL     1      27.850  19.417  16.386  0.00  0.00    -0.270 OA
ATOM      7  C   UNL     1      27.330  20.990  18.588  0.00  0.00    +0.120 C 
ENDROOT
BRANCH   5   8
ATOM      8  C   UNL     1      29.955  20.272  15.849  0.00  0.00    +0.038 A 
ATOM      9  C   UNL     1      30.261  21.331  14.995  0.00  0.00    +0.013 A 
ATOM     10  C   UNL     1      31.375  21.277  14.155  0.00  0.00    +0.002 A 
ATOM     11  C   UNL     1      32.276  20.223  14.264  0.00  0.00    +0.015 A 
ATOM     12  C   UNL     1      32.087  19.240  15.240  0.00  0.00    +0.017 A 
ATOM     13  C   UNL     1      30.907  19.245  15.998  0.00  0.00    +0.028 A 
BRANCH  12  14
ATOM     14  S   UNL     1      33.314  17.979  15.515  0.00  0.00    -0.016 S 
BRANCH  14  15
ATOM     15  C   UNL     1      32.986  16.861  14.137  0.00  0.00    +0.448 C 
ATOM     16  F   UNL     1      33.632  15.673  14.223  0.00  0.00    -0.160 F 
ATOM     17  F   UNL     1      31.663  16.585  14.041  0.00  0.00    -0.160 F 
ATOM     18  F   UNL     1      33.361  17.427  12.963  0.00  0.00    -0.160 F 
ENDBRANCH  14  15
ENDBRANCH  12  14
ENDBRANCH   5   8
BRANCH   1  20
ATOM     19  N   UNL     1      27.527  24.374  19.894  0.00  0.00    -0.329 N 
ATOM     20  C   UNL     1      26.798  23.248  19.661  0.00  0.00    +0.215 C 
ATOM     21  O   UNL     1      25.621  23.344  19.329  0.00  0.00    -0.276 OA
ATOM     22  H   UNL     1      27.061  25.255  19.724  0.00  0.00    +0.145 HD
ATOM     23  H   UNL     1      28.530  24.373  20.012  0.00  0.00    +0.145 HD
ENDBRANCH   1  20
TORSDOF 4
ENDMDL
MODEL 4
REMARK VINA RESULT:      -5.9      4.983      6.712
REMARK  Name = ZINC000826139982
REMARK  4 active torsions:
REMARK  status: ('A' for Active; 'I' for Inactive)
REMARK    1  A    between atoms: C_2  and  C_4
REMARK    2  A    between atoms: C_8  and  C_10
REMARK    3  A    between atoms: C_14  and  S_15
REMARK    4  A    between atoms: S_15  and  C_16
REMARK                            x       y       z     vdW  Elec       q    Type
REMARK                         _______ _______ _______ _____ _____    ______ ____
ROOT
ATOM      1  C   UNL     1      34.438  17.628  15.969  0.00  0.00    +0.093 C 
ATOM      2  C   UNL     1      33.692  17.685  17.302  0.00  0.00    +0.033 C 
ATOM      3  C   UNL     1      32.245  17.821  16.851  0.00  0.00    +0.109 C 
ATOM      4  N   UNL     1      32.350  18.786  15.766  0.00  0.00    -0.297 N 
ATOM      5  C   UNL     1      31.438  19.707  15.265  0.00  0.00    +0.247 C 
ATOM      6  O   UNL     1      31.687  20.349  14.241  0.00  0.00    -0.270 OA
ATOM      7  C   UNL     1      33.625  18.577  15.075  0.00  0.00    +0.120 C 
ENDROOT
BRANCH   5   8
ATOM      8  C   UNL     1      30.116  19.945  15.919  0.00  0.00    +0.038 A 
ATOM      9  C   UNL     1      28.945  19.278  15.559  0.00  0.00    +0.013 A 
ATOM     10  C   UNL     1      27.721  19.610  16.145  0.00  0.00    +0.002 A 
ATOM     11  C   UNL     1      27.679  20.515  17.201  0.00  0.00    +0.015 A 
ATOM     12  C   UNL     1      28.865  21.061  17.700  0.00  0.00    +0.017 A 
ATOM     13  C   UNL     1      30.072  20.809  17.031  0.00  0.00    +0.028 A 
BRANCH  12  14
ATOM     14  S   UNL     1      28.855  22.084  19.158  0.00  0.00    -0.016 S 
BRANCH  14  15
ATOM     15  C   UNL     1      29.521  23.632  18.507  0.00  0.00    +0.448 C 
ATOM     16  F   UNL     1      29.275  23.827  17.189  0.00  0.00    -0.160 F 
ATOM     17  F   UNL     1      29.006  24.696  19.167  0.00  0.00    -0.160 F 
ATOM     18  F   UNL     1      30.867  23.677  18.666  0.00  0.00    -0.160 F 
ENDBRANCH  14  15
ENDBRANCH  12  14
ENDBRANCH   5   8
BRANCH   1  20
ATOM     19  N   UNL     1      35.238  15.322  16.168  0.00  0.00    -0.329 N 
ATOM     20  C   UNL     1      34.485  16.199  15.449  0.00  0.00    +0.215 C 
ATOM     21  O   UNL     1      33.862  15.804  14.469  0.00  0.00    -0.276 OA
ATOM     22  H   UNL     1      35.200  14.354  15.879  0.00  0.00    +0.145 HD
ATOM     23  H   UNL     1      35.643  15.542  17.067  0.00  0.00    +0.145 HD
ENDBRANCH   1  20
TORSDOF 4
ENDMDL
MODEL 5
REMARK VINA RESULT:      -5.9      2.721      3.857
REMARK  Name = ZINC000826139982
REMARK  4 active torsions:
REMARK  status: ('A' for Active; 'I' for Inactive)
REMARK    1  A    between atoms: C_2  and  C_4
REMARK    2  A    between atoms: C_8  and  C_10
REMARK    3  A    between atoms: C_14  and  S_15
REMARK    4  A    between atoms: S_15  and  C_16
REMARK                            x       y       z     vdW  Elec       q    Type
REMARK                         _______ _______ _______ _____ _____    ______ ____
ROOT
ATOM      1  C   UNL     1      32.513  25.503  10.995  0.00  0.00    +0.093 C 
ATOM      2  C   UNL     1      31.325  26.087  11.758  0.00  0.00    +0.033 C 
ATOM      3  C   UNL     1      31.622  25.658  13.186  0.00  0.00    +0.109 C 
ATOM      4  N   UNL     1      32.068  24.283  13.008  0.00  0.00    -0.297 N 
ATOM      5  C   UNL     1      32.017  23.184  13.857  0.00  0.00    +0.247 C 
ATOM      6  O   UNL     1      32.577  22.127  13.554  0.00  0.00    -0.270 OA
ATOM      7  C   UNL     1      32.788  24.186  11.736  0.00  0.00    +0.120 C 
ENDROOT
BRANCH   5   8
ATOM      8  C   UNL     1      31.312  23.235  15.174  0.00  0.00    +0.038 A 
ATOM      9  C   UNL     1      31.796  23.930  16.282  0.00  0.00    +0.013 A 
ATOM     10  C   UNL     1      31.139  23.864  17.512  0.00  0.00    +0.002 A 
ATOM     11  C   UNL     1      29.911  23.217  17.611  0.00  0.00    +0.015 A 
ATOM     12  C   UNL     1      29.318  22.667  16.471  0.00  0.00    +0.017 A 
ATOM     13  C   UNL     1      30.039  22.640  15.268  0.00  0.00    +0.028 A 
BRANCH  12  14
ATOM     14  S   UNL     1      27.673  21.989  16.535  0.00  0.00    -0.016 S 
BRANCH  14  15
ATOM     15  C   UNL     1      28.022  20.247  16.858  0.00  0.00    +0.448 C 
ATOM     16  F   UNL     1      29.337  19.970  17.030  0.00  0.00    -0.160 F 
ATOM     17  F   UNL     1      27.380  19.822  17.971  0.00  0.00    -0.160 F 
ATOM     18  F   UNL     1      27.591  19.475  15.829  0.00  0.00    -0.160 F 
ENDBRANCH  14  15
ENDBRANCH  12  14
ENDBRANCH   5   8
BRANCH   1  20
ATOM     19  N   UNL     1      33.645  27.492  10.124  0.00  0.00    -0.329 N 
ATOM     20  C   UNL     1      33.688  26.469  11.021  0.00  0.00    +0.215 C 
ATOM     21  O   UNL     1      34.619  26.397  11.817  0.00  0.00    -0.276 OA
ATOM     22  H   UNL     1      34.376  28.187  10.199  0.00  0.00    +0.145 HD
ATOM     23  H   UNL     1      32.837  27.701   9.555  0.00  0.00    +0.145 HD
ENDBRANCH   1  20
TORSDOF 4
ENDMDL
MODEL 6
REMARK VINA RESULT:      -5.9      5.073      6.684
REMARK  Name = ZINC000826139982
REMARK  4 active torsions:
REMARK  status: ('A' for Active; 'I' for Inactive)
REMARK    1  A    between atoms: C_2  and  C_4
REMARK    2  A    between atoms: C_8  and  C_10
REMARK    3  A    between atoms: C_14  and  S_15
REMARK    4  A    between atoms: S_15  and  C_16
REMARK                            x       y       z     vdW  Elec       q    Type
REMARK                         _______ _______ _______ _____ _____    ______ ____
ROOT
ATOM      1  C   UNL     1      34.931  18.233  17.495  0.00  0.00    +0.093 C 
ATOM      2  C   UNL     1      34.816  19.592  16.805  0.00  0.00    +0.033 C 
ATOM      3  C   UNL     1      33.412  20.029  17.196  0.00  0.00    +0.109 C 
ATOM      4  N   UNL     1      32.650  18.799  17.030  0.00  0.00    -0.297 N 
ATOM      5  C   UNL     1      31.310  18.582  16.733  0.00  0.00    +0.247 C 
ATOM      6  O   UNL     1      30.832  17.445  16.767  0.00  0.00    -0.270 OA
ATOM      7  C   UNL     1      33.508  17.665  17.384  0.00  0.00    +0.120 C 
ENDROOT
BRANCH   5   8
ATOM      8  C   UNL     1      30.386  19.704  16.384  0.00  0.00    +0.038 A 
ATOM      9  C   UNL     1      29.720  19.805  15.163  0.00  0.00    +0.013 A 
ATOM     10  C   UNL     1      28.941  20.924  14.861  0.00  0.00    +0.002 A 
ATOM     11  C   UNL     1      28.705  21.890  15.834  0.00  0.00    +0.015 A 
ATOM     12  C   UNL     1      29.215  21.720  17.124  0.00  0.00    +0.017 A 
ATOM     13  C   UNL     1      30.088  20.652  17.382  0.00  0.00    +0.028 A 
BRANCH  12  14
ATOM     14  S   UNL     1      28.784  22.850  18.432  0.00  0.00    -0.016 S 
BRANCH  14  15
ATOM     15  C   UNL     1      27.882  21.761  19.555  0.00  0.00    +0.448 C 
ATOM     16  F   UNL     1      28.654  21.195  20.514  0.00  0.00    -0.160 F 
ATOM     17  F   UNL     1      26.893  22.433  20.190  0.00  0.00    -0.160 F 
ATOM     18  F   UNL     1      27.299  20.746  18.871  0.00  0.00    -0.160 F 
ENDBRANCH  14  15
ENDBRANCH  12  14
ENDBRANCH   5   8
BRANCH   1  20
ATOM     19  N   UNL     1      36.519  19.165  19.108  0.00  0.00    -0.329 N 
ATOM     20  C   UNL     1      35.404  18.405  18.930  0.00  0.00    +0.215 C 
ATOM     21  O   UNL     1      34.821  17.943  19.906  0.00  0.00    -0.276 OA
ATOM     22  H   UNL     1      36.785  19.357  20.065  0.00  0.00    +0.145 HD
ATOM     23  H   UNL     1      36.951  19.703  18.370  0.00  0.00    +0.145 HD
ENDBRANCH   1  20
TORSDOF 4
ENDMDL
MODEL 7
REMARK VINA RESULT:      -5.7      5.054      6.239
REMARK  Name = ZINC000826139982
REMARK  4 active torsions:
REMARK  status: ('A' for Active; 'I' for Inactive)
REMARK    1  A    between atoms: C_2  and  C_4
REMARK    2  A    between atoms: C_8  and  C_10
REMARK    3  A    between atoms: C_14  and  S_15
REMARK    4  A    between atoms: S_15  and  C_16
REMARK                            x       y       z     vdW  Elec       q    Type
REMARK                         _______ _______ _______ _____ _____    ______ ____
ROOT
ATOM      1  C   UNL     1      33.926  17.795  14.153  0.00  0.00    +0.093 C 
ATOM      2  C   UNL     1      33.253  19.018  13.530  0.00  0.00    +0.033 C 
ATOM      3  C   UNL     1      32.480  19.590  14.709  0.00  0.00    +0.109 C 
ATOM      4  N   UNL     1      31.921  18.393  15.321  0.00  0.00    -0.297 N 
ATOM      5  C   UNL     1      30.772  18.200  16.077  0.00  0.00    +0.247 C 
ATOM      6  O   UNL     1      30.547  17.114  16.617  0.00  0.00    -0.270 OA
ATOM      7  C   UNL     1      32.876  17.294  15.156  0.00  0.00    +0.120 C 
ENDROOT
BRANCH   5   8
ATOM      8  C   UNL     1      29.775  19.293  16.293  0.00  0.00    +0.038 A 
ATOM      9  C   UNL     1      28.450  19.226  15.862  0.00  0.00    +0.013 A 
ATOM     10  C   UNL     1      27.591  20.316  16.013  0.00  0.00    +0.002 A 
ATOM     11  C   UNL     1      28.007  21.436  16.726  0.00  0.00    +0.015 A 
ATOM     12  C   UNL     1      29.270  21.453  17.324  0.00  0.00    +0.017 A 
ATOM     13  C   UNL     1      30.164  20.402  17.069  0.00  0.00    +0.028 A 
BRANCH  12  14
ATOM     14  S   UNL     1      29.760  22.797  18.384  0.00  0.00    -0.016 S 
BRANCH  14  15
ATOM     15  C   UNL     1      28.850  22.404  19.894  0.00  0.00    +0.448 C 
ATOM     16  F   UNL     1      29.551  22.621  21.033  0.00  0.00    -0.160 F 
ATOM     17  F   UNL     1      27.716  23.139  19.981  0.00  0.00    -0.160 F 
ATOM     18  F   UNL     1      28.481  21.099  19.903  0.00  0.00    -0.160 F 
ENDBRANCH  14  15
ENDBRANCH  12  14
ENDBRANCH   5   8
BRANCH   1  20
ATOM     19  N   UNL     1      35.401  17.834  16.108  0.00  0.00    -0.329 N 
ATOM     20  C   UNL     1      35.244  18.188  14.803  0.00  0.00    +0.215 C 
ATOM     21  O   UNL     1      36.159  18.753  14.211  0.00  0.00    -0.276 OA
ATOM     22  H   UNL     1      36.309  18.013  16.516  0.00  0.00    +0.145 HD
ATOM     23  H   UNL     1      34.759  17.232  16.603  0.00  0.00    +0.145 HD
ENDBRANCH   1  20
TORSDOF 4
ENDMDL
MODEL 8
REMARK VINA RESULT:      -5.7      4.678      6.422
REMARK  Name = ZINC000826139982
REMARK  4 active torsions:
REMARK  status: ('A' for Active; 'I' for Inactive)
REMARK    1  A    between atoms: C_2  and  C_4
REMARK    2  A    between atoms: C_8  and  C_10
REMARK    3  A    between atoms: C_14  and  S_15
REMARK    4  A    between atoms: S_15  and  C_16
REMARK                            x       y       z     vdW  Elec       q    Type
REMARK                         _______ _______ _______ _____ _____    ______ ____
ROOT
ATOM      1  C   UNL     1      34.438  16.457  13.110  0.00  0.00    +0.093 C 
ATOM      2  C   UNL     1      34.249  16.446  14.627  0.00  0.00    +0.033 C 
ATOM      3  C   UNL     1      33.050  17.365  14.804  0.00  0.00    +0.109 C 
ATOM      4  N   UNL     1      33.353  18.449  13.880  0.00  0.00    -0.297 N 
ATOM      5  C   UNL     1      32.989  19.790  13.887  0.00  0.00    +0.247 C 
ATOM      6  O   UNL     1      33.249  20.519  12.926  0.00  0.00    -0.270 OA
ATOM      7  C   UNL     1      34.059  17.894  12.723  0.00  0.00    +0.120 C 
ENDROOT
BRANCH   5   8
ATOM      8  C   UNL     1      32.251  20.402  15.034  0.00  0.00    +0.038 A 
ATOM      9  C   UNL     1      32.880  20.968  16.143  0.00  0.00    +0.013 A 
ATOM     10  C   UNL     1      32.135  21.443  17.225  0.00  0.00    +0.002 A 
ATOM     11  C   UNL     1      30.747  21.487  17.147  0.00  0.00    +0.015 A 
ATOM     12  C   UNL     1      30.101  21.094  15.972  0.00  0.00    +0.017 A 
ATOM     13  C   UNL     1      30.850  20.513  14.938  0.00  0.00    +0.028 A 
BRANCH  12  14
ATOM     14  S   UNL     1      28.343  21.304  15.783  0.00  0.00    -0.016 S 
BRANCH  14  15
ATOM     15  C   UNL     1      27.737  19.677  16.281  0.00  0.00    +0.448 C 
ATOM     16  F   UNL     1      28.317  18.646  15.620  0.00  0.00    -0.160 F 
ATOM     17  F   UNL     1      27.946  19.466  17.603  0.00  0.00    -0.160 F 
ATOM     18  F   UNL     1      26.402  19.578  16.067  0.00  0.00    -0.160 F 
ENDBRANCH  14  15
ENDBRANCH  12  14
ENDBRANCH   5   8
BRANCH   1  20
ATOM     19  N   UNL     1      32.463  15.859  11.792  0.00  0.00    -0.329 N 
ATOM     20  C   UNL     1      33.558  15.401  12.459  0.00  0.00    +0.215 C 
ATOM     21  O   UNL     1      33.806  14.199  12.469  0.00  0.00    -0.276 OA
ATOM     22  H   UNL     1      31.926  15.169  11.283  0.00  0.00    +0.145 HD
ATOM     23  H   UNL     1      32.290  16.837  11.610  0.00  0.00    +0.145 HD
ENDBRANCH   1  20
TORSDOF 4
ENDMDL
MODEL 9
REMARK VINA RESULT:      -5.7      4.566      7.137
REMARK  Name = ZINC000826139982
REMARK  4 active torsions:
REMARK  status: ('A' for Active; 'I' for Inactive)
REMARK    1  A    between atoms: C_2  and  C_4
REMARK    2  A    between atoms: C_8  and  C_10
REMARK    3  A    between atoms: C_14  and  S_15
REMARK    4  A    between atoms: S_15  and  C_16
REMARK                            x       y       z     vdW  Elec       q    Type
REMARK                         _______ _______ _______ _____ _____    ______ ____
ROOT
ATOM      1  C   UNL     1      30.127  21.276  16.102  0.00  0.00    +0.093 C 
ATOM      2  C   UNL     1      29.367  21.581  14.811  0.00  0.00    +0.033 C 
ATOM      3  C   UNL     1      30.431  22.273  13.972  0.00  0.00    +0.109 C 
ATOM      4  N   UNL     1      31.067  23.151  14.944  0.00  0.00    -0.297 N 
ATOM      5  C   UNL     1      31.727  24.364  14.791  0.00  0.00    +0.247 C 
ATOM      6  O   UNL     1      32.314  24.887  15.742  0.00  0.00    -0.270 OA
ATOM      7  C   UNL     1      31.061  22.487  16.250  0.00  0.00    +0.120 C 
ENDROOT
BRANCH   5   8
ATOM      8  C   UNL     1      31.781  25.075  13.477  0.00  0.00    +0.038 A 
ATOM      9  C   UNL     1      30.847  26.030  13.077  0.00  0.00    +0.013 A 
ATOM     10  C   UNL     1      30.898  26.593  11.800  0.00  0.00    +0.002 A 
ATOM     11  C   UNL     1      31.970  26.311  10.959  0.00  0.00    +0.015 A 
ATOM     12  C   UNL     1      33.013  25.496  11.407  0.00  0.00    +0.017 A 
ATOM     13  C   UNL     1      32.894  24.847  12.645  0.00  0.00    +0.028 A 
BRANCH  12  14
ATOM     14  S   UNL     1      34.475  25.261  10.418  0.00  0.00    -0.016 S 
BRANCH  14  15
ATOM     15  C   UNL     1      33.818  24.296   9.040  0.00  0.00    +0.448 C 
ATOM     16  F   UNL     1      32.973  23.305   9.414  0.00  0.00    -0.160 F 
ATOM     17  F   UNL     1      33.141  25.088   8.175  0.00  0.00    -0.160 F 
ATOM     18  F   UNL     1      34.824  23.712   8.343  0.00  0.00    -0.160 F 
ENDBRANCH  14  15
ENDBRANCH  12  14
ENDBRANCH   5   8
BRANCH   1  20
ATOM     19  N   UNL     1      30.178  18.930  15.403  0.00  0.00    -0.329 N 
ATOM     20  C   UNL     1      30.866  19.952  15.982  0.00  0.00    +0.215 C 
ATOM     21  O   UNL     1      32.030  19.782  16.331  0.00  0.00    -0.276 OA
ATOM     22  H   UNL     1      30.695  18.076  15.240  0.00  0.00    +0.145 HD
ATOM     23  H   UNL     1      29.282  19.046  14.952  0.00  0.00    +0.145 HD
ENDBRANCH   1  20
TORSDOF 4
ENDMDL
