MODEL 1
REMARK VINA RESULT:      -6.6      0.000      0.000
REMARK  Name = ZINC000543478179
REMARK  8 active torsions:
REMARK  status: ('A' for Active; 'I' for Inactive)
REMARK    1  A    between atoms: C_1  and  C_2
REMARK    2  A    between atoms: C_2  and  N_3
REMARK    3  A    between atoms: N_9  and  C_10
REMARK    4  A    between atoms: C_10  and  C_11
REMARK    5  A    between atoms: C_10  and  C_12
REMARK    6  A    between atoms: C_15  and  O_16
REMARK    7  A    between atoms: O_16  and  C_17
REMARK    8  A    between atoms: C_17  and  C_18
REMARK                            x       y       z     vdW  Elec       q    Type
REMARK                         _______ _______ _______ _____ _____    ______ ____
ROOT
ATOM      1  C   UNL     1      32.072  23.643  12.678  0.00  0.00    +0.102 C 
ATOM      2  C   UNL     1      31.021  24.752  12.772  0.00  0.00    +0.033 C 
ENDROOT
BRANCH   1   9
ATOM      3  N   UNL     1      34.249  20.572  16.604  0.00  0.00    -0.299 N 
ATOM      4  C   UNL     1      33.536  19.513  15.892  0.00  0.00    +0.127 C 
ATOM      5  C   UNL     1      32.134  19.957  15.467  0.00  0.00    +0.129 C 
ATOM      6  N   UNL     1      32.210  21.163  14.638  0.00  0.00    -0.275 N 
ATOM      7  C   UNL     1      31.470  21.232  13.492  0.00  0.00    +0.303 C 
ATOM      8  O   UNL     1      30.755  20.293  13.128  0.00  0.00    -0.253 OA
ATOM      9  N   UNL     1      31.478  22.309  12.676  0.00  0.00    -0.293 N 
ATOM     10  C   UNL     1      33.086  22.202  15.159  0.00  0.00    +0.205 C 
ATOM     11  C   UNL     1      33.981  21.904  16.361  0.00  0.00    +0.233 C 
ATOM     12  O   UNL     1      34.523  22.828  16.973  0.00  0.00    -0.274 OA
ATOM     13  H   UNL     1      30.873  22.116  11.887  0.00  0.00    +0.151 HD
BRANCH   3  15
ATOM     14  C   UNL     1      34.870  19.019  18.390  0.00  0.00    +0.024 C 
ATOM     15  C   UNL     1      35.280  20.224  17.564  0.00  0.00    +0.104 C 
ENDBRANCH   3  15
ENDBRANCH   1   9
BRANCH   1  16
ATOM     16  C   UNL     1      32.975  23.812  11.470  0.00  0.00    -0.024 A 
ATOM     17  C   UNL     1      34.369  23.834  11.592  0.00  0.00    +0.009 A 
ATOM     18  C   UNL     1      35.183  24.011  10.472  0.00  0.00    +0.049 A 
ATOM     19  C   UNL     1      34.616  24.212   9.207  0.00  0.00    +0.156 A 
ATOM     20  C   UNL     1      33.230  24.152   9.080  0.00  0.00    +0.165 A 
ATOM     21  F   UNL     1      32.651  24.298   7.878  0.00  0.00    -0.202 F 
ATOM     22  C   UNL     1      32.412  23.968  10.192  0.00  0.00    +0.047 A 
BRANCH  19  23
ATOM     23  O   UNL     1      35.333  24.472   8.072  0.00  0.00    -0.489 OA
BRANCH  23  24
ATOM     24  C   UNL     1      36.060  23.360   7.550  0.00  0.00    +0.232 C 
BRANCH  24  25
ATOM     25  C   UNL     1      35.179  22.581   6.626  0.00  0.00    +0.027 C 
ATOM     26  C   UNL     1      34.663  21.233   7.062  0.00  0.00    +0.007 C 
ATOM     27  C   UNL     1      35.690  21.325   5.966  0.00  0.00    +0.007 C 
ENDBRANCH  24  25
ENDBRANCH  23  24
ENDBRANCH  19  23
ENDBRANCH   1  16
TORSDOF 6
ENDMDL
MODEL 2
REMARK VINA RESULT:      -6.1      3.244      8.479
REMARK  Name = ZINC000543478179
REMARK  8 active torsions:
REMARK  status: ('A' for Active; 'I' for Inactive)
REMARK    1  A    between atoms: C_1  and  C_2
REMARK    2  A    between atoms: C_2  and  N_3
REMARK    3  A    between atoms: N_9  and  C_10
REMARK    4  A    between atoms: C_10  and  C_11
REMARK    5  A    between atoms: C_10  and  C_12
REMARK    6  A    between atoms: C_15  and  O_16
REMARK    7  A    between atoms: O_16  and  C_17
REMARK    8  A    between atoms: C_17  and  C_18
REMARK                            x       y       z     vdW  Elec       q    Type
REMARK                         _______ _______ _______ _____ _____    ______ ____
ROOT
ATOM      1  C   UNL     1      33.687  23.748   9.183  0.00  0.00    +0.102 C 
ATOM      2  C   UNL     1      32.589  24.399   8.338  0.00  0.00    +0.033 C 
ENDROOT
BRANCH   1   9
ATOM      3  N   UNL     1      37.397  21.686   5.781  0.00  0.00    -0.299 N 
ATOM      4  C   UNL     1      38.268  22.628   6.482  0.00  0.00    +0.127 C 
ATOM      5  C   UNL     1      37.583  23.979   6.704  0.00  0.00    +0.129 C 
ATOM      6  N   UNL     1      36.330  23.800   7.444  0.00  0.00    -0.275 N 
ATOM      7  C   UNL     1      36.046  24.635   8.487  0.00  0.00    +0.303 C 
ATOM      8  O   UNL     1      36.832  25.524   8.833  0.00  0.00    -0.253 OA
ATOM      9  N   UNL     1      34.912  24.542   9.215  0.00  0.00    -0.293 N 
ATOM     10  C   UNL     1      35.486  22.721   6.954  0.00  0.00    +0.205 C 
ATOM     11  C   UNL     1      36.023  21.763   5.891  0.00  0.00    +0.233 C 
ATOM     12  O   UNL     1      35.250  21.022   5.278  0.00  0.00    -0.274 OA
ATOM     13  H   UNL     1      34.940  25.249   9.940  0.00  0.00    +0.151 HD
BRANCH   3  15
ATOM     14  C   UNL     1      38.995  21.187   3.996  0.00  0.00    +0.024 C 
ATOM     15  C   UNL     1      37.981  20.628   4.977  0.00  0.00    +0.104 C 
ENDBRANCH   3  15
ENDBRANCH   1   9
BRANCH   1  16
ATOM     16  C   UNL     1      33.221  23.453  10.597  0.00  0.00    -0.024 A 
ATOM     17  C   UNL     1      33.958  22.630  11.457  0.00  0.00    +0.009 A 
ATOM     18  C   UNL     1      33.503  22.354  12.748  0.00  0.00    +0.049 A 
ATOM     19  C   UNL     1      32.276  22.865  13.193  0.00  0.00    +0.156 A 
ATOM     20  C   UNL     1      31.563  23.714  12.351  0.00  0.00    +0.165 A 
ATOM     21  F   UNL     1      30.404  24.257  12.756  0.00  0.00    -0.202 F 
ATOM     22  C   UNL     1      32.015  24.001  11.064  0.00  0.00    +0.047 A 
BRANCH  19  23
ATOM     23  O   UNL     1      31.718  22.581  14.408  0.00  0.00    -0.489 OA
BRANCH  23  24
ATOM     24  C   UNL     1      30.990  21.354  14.464  0.00  0.00    +0.232 C 
BRANCH  24  25
ATOM     25  C   UNL     1      31.558  20.489  15.544  0.00  0.00    +0.027 C 
ATOM     26  C   UNL     1      32.954  20.760  16.046  0.00  0.00    +0.007 C 
ATOM     27  C   UNL     1      32.675  19.523  15.237  0.00  0.00    +0.007 C 
ENDBRANCH  24  25
ENDBRANCH  23  24
ENDBRANCH  19  23
ENDBRANCH   1  16
TORSDOF 6
ENDMDL
MODEL 3
REMARK VINA RESULT:      -6.1      2.785      8.207
REMARK  Name = ZINC000543478179
REMARK  8 active torsions:
REMARK  status: ('A' for Active; 'I' for Inactive)
REMARK    1  A    between atoms: C_1  and  C_2
REMARK    2  A    between atoms: C_2  and  N_3
REMARK    3  A    between atoms: N_9  and  C_10
REMARK    4  A    between atoms: C_10  and  C_11
REMARK    5  A    between atoms: C_10  and  C_12
REMARK    6  A    between atoms: C_15  and  O_16
REMARK    7  A    between atoms: O_16  and  C_17
REMARK    8  A    between atoms: C_17  and  C_18
REMARK                            x       y       z     vdW  Elec       q    Type
REMARK                         _______ _______ _______ _____ _____    ______ ____
ROOT
ATOM      1  C   UNL     1      32.573  23.250  12.028  0.00  0.00    +0.102 C 
ATOM      2  C   UNL     1      31.273  24.057  11.988  0.00  0.00    +0.033 C 
ENDROOT
BRANCH   1   9
ATOM      3  N   UNL     1      35.357  21.723   7.611  0.00  0.00    -0.299 N 
ATOM      4  C   UNL     1      36.360  22.621   8.181  0.00  0.00    +0.127 C 
ATOM      5  C   UNL     1      35.731  23.910   8.717  0.00  0.00    +0.129 C 
ATOM      6  N   UNL     1      34.703  23.600   9.715  0.00  0.00    -0.275 N 
ATOM      7  C   UNL     1      34.674  24.306  10.884  0.00  0.00    +0.303 C 
ATOM      8  O   UNL     1      35.507  25.185  11.127  0.00  0.00    -0.253 OA
ATOM      9  N   UNL     1      33.756  24.087  11.851  0.00  0.00    -0.293 N 
ATOM     10  C   UNL     1      33.780  22.545   9.325  0.00  0.00    +0.205 C 
ATOM     11  C   UNL     1      34.052  21.730   8.061  0.00  0.00    +0.233 C 
ATOM     12  O   UNL     1      33.162  21.026   7.575  0.00  0.00    -0.274 OA
ATOM     13  H   UNL     1      33.952  24.713  12.623  0.00  0.00    +0.151 HD
BRANCH   3  15
ATOM     14  C   UNL     1      36.276  21.509   5.354  0.00  0.00    +0.024 C 
ATOM     15  C   UNL     1      35.740  20.783   6.574  0.00  0.00    +0.104 C 
ENDBRANCH   3  15
ENDBRANCH   1   9
BRANCH   1  16
ATOM     16  C   UNL     1      32.700  22.434  13.302  0.00  0.00    -0.024 A 
ATOM     17  C   UNL     1      33.261  22.971  14.466  0.00  0.00    +0.009 A 
ATOM     18  C   UNL     1      33.388  22.199  15.622  0.00  0.00    +0.049 A 
ATOM     19  C   UNL     1      32.992  20.854  15.625  0.00  0.00    +0.156 A 
ATOM     20  C   UNL     1      32.398  20.332  14.479  0.00  0.00    +0.165 A 
ATOM     21  F   UNL     1      31.968  19.060  14.455  0.00  0.00    -0.202 F 
ATOM     22  C   UNL     1      32.261  21.099  13.324  0.00  0.00    +0.047 A 
BRANCH  19  23
ATOM     23  O   UNL     1      33.154  20.005  16.683  0.00  0.00    -0.489 OA
BRANCH  23  24
ATOM     24  C   UNL     1      34.386  19.284  16.695  0.00  0.00    +0.232 C 
BRANCH  24  25
ATOM     25  C   UNL     1      34.629  18.739  18.066  0.00  0.00    +0.027 C 
ATOM     26  C   UNL     1      35.690  19.370  18.932  0.00  0.00    +0.007 C 
ATOM     27  C   UNL     1      35.902  17.990  18.373  0.00  0.00    +0.007 C 
ENDBRANCH  24  25
ENDBRANCH  23  24
ENDBRANCH  19  23
ENDBRANCH   1  16
TORSDOF 6
ENDMDL
MODEL 4
REMARK VINA RESULT:      -5.9      3.059      4.415
REMARK  Name = ZINC000543478179
REMARK  8 active torsions:
REMARK  status: ('A' for Active; 'I' for Inactive)
REMARK    1  A    between atoms: C_1  and  C_2
REMARK    2  A    between atoms: C_2  and  N_3
REMARK    3  A    between atoms: N_9  and  C_10
REMARK    4  A    between atoms: C_10  and  C_11
REMARK    5  A    between atoms: C_10  and  C_12
REMARK    6  A    between atoms: C_15  and  O_16
REMARK    7  A    between atoms: O_16  and  C_17
REMARK    8  A    between atoms: C_17  and  C_18
REMARK                            x       y       z     vdW  Elec       q    Type
REMARK                         _______ _______ _______ _____ _____    ______ ____
ROOT
ATOM      1  C   UNL     1      32.403  22.222  15.655  0.00  0.00    +0.102 C 
ATOM      2  C   UNL     1      31.165  21.390  15.999  0.00  0.00    +0.033 C 
ENDROOT
BRANCH   1   9
ATOM      3  N   UNL     1      35.891  25.602  18.103  0.00  0.00    -0.299 N 
ATOM      4  C   UNL     1      36.819  24.500  17.855  0.00  0.00    +0.127 C 
ATOM      5  C   UNL     1      36.181  23.141  18.156  0.00  0.00    +0.129 C 
ATOM      6  N   UNL     1      34.960  22.964  17.363  0.00  0.00    -0.275 N 
ATOM      7  C   UNL     1      34.749  21.777  16.721  0.00  0.00    +0.303 C 
ATOM      8  O   UNL     1      35.573  20.859  16.776  0.00  0.00    -0.253 OA
ATOM      9  N   UNL     1      33.648  21.531  15.977  0.00  0.00    -0.293 N 
ATOM     10  C   UNL     1      34.066  24.112  17.365  0.00  0.00    +0.205 C 
ATOM     11  C   UNL     1      34.527  25.430  17.986  0.00  0.00    +0.233 C 
ATOM     12  O   UNL     1      33.706  26.318  18.234  0.00  0.00    -0.274 OA
ATOM     13  H   UNL     1      33.729  20.600  15.587  0.00  0.00    +0.151 HD
BRANCH   3  15
ATOM     14  C   UNL     1      36.809  26.973  19.911  0.00  0.00    +0.024 C 
ATOM     15  C   UNL     1      36.409  26.913  18.448  0.00  0.00    +0.104 C 
ENDBRANCH   3  15
ENDBRANCH   1   9
BRANCH   1  16
ATOM     16  C   UNL     1      32.411  22.659  14.202  0.00  0.00    -0.024 A 
ATOM     17  C   UNL     1      33.268  22.072  13.263  0.00  0.00    +0.009 A 
ATOM     18  C   UNL     1      33.276  22.501  11.935  0.00  0.00    +0.049 A 
ATOM     19  C   UNL     1      32.453  23.559  11.525  0.00  0.00    +0.156 A 
ATOM     20  C   UNL     1      31.574  24.117  12.450  0.00  0.00    +0.165 A 
ATOM     21  F   UNL     1      30.741  25.105  12.086  0.00  0.00    -0.202 F 
ATOM     22  C   UNL     1      31.555  23.688  13.776  0.00  0.00    +0.047 A 
BRANCH  19  23
ATOM     23  O   UNL     1      32.455  24.096  10.268  0.00  0.00    -0.489 OA
BRANCH  23  24
ATOM     24  C   UNL     1      33.662  23.899   9.530  0.00  0.00    +0.232 C 
BRANCH  24  25
ATOM     25  C   UNL     1      33.337  23.302   8.198  0.00  0.00    +0.027 C 
ATOM     26  C   UNL     1      33.378  21.804   8.033  0.00  0.00    +0.007 C 
ATOM     27  C   UNL     1      34.420  22.661   7.367  0.00  0.00    +0.007 C 
ENDBRANCH  24  25
ENDBRANCH  23  24
ENDBRANCH  19  23
ENDBRANCH   1  16
TORSDOF 6
ENDMDL
MODEL 5
REMARK VINA RESULT:      -5.9      3.627      9.023
REMARK  Name = ZINC000543478179
REMARK  8 active torsions:
REMARK  status: ('A' for Active; 'I' for Inactive)
REMARK    1  A    between atoms: C_1  and  C_2
REMARK    2  A    between atoms: C_2  and  N_3
REMARK    3  A    between atoms: N_9  and  C_10
REMARK    4  A    between atoms: C_10  and  C_11
REMARK    5  A    between atoms: C_10  and  C_12
REMARK    6  A    between atoms: C_15  and  O_16
REMARK    7  A    between atoms: O_16  and  C_17
REMARK    8  A    between atoms: C_17  and  C_18
REMARK                            x       y       z     vdW  Elec       q    Type
REMARK                         _______ _______ _______ _____ _____    ______ ____
ROOT
ATOM      1  C   UNL     1      35.253  23.625   9.145  0.00  0.00    +0.102 C 
ATOM      2  C   UNL     1      35.720  25.083   9.131  0.00  0.00    +0.033 C 
ENDROOT
BRANCH   1   9
ATOM      3  N   UNL     1      37.340  22.302   4.299  0.00  0.00    -0.299 N 
ATOM      4  C   UNL     1      38.028  21.289   5.097  0.00  0.00    +0.127 C 
ATOM      5  C   UNL     1      38.545  21.861   6.420  0.00  0.00    +0.129 C 
ATOM      6  N   UNL     1      37.443  22.450   7.187  0.00  0.00    -0.275 N 
ATOM      7  C   UNL     1      37.340  22.178   8.522  0.00  0.00    +0.303 C 
ATOM      8  O   UNL     1      38.142  21.430   9.091  0.00  0.00    -0.253 OA
ATOM      9  N   UNL     1      36.360  22.685   9.301  0.00  0.00    -0.293 N 
ATOM     10  C   UNL     1      36.559  23.309   6.414  0.00  0.00    +0.205 C 
ATOM     11  C   UNL     1      36.703  23.372   4.894  0.00  0.00    +0.233 C 
ATOM     12  O   UNL     1      36.154  24.275   4.257  0.00  0.00    -0.274 OA
ATOM     13  H   UNL     1      36.480  22.325  10.240  0.00  0.00    +0.151 HD
BRANCH   3  15
ATOM     14  C   UNL     1      38.578  22.681   2.222  0.00  0.00    +0.024 C 
ATOM     15  C   UNL     1      37.296  22.170   2.855  0.00  0.00    +0.104 C 
ENDBRANCH   3  15
ENDBRANCH   1   9
BRANCH   1  16
ATOM     16  C   UNL     1      34.202  23.372  10.210  0.00  0.00    -0.024 A 
ATOM     17  C   UNL     1      34.356  22.364  11.169  0.00  0.00    +0.009 A 
ATOM     18  C   UNL     1      33.369  22.133  12.128  0.00  0.00    +0.049 A 
ATOM     19  C   UNL     1      32.183  22.880  12.123  0.00  0.00    +0.156 A 
ATOM     20  C   UNL     1      32.047  23.907  11.192  0.00  0.00    +0.165 A 
ATOM     21  F   UNL     1      30.944  24.672  11.180  0.00  0.00    -0.202 F 
ATOM     22  C   UNL     1      33.032  24.149  10.237  0.00  0.00    +0.047 A 
BRANCH  19  23
ATOM     23  O   UNL     1      31.133  22.667  12.971  0.00  0.00    -0.489 OA
BRANCH  23  24
ATOM     24  C   UNL     1      31.143  21.404  13.638  0.00  0.00    +0.232 C 
BRANCH  24  25
ATOM     25  C   UNL     1      31.297  21.622  15.109  0.00  0.00    +0.027 C 
ATOM     26  C   UNL     1      31.955  20.554  15.947  0.00  0.00    +0.007 C 
ATOM     27  C   UNL     1      30.480  20.815  16.087  0.00  0.00    +0.007 C 
ENDBRANCH  24  25
ENDBRANCH  23  24
ENDBRANCH  19  23
ENDBRANCH   1  16
TORSDOF 6
ENDMDL
MODEL 6
REMARK VINA RESULT:      -5.8      3.944      8.081
REMARK  Name = ZINC000543478179
REMARK  8 active torsions:
REMARK  status: ('A' for Active; 'I' for Inactive)
REMARK    1  A    between atoms: C_1  and  C_2
REMARK    2  A    between atoms: C_2  and  N_3
REMARK    3  A    between atoms: N_9  and  C_10
REMARK    4  A    between atoms: C_10  and  C_11
REMARK    5  A    between atoms: C_10  and  C_12
REMARK    6  A    between atoms: C_15  and  O_16
REMARK    7  A    between atoms: O_16  and  C_17
REMARK    8  A    between atoms: C_17  and  C_18
REMARK                            x       y       z     vdW  Elec       q    Type
REMARK                         _______ _______ _______ _____ _____    ______ ____
ROOT
ATOM      1  C   UNL     1      32.302  22.410  14.771  0.00  0.00    +0.102 C 
ATOM      2  C   UNL     1      31.361  21.489  15.551  0.00  0.00    +0.033 C 
ENDROOT
BRANCH   1   9
ATOM      3  N   UNL     1      34.743  23.151   9.967  0.00  0.00    -0.299 N 
ATOM      4  C   UNL     1      33.823  24.285   9.902  0.00  0.00    +0.127 C 
ATOM      5  C   UNL     1      32.424  23.912  10.401  0.00  0.00    +0.129 C 
ATOM      6  N   UNL     1      32.492  23.391  11.769  0.00  0.00    -0.275 N 
ATOM      7  C   UNL     1      31.592  23.835  12.697  0.00  0.00    +0.303 C 
ATOM      8  O   UNL     1      30.737  24.680  12.413  0.00  0.00    -0.253 OA
ATOM      9  N   UNL     1      31.582  23.401  13.976  0.00  0.00    -0.293 N 
ATOM     10  C   UNL     1      33.540  22.407  11.991  0.00  0.00    +0.205 C 
ATOM     11  C   UNL     1      34.578  22.147  10.900  0.00  0.00    +0.233 C 
ATOM     12  O   UNL     1      35.300  21.149  10.958  0.00  0.00    -0.274 OA
ATOM     13  H   UNL     1      30.845  23.887  14.472  0.00  0.00    +0.151 HD
BRANCH   3  15
ATOM     14  C   UNL     1      35.407  22.839   7.632  0.00  0.00    +0.024 C 
ATOM     15  C   UNL     1      35.870  23.088   9.056  0.00  0.00    +0.104 C 
ENDBRANCH   3  15
ENDBRANCH   1   9
BRANCH   1  16
ATOM     16  C   UNL     1      33.306  23.100  15.677  0.00  0.00    -0.024 A 
ATOM     17  C   UNL     1      34.668  23.154  15.357  0.00  0.00    +0.009 A 
ATOM     18  C   UNL     1      35.580  23.775  16.212  0.00  0.00    +0.049 A 
ATOM     19  C   UNL     1      35.153  24.322  17.430  0.00  0.00    +0.156 A 
ATOM     20  C   UNL     1      33.793  24.302  17.729  0.00  0.00    +0.165 A 
ATOM     21  F   UNL     1      33.339  24.852  18.867  0.00  0.00    -0.202 F 
ATOM     22  C   UNL     1      32.876  23.691  16.877  0.00  0.00    +0.047 A 
BRANCH  19  23
ATOM     23  O   UNL     1      35.986  24.875  18.362  0.00  0.00    -0.489 OA
BRANCH  23  24
ATOM     24  C   UNL     1      36.409  26.209  18.075  0.00  0.00    +0.232 C 
BRANCH  24  25
ATOM     25  C   UNL     1      35.915  27.127  19.148  0.00  0.00    +0.027 C 
ATOM     26  C   UNL     1      34.676  27.950  18.900  0.00  0.00    +0.007 C 
ATOM     27  C   UNL     1      36.020  28.622  18.977  0.00  0.00    +0.007 C 
ENDBRANCH  24  25
ENDBRANCH  23  24
ENDBRANCH  19  23
ENDBRANCH   1  16
TORSDOF 6
ENDMDL
MODEL 7
REMARK VINA RESULT:      -5.8      2.416      3.675
REMARK  Name = ZINC000543478179
REMARK  8 active torsions:
REMARK  status: ('A' for Active; 'I' for Inactive)
REMARK    1  A    between atoms: C_1  and  C_2
REMARK    2  A    between atoms: C_2  and  N_3
REMARK    3  A    between atoms: N_9  and  C_10
REMARK    4  A    between atoms: C_10  and  C_11
REMARK    5  A    between atoms: C_10  and  C_12
REMARK    6  A    between atoms: C_15  and  O_16
REMARK    7  A    between atoms: O_16  and  C_17
REMARK    8  A    between atoms: C_17  and  C_18
REMARK                            x       y       z     vdW  Elec       q    Type
REMARK                         _______ _______ _______ _____ _____    ______ ____
ROOT
ATOM      1  C   UNL     1      34.637  24.120  10.438  0.00  0.00    +0.102 C 
ATOM      2  C   UNL     1      35.442  25.410  10.614  0.00  0.00    +0.033 C 
ENDROOT
BRANCH   1   9
ATOM      3  N   UNL     1      32.849  20.315  13.888  0.00  0.00    -0.299 N 
ATOM      4  C   UNL     1      31.549  20.855  13.493  0.00  0.00    +0.127 C 
ATOM      5  C   UNL     1      31.566  22.384  13.425  0.00  0.00    +0.129 C 
ATOM      6  N   UNL     1      32.608  22.843  12.501  0.00  0.00    -0.275 N 
ATOM      7  C   UNL     1      32.312  23.823  11.596  0.00  0.00    +0.303 C 
ATOM      8  O   UNL     1      31.181  24.315  11.526  0.00  0.00    -0.253 OA
ATOM      9  N   UNL     1      33.215  24.306  10.716  0.00  0.00    -0.293 N 
ATOM     10  C   UNL     1      33.897  22.191  12.671  0.00  0.00    +0.205 C 
ATOM     11  C   UNL     1      34.020  20.989  13.608  0.00  0.00    +0.233 C 
ATOM     12  O   UNL     1      35.133  20.595  13.966  0.00  0.00    -0.274 OA
ATOM     13  H   UNL     1      32.759  25.002  10.140  0.00  0.00    +0.151 HD
BRANCH   3  15
ATOM     14  C   UNL     1      33.004  17.895  13.558  0.00  0.00    +0.024 C 
ATOM     15  C   UNL     1      32.919  19.031  14.561  0.00  0.00    +0.104 C 
ENDBRANCH   3  15
ENDBRANCH   1   9
BRANCH   1  16
ATOM     16  C   UNL     1      34.822  23.516   9.057  0.00  0.00    -0.024 A 
ATOM     17  C   UNL     1      33.964  22.525   8.568  0.00  0.00    +0.009 A 
ATOM     18  C   UNL     1      34.162  21.967   7.304  0.00  0.00    +0.049 A 
ATOM     19  C   UNL     1      35.252  22.360   6.517  0.00  0.00    +0.156 A 
ATOM     20  C   UNL     1      36.083  23.374   6.988  0.00  0.00    +0.165 A 
ATOM     21  F   UNL     1      37.114  23.808   6.245  0.00  0.00    -0.202 F 
ATOM     22  C   UNL     1      35.887  23.941   8.245  0.00  0.00    +0.047 A 
BRANCH  19  23
ATOM     23  O   UNL     1      35.568  21.811   5.306  0.00  0.00    -0.489 OA
BRANCH  23  24
ATOM     24  C   UNL     1      35.469  20.388   5.246  0.00  0.00    +0.232 C 
BRANCH  24  25
ATOM     25  C   UNL     1      36.646  19.779   5.939  0.00  0.00    +0.027 C 
ATOM     26  C   UNL     1      36.877  18.293   5.830  0.00  0.00    +0.007 C 
ATOM     27  C   UNL     1      36.446  18.890   7.141  0.00  0.00    +0.007 C 
ENDBRANCH  24  25
ENDBRANCH  23  24
ENDBRANCH  19  23
ENDBRANCH   1  16
TORSDOF 6
ENDMDL
MODEL 8
REMARK VINA RESULT:      -5.8     21.756     24.289
REMARK  Name = ZINC000543478179
REMARK  8 active torsions:
REMARK  status: ('A' for Active; 'I' for Inactive)
REMARK    1  A    between atoms: C_1  and  C_2
REMARK    2  A    between atoms: C_2  and  N_3
REMARK    3  A    between atoms: N_9  and  C_10
REMARK    4  A    between atoms: C_10  and  C_11
REMARK    5  A    between atoms: C_10  and  C_12
REMARK    6  A    between atoms: C_15  and  O_16
REMARK    7  A    between atoms: O_16  and  C_17
REMARK    8  A    between atoms: C_17  and  C_18
REMARK                            x       y       z     vdW  Elec       q    Type
REMARK                         _______ _______ _______ _____ _____    ______ ____
ROOT
ATOM      1  C   UNL     1      19.668  10.775   1.722  0.00  0.00    +0.102 C 
ATOM      2  C   UNL     1      20.069  11.781   2.803  0.00  0.00    +0.033 C 
ENDROOT
BRANCH   1   9
ATOM      3  N   UNL     1      16.441   8.725  -2.148  0.00  0.00    -0.299 N 
ATOM      4  C   UNL     1      17.534   9.167  -3.011  0.00  0.00    +0.127 C 
ATOM      5  C   UNL     1      18.056  10.549  -2.605  0.00  0.00    +0.129 C 
ATOM      6  N   UNL     1      18.488  10.540  -1.204  0.00  0.00    -0.275 N 
ATOM      7  C   UNL     1      19.680  11.117  -0.870  0.00  0.00    +0.303 C 
ATOM      8  O   UNL     1      20.411  11.627  -1.725  0.00  0.00    -0.253 OA
ATOM      9  N   UNL     1      20.147  11.157   0.397  0.00  0.00    -0.293 N 
ATOM     10  C   UNL     1      17.552   9.908  -0.286  0.00  0.00    +0.205 C 
ATOM     11  C   UNL     1      16.344   9.152  -0.838  0.00  0.00    +0.233 C 
ATOM     12  O   UNL     1      15.413   8.844  -0.091  0.00  0.00    -0.274 OA
ATOM     13  H   UNL     1      21.052  11.612   0.389  0.00  0.00    +0.151 HD
BRANCH   3  15
ATOM     14  C   UNL     1      16.060   6.424  -2.887  0.00  0.00    +0.024 C 
ATOM     15  C   UNL     1      15.452   7.796  -2.660  0.00  0.00    +0.104 C 
ENDBRANCH   3  15
ENDBRANCH   1   9
BRANCH   1  16
ATOM     16  C   UNL     1      20.126   9.366   2.054  0.00  0.00    -0.024 A 
ATOM     17  C   UNL     1      19.317   8.481   2.777  0.00  0.00    +0.009 A 
ATOM     18  C   UNL     1      19.764   7.197   3.091  0.00  0.00    +0.049 A 
ATOM     19  C   UNL     1      21.051   6.783   2.722  0.00  0.00    +0.156 A 
ATOM     20  C   UNL     1      21.841   7.649   1.970  0.00  0.00    +0.165 A 
ATOM     21  F   UNL     1      23.063   7.274   1.562  0.00  0.00    -0.202 F 
ATOM     22  C   UNL     1      21.398   8.930   1.646  0.00  0.00    +0.047 A 
BRANCH  19  23
ATOM     23  O   UNL     1      21.599   5.576   3.056  0.00  0.00    -0.489 OA
BRANCH  23  24
ATOM     24  C   UNL     1      21.315   4.512   2.147  0.00  0.00    +0.232 C 
BRANCH  24  25
ATOM     25  C   UNL     1      20.229   3.653   2.713  0.00  0.00    +0.027 C 
ATOM     26  C   UNL     1      20.010   2.273   2.144  0.00  0.00    +0.007 C 
ATOM     27  C   UNL     1      18.993   3.355   1.902  0.00  0.00    +0.007 C 
ENDBRANCH  24  25
ENDBRANCH  23  24
ENDBRANCH  19  23
ENDBRANCH   1  16
TORSDOF 6
ENDMDL
MODEL 9
REMARK VINA RESULT:      -5.7     19.625     22.475
REMARK  Name = ZINC000543478179
REMARK  8 active torsions:
REMARK  status: ('A' for Active; 'I' for Inactive)
REMARK    1  A    between atoms: C_1  and  C_2
REMARK    2  A    between atoms: C_2  and  N_3
REMARK    3  A    between atoms: N_9  and  C_10
REMARK    4  A    between atoms: C_10  and  C_11
REMARK    5  A    between atoms: C_10  and  C_12
REMARK    6  A    between atoms: C_15  and  O_16
REMARK    7  A    between atoms: O_16  and  C_17
REMARK    8  A    between atoms: C_17  and  C_18
REMARK                            x       y       z     vdW  Elec       q    Type
REMARK                         _______ _______ _______ _____ _____    ______ ____
ROOT
ATOM      1  C   UNL     1      13.309  21.857  19.902  0.00  0.00    +0.102 C 
ATOM      2  C   UNL     1      12.293  22.614  20.760  0.00  0.00    +0.033 C 
ENDROOT
BRANCH   1   9
ATOM      3  N   UNL     1      10.378  19.559  15.938  0.00  0.00    -0.299 N 
ATOM      4  C   UNL     1      11.250  20.376  15.095  0.00  0.00    +0.127 C 
ATOM      5  C   UNL     1      11.445  21.781  15.672  0.00  0.00    +0.129 C 
ATOM      6  N   UNL     1      11.982  21.704  17.034  0.00  0.00    -0.275 N 
ATOM      7  C   UNL     1      13.017  22.521  17.390  0.00  0.00    +0.303 C 
ATOM      8  O   UNL     1      13.523  23.309  16.583  0.00  0.00    -0.253 OA
ATOM      9  N   UNL     1      13.564  22.518  18.624  0.00  0.00    -0.293 N 
ATOM     10  C   UNL     1      11.314  20.739  17.895  0.00  0.00    +0.205 C 
ATOM     11  C   UNL     1      10.290  19.774  17.298  0.00  0.00    +0.233 C 
ATOM     12  O   UNL     1       9.531  19.142  18.038  0.00  0.00    -0.274 OA
ATOM     13  H   UNL     1      14.324  23.188  18.639  0.00  0.00    +0.151 HD
BRANCH   3  15
ATOM     14  C   UNL     1       8.384  19.013  14.629  0.00  0.00    +0.024 C 
ATOM     15  C   UNL     1       9.612  18.479  15.344  0.00  0.00    +0.104 C 
ENDBRANCH   3  15
ENDBRANCH   1   9
BRANCH   1  16
ATOM     16  C   UNL     1      14.617  21.624  20.637  0.00  0.00    -0.024 A 
ATOM     17  C   UNL     1      15.536  22.658  20.847  0.00  0.00    +0.009 A 
ATOM     18  C   UNL     1      16.743  22.420  21.507  0.00  0.00    +0.049 A 
ATOM     19  C   UNL     1      17.074  21.128  21.937  0.00  0.00    +0.156 A 
ATOM     20  C   UNL     1      16.143  20.108  21.762  0.00  0.00    +0.165 A 
ATOM     21  F   UNL     1      16.406  18.865  22.196  0.00  0.00    -0.202 F 
ATOM     22  C   UNL     1      14.933  20.340  21.110  0.00  0.00    +0.047 A 
BRANCH  19  23
ATOM     23  O   UNL     1      18.265  20.790  22.517  0.00  0.00    -0.489 OA
BRANCH  23  24
ATOM     24  C   UNL     1      18.657  21.618  23.613  0.00  0.00    +0.232 C 
BRANCH  24  25
ATOM     25  C   UNL     1      17.850  21.259  24.820  0.00  0.00    +0.027 C 
ATOM     26  C   UNL     1      17.243  22.359  25.654  0.00  0.00    +0.007 C 
ATOM     27  C   UNL     1      18.381  21.543  26.203  0.00  0.00    +0.007 C 
ENDBRANCH  24  25
ENDBRANCH  23  24
ENDBRANCH  19  23
ENDBRANCH   1  16
TORSDOF 6
ENDMDL
