MODEL 1
REMARK VINA RESULT:      -7.0      0.000      0.000
REMARK  Name = ZINC000826139982
REMARK  4 active torsions:
REMARK  status: ('A' for Active; 'I' for Inactive)
REMARK    1  A    between atoms: C_2  and  C_4
REMARK    2  A    between atoms: C_8  and  C_10
REMARK    3  A    between atoms: C_14  and  S_15
REMARK    4  A    between atoms: S_15  and  C_16
REMARK                            x       y       z     vdW  Elec       q    Type
REMARK                         _______ _______ _______ _____ _____    ______ ____
ROOT
ATOM      1  C   UNL     1      32.112  14.058  12.708  0.00  0.00    +0.093 C 
ATOM      2  C   UNL     1      31.753  14.075  14.194  0.00  0.00    +0.033 C 
ATOM      3  C   UNL     1      31.783  15.563  14.510  0.00  0.00    +0.109 C 
ATOM      4  N   UNL     1      32.979  16.003  13.805  0.00  0.00    -0.297 N 
ATOM      5  C   UNL     1      33.852  17.056  14.047  0.00  0.00    +0.247 C 
ATOM      6  O   UNL     1      34.743  17.336  13.240  0.00  0.00    -0.270 OA
ATOM      7  C   UNL     1      33.117  15.211  12.580  0.00  0.00    +0.120 C 
ENDROOT
BRANCH   5   8
ATOM      8  C   UNL     1      33.744  17.907  15.271  0.00  0.00    +0.038 A 
ATOM      9  C   UNL     1      34.161  17.497  16.537  0.00  0.00    +0.013 A 
ATOM     10  C   UNL     1      33.950  18.302  17.658  0.00  0.00    +0.002 A 
ATOM     11  C   UNL     1      33.446  19.590  17.503  0.00  0.00    +0.015 A 
ATOM     12  C   UNL     1      33.190  20.090  16.224  0.00  0.00    +0.017 A 
ATOM     13  C   UNL     1      33.298  19.234  15.118  0.00  0.00    +0.028 A 
BRANCH  12  14
ATOM     14  S   UNL     1      32.712  21.789  15.987  0.00  0.00    -0.016 S 
BRANCH  14  15
ATOM     15  C   UNL     1      30.918  21.680  16.171  0.00  0.00    +0.448 C 
ATOM     16  F   UNL     1      30.493  20.538  16.762  0.00  0.00    -0.160 F 
ATOM     17  F   UNL     1      30.444  22.709  16.912  0.00  0.00    -0.160 F 
ATOM     18  F   UNL     1      30.309  21.745  14.961  0.00  0.00    -0.160 F 
ENDBRANCH  14  15
ENDBRANCH  12  14
ENDBRANCH   5   8
BRANCH   1  20
ATOM     19  N   UNL     1      29.925  13.263  11.944  0.00  0.00    -0.329 N 
ATOM     20  C   UNL     1      30.863  14.245  11.859  0.00  0.00    +0.215 C 
ATOM     21  O   UNL     1      30.652  15.229  11.157  0.00  0.00    -0.276 OA
ATOM     22  H   UNL     1      29.056  13.427  11.452  0.00  0.00    +0.145 HD
ATOM     23  H   UNL     1      29.964  12.512  12.619  0.00  0.00    +0.145 HD
ENDBRANCH   1  20
TORSDOF 4
ENDMDL
MODEL 2
REMARK VINA RESULT:      -6.7      4.383      6.773
REMARK  Name = ZINC000826139982
REMARK  4 active torsions:
REMARK  status: ('A' for Active; 'I' for Inactive)
REMARK    1  A    between atoms: C_2  and  C_4
REMARK    2  A    between atoms: C_8  and  C_10
REMARK    3  A    between atoms: C_14  and  S_15
REMARK    4  A    between atoms: S_15  and  C_16
REMARK                            x       y       z     vdW  Elec       q    Type
REMARK                         _______ _______ _______ _____ _____    ______ ____
ROOT
ATOM      1  C   UNL     1      32.503  21.030  16.369  0.00  0.00    +0.093 C 
ATOM      2  C   UNL     1      32.841  21.251  14.894  0.00  0.00    +0.033 C 
ATOM      3  C   UNL     1      32.494  19.901  14.284  0.00  0.00    +0.109 C 
ATOM      4  N   UNL     1      33.035  18.971  15.265  0.00  0.00    -0.297 N 
ATOM      5  C   UNL     1      33.508  17.671  15.134  0.00  0.00    +0.247 C 
ATOM      6  O   UNL     1      33.804  17.005  16.130  0.00  0.00    -0.270 OA
ATOM      7  C   UNL     1      32.891  19.562  16.598  0.00  0.00    +0.120 C 
ENDROOT
BRANCH   5   8
ATOM      8  C   UNL     1      33.655  17.014  13.800  0.00  0.00    +0.038 A 
ATOM      9  C   UNL     1      34.536  17.458  12.814  0.00  0.00    +0.013 A 
ATOM     10  C   UNL     1      34.563  16.858  11.553  0.00  0.00    +0.002 A 
ATOM     11  C   UNL     1      33.809  15.714  11.312  0.00  0.00    +0.015 A 
ATOM     12  C   UNL     1      33.056  15.144  12.343  0.00  0.00    +0.017 A 
ATOM     13  C   UNL     1      32.948  15.819  13.568  0.00  0.00    +0.028 A 
BRANCH  12  14
ATOM     14  S   UNL     1      32.223  13.587  12.111  0.00  0.00    -0.016 S 
BRANCH  14  15
ATOM     15  C   UNL     1      30.495  14.112  12.090  0.00  0.00    +0.448 C 
ATOM     16  F   UNL     1      29.956  14.286  13.320  0.00  0.00    -0.160 F 
ATOM     17  F   UNL     1      30.353  15.284  11.426  0.00  0.00    -0.160 F 
ATOM     18  F   UNL     1      29.726  13.196  11.451  0.00  0.00    -0.160 F 
ENDBRANCH  14  15
ENDBRANCH  12  14
ENDBRANCH   5   8
BRANCH   1  20
ATOM     19  N   UNL     1      30.309  20.301  17.175  0.00  0.00    -0.329 N 
ATOM     20  C   UNL     1      31.031  21.314  16.623  0.00  0.00    +0.215 C 
ATOM     21  O   UNL     1      30.492  22.395  16.402  0.00  0.00    -0.276 OA
ATOM     22  H   UNL     1      29.353  20.515  17.429  0.00  0.00    +0.145 HD
ATOM     23  H   UNL     1      30.723  19.450  17.527  0.00  0.00    +0.145 HD
ENDBRANCH   1  20
TORSDOF 4
ENDMDL
MODEL 3
REMARK VINA RESULT:      -6.3      2.675      3.344
REMARK  Name = ZINC000826139982
REMARK  4 active torsions:
REMARK  status: ('A' for Active; 'I' for Inactive)
REMARK    1  A    between atoms: C_2  and  C_4
REMARK    2  A    between atoms: C_8  and  C_10
REMARK    3  A    between atoms: C_14  and  S_15
REMARK    4  A    between atoms: S_15  and  C_16
REMARK                            x       y       z     vdW  Elec       q    Type
REMARK                         _______ _______ _______ _____ _____    ______ ____
ROOT
ATOM      1  C   UNL     1      32.118  14.058  12.681  0.00  0.00    +0.093 C 
ATOM      2  C   UNL     1      31.768  14.156  14.166  0.00  0.00    +0.033 C 
ATOM      3  C   UNL     1      31.748  15.660  14.389  0.00  0.00    +0.109 C 
ATOM      4  N   UNL     1      32.923  16.097  13.648  0.00  0.00    -0.297 N 
ATOM      5  C   UNL     1      33.761  17.192  13.817  0.00  0.00    +0.247 C 
ATOM      6  O   UNL     1      34.635  17.452  12.986  0.00  0.00    -0.270 OA
ATOM      7  C   UNL     1      33.082  15.235  12.473  0.00  0.00    +0.120 C 
ENDROOT
BRANCH   5   8
ATOM      8  C   UNL     1      33.630  18.114  14.986  0.00  0.00    +0.038 A 
ATOM      9  C   UNL     1      32.447  18.771  15.323  0.00  0.00    +0.013 A 
ATOM     10  C   UNL     1      32.410  19.691  16.373  0.00  0.00    +0.002 A 
ATOM     11  C   UNL     1      33.525  19.858  17.189  0.00  0.00    +0.015 A 
ATOM     12  C   UNL     1      34.665  19.077  16.982  0.00  0.00    +0.017 A 
ATOM     13  C   UNL     1      34.729  18.241  15.857  0.00  0.00    +0.028 A 
BRANCH  12  14
ATOM     14  S   UNL     1      36.037  19.146  18.115  0.00  0.00    -0.016 S 
BRANCH  14  15
ATOM     15  C   UNL     1      35.229  18.719  19.673  0.00  0.00    +0.448 C 
ATOM     16  F   UNL     1      34.831  19.791  20.400  0.00  0.00    -0.160 F 
ATOM     17  F   UNL     1      34.130  17.959  19.456  0.00  0.00    -0.160 F 
ATOM     18  F   UNL     1      36.064  17.998  20.461  0.00  0.00    -0.160 F 
ENDBRANCH  14  15
ENDBRANCH  12  14
ENDBRANCH   5   8
BRANCH   1  20
ATOM     19  N   UNL     1      29.981  13.114  11.947  0.00  0.00    -0.329 N 
ATOM     20  C   UNL     1      30.858  14.148  11.833  0.00  0.00    +0.215 C 
ATOM     21  O   UNL     1      30.586  15.100  11.108  0.00  0.00    -0.276 OA
ATOM     22  H   UNL     1      29.103  13.213  11.454  0.00  0.00    +0.145 HD
ATOM     23  H   UNL     1      30.067  12.384  12.640  0.00  0.00    +0.145 HD
ENDBRANCH   1  20
TORSDOF 4
ENDMDL
MODEL 4
REMARK VINA RESULT:      -6.2      2.025      2.732
REMARK  Name = ZINC000826139982
REMARK  4 active torsions:
REMARK  status: ('A' for Active; 'I' for Inactive)
REMARK    1  A    between atoms: C_2  and  C_4
REMARK    2  A    between atoms: C_8  and  C_10
REMARK    3  A    between atoms: C_14  and  S_15
REMARK    4  A    between atoms: S_15  and  C_16
REMARK                            x       y       z     vdW  Elec       q    Type
REMARK                         _______ _______ _______ _____ _____    ______ ____
ROOT
ATOM      1  C   UNL     1      30.588  13.772  13.233  0.00  0.00    +0.093 C 
ATOM      2  C   UNL     1      30.439  14.891  12.203  0.00  0.00    +0.033 C 
ATOM      3  C   UNL     1      31.797  15.573  12.276  0.00  0.00    +0.109 C 
ATOM      4  N   UNL     1      32.044  15.614  13.710  0.00  0.00    -0.297 N 
ATOM      5  C   UNL     1      32.792  16.488  14.488  0.00  0.00    +0.247 C 
ATOM      6  O   UNL     1      32.979  16.264  15.687  0.00  0.00    -0.270 OA
ATOM      7  C   UNL     1      31.463  14.414  14.319  0.00  0.00    +0.120 C 
ENDROOT
BRANCH   5   8
ATOM      8  C   UNL     1      33.422  17.716  13.914  0.00  0.00    +0.038 A 
ATOM      9  C   UNL     1      34.235  17.708  12.781  0.00  0.00    +0.013 A 
ATOM     10  C   UNL     1      34.870  18.874  12.345  0.00  0.00    +0.002 A 
ATOM     11  C   UNL     1      34.583  20.090  12.956  0.00  0.00    +0.015 A 
ATOM     12  C   UNL     1      33.633  20.151  13.979  0.00  0.00    +0.017 A 
ATOM     13  C   UNL     1      33.089  18.960  14.482  0.00  0.00    +0.028 A 
BRANCH  12  14
ATOM     14  S   UNL     1      33.121  21.716  14.657  0.00  0.00    -0.016 S 
BRANCH  14  15
ATOM     15  C   UNL     1      31.446  21.856  13.999  0.00  0.00    +0.448 C 
ATOM     16  F   UNL     1      30.476  21.812  14.944  0.00  0.00    -0.160 F 
ATOM     17  F   UNL     1      31.286  23.018  13.322  0.00  0.00    -0.160 F 
ATOM     18  F   UNL     1      31.189  20.848  13.128  0.00  0.00    -0.160 F 
ENDBRANCH  14  15
ENDBRANCH  12  14
ENDBRANCH   5   8
BRANCH   1  20
ATOM     19  N   UNL     1      30.357  11.593  12.140  0.00  0.00    -0.329 N 
ATOM     20  C   UNL     1      31.218  12.543  12.594  0.00  0.00    +0.215 C 
ATOM     21  O   UNL     1      32.426  12.396  12.436  0.00  0.00    -0.276 OA
ATOM     22  H   UNL     1      30.767  10.818  11.635  0.00  0.00    +0.145 HD
ATOM     23  H   UNL     1      29.356  11.724  12.094  0.00  0.00    +0.145 HD
ENDBRANCH   1  20
TORSDOF 4
ENDMDL
MODEL 5
REMARK VINA RESULT:      -5.9      4.426      7.139
REMARK  Name = ZINC000826139982
REMARK  4 active torsions:
REMARK  status: ('A' for Active; 'I' for Inactive)
REMARK    1  A    between atoms: C_2  and  C_4
REMARK    2  A    between atoms: C_8  and  C_10
REMARK    3  A    between atoms: C_14  and  S_15
REMARK    4  A    between atoms: S_15  and  C_16
REMARK                            x       y       z     vdW  Elec       q    Type
REMARK                         _______ _______ _______ _____ _____    ______ ____
ROOT
ATOM      1  C   UNL     1      34.022  19.933  18.290  0.00  0.00    +0.093 C 
ATOM      2  C   UNL     1      34.242  18.423  18.372  0.00  0.00    +0.033 C 
ATOM      3  C   UNL     1      34.574  18.070  16.930  0.00  0.00    +0.109 C 
ATOM      4  N   UNL     1      33.602  18.861  16.189  0.00  0.00    -0.297 N 
ATOM      5  C   UNL     1      33.016  18.664  14.944  0.00  0.00    +0.247 C 
ATOM      6  O   UNL     1      32.305  19.536  14.437  0.00  0.00    -0.270 OA
ATOM      7  C   UNL     1      33.368  20.114  16.912  0.00  0.00    +0.120 C 
ENDROOT
BRANCH   5   8
ATOM      8  C   UNL     1      33.237  17.414  14.156  0.00  0.00    +0.038 A 
ATOM      9  C   UNL     1      34.373  17.179  13.382  0.00  0.00    +0.013 A 
ATOM     10  C   UNL     1      34.481  16.030  12.595  0.00  0.00    +0.002 A 
ATOM     11  C   UNL     1      33.512  15.035  12.683  0.00  0.00    +0.015 A 
ATOM     12  C   UNL     1      32.455  15.167  13.588  0.00  0.00    +0.017 A 
ATOM     13  C   UNL     1      32.298  16.373  14.287  0.00  0.00    +0.028 A 
BRANCH  12  14
ATOM     14  S   UNL     1      31.303  13.834  13.845  0.00  0.00    -0.016 S 
BRANCH  14  15
ATOM     15  C   UNL     1      30.215  14.028  12.416  0.00  0.00    +0.448 C 
ATOM     16  F   UNL     1      30.191  12.953  11.592  0.00  0.00    -0.160 F 
ATOM     17  F   UNL     1      28.939  14.256  12.807  0.00  0.00    -0.160 F 
ATOM     18  F   UNL     1      30.598  15.090  11.665  0.00  0.00    -0.160 F 
ENDBRANCH  14  15
ENDBRANCH  12  14
ENDBRANCH   5   8
BRANCH   1  20
ATOM     19  N   UNL     1      35.463  21.836  17.743  0.00  0.00    -0.329 N 
ATOM     20  C   UNL     1      35.345  20.670  18.434  0.00  0.00    +0.215 C 
ATOM     21  O   UNL     1      36.264  20.295  19.156  0.00  0.00    -0.276 OA
ATOM     22  H   UNL     1      36.304  22.374  17.907  0.00  0.00    +0.145 HD
ATOM     23  H   UNL     1      34.693  22.279  17.262  0.00  0.00    +0.145 HD
ENDBRANCH   1  20
TORSDOF 4
ENDMDL
MODEL 6
REMARK VINA RESULT:      -5.8      1.889      2.733
REMARK  Name = ZINC000826139982
REMARK  4 active torsions:
REMARK  status: ('A' for Active; 'I' for Inactive)
REMARK    1  A    between atoms: C_2  and  C_4
REMARK    2  A    between atoms: C_8  and  C_10
REMARK    3  A    between atoms: C_14  and  S_15
REMARK    4  A    between atoms: S_15  and  C_16
REMARK                            x       y       z     vdW  Elec       q    Type
REMARK                         _______ _______ _______ _____ _____    ______ ____
ROOT
ATOM      1  C   UNL     1      34.114  15.569  11.143  0.00  0.00    +0.093 C 
ATOM      2  C   UNL     1      34.710  16.959  11.365  0.00  0.00    +0.033 C 
ATOM      3  C   UNL     1      34.830  17.014  12.881  0.00  0.00    +0.109 C 
ATOM      4  N   UNL     1      33.567  16.430  13.311  0.00  0.00    -0.297 N 
ATOM      5  C   UNL     1      32.817  16.614  14.465  0.00  0.00    +0.247 C 
ATOM      6  O   UNL     1      31.827  15.912  14.693  0.00  0.00    -0.270 OA
ATOM      7  C   UNL     1      33.179  15.395  12.348  0.00  0.00    +0.120 C 
ENDROOT
BRANCH   5   8
ATOM      8  C   UNL     1      33.179  17.641  15.488  0.00  0.00    +0.038 A 
ATOM      9  C   UNL     1      33.971  17.373  16.605  0.00  0.00    +0.013 A 
ATOM     10  C   UNL     1      34.200  18.352  17.574  0.00  0.00    +0.002 A 
ATOM     11  C   UNL     1      33.755  19.654  17.365  0.00  0.00    +0.015 A 
ATOM     12  C   UNL     1      33.116  19.990  16.168  0.00  0.00    +0.017 A 
ATOM     13  C   UNL     1      32.792  18.975  15.255  0.00  0.00    +0.028 A 
BRANCH  12  14
ATOM     14  S   UNL     1      32.693  21.680  15.803  0.00  0.00    -0.016 S 
BRANCH  14  15
ATOM     15  C   UNL     1      30.927  21.692  16.178  0.00  0.00    +0.448 C 
ATOM     16  F   UNL     1      30.532  22.738  16.943  0.00  0.00    -0.160 F 
ATOM     17  F   UNL     1      30.191  21.732  15.042  0.00  0.00    -0.160 F 
ATOM     18  F   UNL     1      30.573  20.565  16.844  0.00  0.00    -0.160 F 
ENDBRANCH  14  15
ENDBRANCH  12  14
ENDBRANCH   5   8
BRANCH   1  20
ATOM     19  N   UNL     1      35.240  13.608  12.081  0.00  0.00    -0.329 N 
ATOM     20  C   UNL     1      35.217  14.524  11.075  0.00  0.00    +0.215 C 
ATOM     21  O   UNL     1      36.032  14.445  10.161  0.00  0.00    -0.276 OA
ATOM     22  H   UNL     1      35.914  12.859  11.992  0.00  0.00    +0.145 HD
ATOM     23  H   UNL     1      34.508  13.519  12.771  0.00  0.00    +0.145 HD
ENDBRANCH   1  20
TORSDOF 4
ENDMDL
MODEL 7
REMARK VINA RESULT:      -5.8      2.196      2.480
REMARK  Name = ZINC000826139982
REMARK  4 active torsions:
REMARK  status: ('A' for Active; 'I' for Inactive)
REMARK    1  A    between atoms: C_2  and  C_4
REMARK    2  A    between atoms: C_8  and  C_10
REMARK    3  A    between atoms: C_14  and  S_15
REMARK    4  A    between atoms: S_15  and  C_16
REMARK                            x       y       z     vdW  Elec       q    Type
REMARK                         _______ _______ _______ _____ _____    ______ ____
ROOT
ATOM      1  C   UNL     1      32.084  13.681  13.018  0.00  0.00    +0.093 C 
ATOM      2  C   UNL     1      31.542  14.074  14.393  0.00  0.00    +0.033 C 
ATOM      3  C   UNL     1      31.442  15.587  14.274  0.00  0.00    +0.109 C 
ATOM      4  N   UNL     1      32.687  15.926  13.600  0.00  0.00    -0.297 N 
ATOM      5  C   UNL     1      33.457  17.082  13.621  0.00  0.00    +0.247 C 
ATOM      6  O   UNL     1      34.423  17.211  12.863  0.00  0.00    -0.270 OA
ATOM      7  C   UNL     1      33.025  14.844  12.672  0.00  0.00    +0.120 C 
ENDROOT
BRANCH   5   8
ATOM      8  C   UNL     1      33.145  18.223  14.534  0.00  0.00    +0.038 A 
ATOM      9  C   UNL     1      33.262  18.156  15.922  0.00  0.00    +0.013 A 
ATOM     10  C   UNL     1      32.868  19.226  16.728  0.00  0.00    +0.002 A 
ATOM     11  C   UNL     1      32.486  20.431  16.145  0.00  0.00    +0.015 A 
ATOM     12  C   UNL     1      32.534  20.581  14.757  0.00  0.00    +0.017 A 
ATOM     13  C   UNL     1      32.821  19.465  13.956  0.00  0.00    +0.028 A 
BRANCH  12  14
ATOM     14  S   UNL     1      32.219  22.161  13.999  0.00  0.00    -0.016 S 
BRANCH  14  15
ATOM     15  C   UNL     1      33.713  22.381  13.009  0.00  0.00    +0.448 C 
ATOM     16  F   UNL     1      33.970  23.670  12.678  0.00  0.00    -0.160 F 
ATOM     17  F   UNL     1      34.802  21.917  13.666  0.00  0.00    -0.160 F 
ATOM     18  F   UNL     1      33.622  21.688  11.846  0.00  0.00    -0.160 F 
ENDBRANCH  14  15
ENDBRANCH  12  14
ENDBRANCH   5   8
BRANCH   1  20
ATOM     19  N   UNL     1      30.241  12.346  12.114  0.00  0.00    -0.329 N 
ATOM     20  C   UNL     1      30.942  13.510  12.028  0.00  0.00    +0.215 C 
ATOM     21  O   UNL     1      30.608  14.363  11.211  0.00  0.00    -0.276 OA
ATOM     22  H   UNL     1      29.427  12.267  11.519  0.00  0.00    +0.145 HD
ATOM     23  H   UNL     1      30.360  11.678  12.861  0.00  0.00    +0.145 HD
ENDBRANCH   1  20
TORSDOF 4
ENDMDL
MODEL 8
REMARK VINA RESULT:      -5.8      2.482      3.094
REMARK  Name = ZINC000826139982
REMARK  4 active torsions:
REMARK  status: ('A' for Active; 'I' for Inactive)
REMARK    1  A    between atoms: C_2  and  C_4
REMARK    2  A    between atoms: C_8  and  C_10
REMARK    3  A    between atoms: C_14  and  S_15
REMARK    4  A    between atoms: S_15  and  C_16
REMARK                            x       y       z     vdW  Elec       q    Type
REMARK                         _______ _______ _______ _____ _____    ______ ____
ROOT
ATOM      1  C   UNL     1      32.076  13.923  12.749  0.00  0.00    +0.093 C 
ATOM      2  C   UNL     1      31.793  14.494  14.138  0.00  0.00    +0.033 C 
ATOM      3  C   UNL     1      32.178  15.955  13.966  0.00  0.00    +0.109 C 
ATOM      4  N   UNL     1      33.413  15.859  13.199  0.00  0.00    -0.297 N 
ATOM      5  C   UNL     1      34.514  16.702  13.124  0.00  0.00    +0.247 C 
ATOM      6  O   UNL     1      35.411  16.498  12.301  0.00  0.00    -0.270 OA
ATOM      7  C   UNL     1      33.314  14.710  12.296  0.00  0.00    +0.120 C 
ENDROOT
BRANCH   5   8
ATOM      8  C   UNL     1      34.656  17.899  14.009  0.00  0.00    +0.038 A 
ATOM      9  C   UNL     1      34.159  19.162  13.685  0.00  0.00    +0.013 A 
ATOM     10  C   UNL     1      34.402  20.262  14.510  0.00  0.00    +0.002 A 
ATOM     11  C   UNL     1      35.024  20.082  15.742  0.00  0.00    +0.015 A 
ATOM     12  C   UNL     1      35.369  18.797  16.169  0.00  0.00    +0.017 A 
ATOM     13  C   UNL     1      35.224  17.718  15.284  0.00  0.00    +0.028 A 
BRANCH  12  14
ATOM     14  S   UNL     1      36.005  18.521  17.809  0.00  0.00    -0.016 S 
BRANCH  14  15
ATOM     15  C   UNL     1      34.611  19.059  18.823  0.00  0.00    +0.448 C 
ATOM     16  F   UNL     1      33.409  18.965  18.204  0.00  0.00    -0.160 F 
ATOM     17  F   UNL     1      34.528  18.329  19.961  0.00  0.00    -0.160 F 
ATOM     18  F   UNL     1      34.761  20.356  19.191  0.00  0.00    -0.160 F 
ENDBRANCH  14  15
ENDBRANCH  12  14
ENDBRANCH   5   8
BRANCH   1  20
ATOM     19  N   UNL     1      29.900  13.163  11.922  0.00  0.00    -0.329 N 
ATOM     20  C   UNL     1      30.870  14.114  11.842  0.00  0.00    +0.215 C 
ATOM     21  O   UNL     1      30.717  15.078  11.098  0.00  0.00    -0.276 OA
ATOM     22  H   UNL     1      29.058  13.333  11.388  0.00  0.00    +0.145 HD
ATOM     23  H   UNL     1      29.889  12.436  12.623  0.00  0.00    +0.145 HD
ENDBRANCH   1  20
TORSDOF 4
ENDMDL
MODEL 9
REMARK VINA RESULT:      -5.7      5.734      6.947
REMARK  Name = ZINC000826139982
REMARK  4 active torsions:
REMARK  status: ('A' for Active; 'I' for Inactive)
REMARK    1  A    between atoms: C_2  and  C_4
REMARK    2  A    between atoms: C_8  and  C_10
REMARK    3  A    between atoms: C_14  and  S_15
REMARK    4  A    between atoms: S_15  and  C_16
REMARK                            x       y       z     vdW  Elec       q    Type
REMARK                         _______ _______ _______ _____ _____    ______ ____
ROOT
ATOM      1  C   UNL     1      33.930  22.209   7.489  0.00  0.00    +0.093 C 
ATOM      2  C   UNL     1      33.138  23.266   8.259  0.00  0.00    +0.033 C 
ATOM      3  C   UNL     1      33.887  23.323   9.582  0.00  0.00    +0.109 C 
ATOM      4  N   UNL     1      34.131  21.914   9.858  0.00  0.00    -0.297 N 
ATOM      5  C   UNL     1      34.299  21.230  11.056  0.00  0.00    +0.247 C 
ATOM      6  O   UNL     1      34.630  20.041  11.062  0.00  0.00    -0.270 OA
ATOM      7  C   UNL     1      34.345  21.218   8.587  0.00  0.00    +0.120 C 
ENDROOT
BRANCH   5   8
ATOM      8  C   UNL     1      34.112  21.896  12.380  0.00  0.00    +0.038 A 
ATOM      9  C   UNL     1      34.962  22.886  12.873  0.00  0.00    +0.013 A 
ATOM     10  C   UNL     1      34.788  23.407  14.157  0.00  0.00    +0.002 A 
ATOM     11  C   UNL     1      33.676  23.044  14.910  0.00  0.00    +0.015 A 
ATOM     12  C   UNL     1      32.713  22.190  14.365  0.00  0.00    +0.017 A 
ATOM     13  C   UNL     1      32.956  21.586  13.122  0.00  0.00    +0.028 A 
BRANCH  12  14
ATOM     14  S   UNL     1      31.198  21.848  15.236  0.00  0.00    -0.016 S 
BRANCH  14  15
ATOM     15  C   UNL     1      31.680  20.425  16.237  0.00  0.00    +0.448 C 
ATOM     16  F   UNL     1      32.735  20.657  17.055  0.00  0.00    -0.160 F 
ATOM     17  F   UNL     1      30.655  20.014  17.020  0.00  0.00    -0.160 F 
ATOM     18  F   UNL     1      32.021  19.378  15.445  0.00  0.00    -0.160 F 
ENDBRANCH  14  15
ENDBRANCH  12  14
ENDBRANCH   5   8
BRANCH   1  20
ATOM     19  N   UNL     1      34.804  23.722   5.774  0.00  0.00    -0.329 N 
ATOM     20  C   UNL     1      35.109  22.848   6.772  0.00  0.00    +0.215 C 
ATOM     21  O   UNL     1      36.283  22.653   7.072  0.00  0.00    -0.276 OA
ATOM     22  H   UNL     1      35.581  24.216   5.356  0.00  0.00    +0.145 HD
ATOM     23  H   UNL     1      33.867  24.047   5.585  0.00  0.00    +0.145 HD
ENDBRANCH   1  20
TORSDOF 4
ENDMDL
