MODEL 1
REMARK VINA RESULT:      -7.5      0.000      0.000
REMARK  Name = ZINC000870248439
REMARK  2 active torsions:
REMARK  status: ('A' for Active; 'I' for Inactive)
REMARK    1  A    between atoms: C_2  and  C_4
REMARK    2  A    between atoms: C_7  and  C_8
REMARK                            x       y       z     vdW  Elec       q    Type
REMARK                         _______ _______ _______ _____ _____    ______ ____
ROOT
ATOM      1  C   UNL     1      31.351  21.805  15.094  0.00  0.00    +0.247 C 
ATOM      2  O   UNL     1      31.986  20.813  15.450  0.00  0.00    -0.270 OA
ATOM      3  N   UNL     1      31.774  22.658  14.065  0.00  0.00    -0.297 N 
ATOM      4  C   UNL     1      31.079  23.870  13.625  0.00  0.00    +0.108 C 
ATOM      5  C   UNL     1      31.138  24.084  12.117  0.00  0.00    +0.026 C 
ATOM      6  C   UNL     1      32.562  23.976  11.532  0.00  0.00    -0.025 C 
ATOM      7  C   UNL     1      32.431  23.995   9.988  0.00  0.00    +0.017 C 
ATOM      8  C   UNL     1      33.750  23.933   9.229  0.00  0.00    +0.069 C 
ATOM      9  S   UNL     1      34.836  25.332   9.618  0.00  0.00    -0.161 S 
ATOM     10  C   UNL     1      34.828  25.223  11.428  0.00  0.00    +0.069 C 
ATOM     11  C   UNL     1      33.411  25.190  11.990  0.00  0.00    +0.017 C 
ATOM     12  C   UNL     1      33.151  22.623  12.011  0.00  0.00    +0.026 C 
ATOM     13  C   UNL     1      33.119  22.463  13.531  0.00  0.00    +0.108 C 
ENDROOT
BRANCH   1  17
ATOM     14  C   UNL     1      27.694  22.330  17.233  0.00  0.00    +0.037 A 
ATOM     15  C   UNL     1      27.695  21.578  16.053  0.00  0.00    +0.014 A 
ATOM     16  C   UNL     1      28.862  21.482  15.296  0.00  0.00    +0.014 A 
ATOM     17  C   UNL     1      30.051  22.053  15.764  0.00  0.00    +0.037 A 
ATOM     18  C   UNL     1      30.027  22.878  16.896  0.00  0.00    +0.014 A 
ATOM     19  C   UNL     1      28.844  23.026  17.625  0.00  0.00    +0.014 A 
BRANCH  14  21
ATOM     20  N   UNL     1      25.278  22.209  17.473  0.00  0.00    -0.325 N 
ATOM     21  C   UNL     1      26.482  22.408  18.088  0.00  0.00    +0.242 C 
ATOM     22  O   UNL     1      26.559  22.587  19.294  0.00  0.00    -0.270 OA
ATOM     23  H   UNL     1      24.473  22.142  18.083  0.00  0.00    +0.145 HD
ATOM     24  H   UNL     1      25.201  21.803  16.551  0.00  0.00    +0.145 HD
ENDBRANCH  14  21
ENDBRANCH   1  17
TORSDOF 2
ENDMDL
MODEL 2
REMARK VINA RESULT:      -7.2      1.657      1.916
REMARK  Name = ZINC000870248439
REMARK  2 active torsions:
REMARK  status: ('A' for Active; 'I' for Inactive)
REMARK    1  A    between atoms: C_2  and  C_4
REMARK    2  A    between atoms: C_7  and  C_8
REMARK                            x       y       z     vdW  Elec       q    Type
REMARK                         _______ _______ _______ _____ _____    ______ ____
ROOT
ATOM      1  C   UNL     1      31.278  21.673  15.348  0.00  0.00    +0.247 C 
ATOM      2  O   UNL     1      31.216  20.444  15.345  0.00  0.00    -0.270 OA
ATOM      3  N   UNL     1      31.849  22.416  14.306  0.00  0.00    -0.297 N 
ATOM      4  C   UNL     1      31.980  23.875  14.273  0.00  0.00    +0.108 C 
ATOM      5  C   UNL     1      31.758  24.468  12.887  0.00  0.00    +0.026 C 
ATOM      6  C   UNL     1      32.580  23.778  11.778  0.00  0.00    -0.025 C 
ATOM      7  C   UNL     1      32.087  24.336  10.419  0.00  0.00    +0.017 C 
ATOM      8  C   UNL     1      32.814  23.792   9.197  0.00  0.00    +0.069 C 
ATOM      9  S   UNL     1      34.590  24.160   9.231  0.00  0.00    -0.161 S 
ATOM     10  C   UNL     1      34.995  23.527  10.881  0.00  0.00    +0.069 C 
ATOM     11  C   UNL     1      34.084  24.112  11.955  0.00  0.00    +0.017 C 
ATOM     12  C   UNL     1      32.292  22.257  11.878  0.00  0.00    +0.026 C 
ATOM     13  C   UNL     1      32.572  21.686  13.268  0.00  0.00    +0.108 C 
ENDROOT
BRANCH   1  17
ATOM     14  C   UNL     1      29.504  23.449  18.802  0.00  0.00    +0.037 A 
ATOM     15  C   UNL     1      28.703  23.164  17.691  0.00  0.00    +0.014 A 
ATOM     16  C   UNL     1      29.289  22.675  16.523  0.00  0.00    +0.014 A 
ATOM     17  C   UNL     1      30.656  22.378  16.496  0.00  0.00    +0.037 A 
ATOM     18  C   UNL     1      31.469  22.747  17.575  0.00  0.00    +0.014 A 
ATOM     19  C   UNL     1      30.894  23.294  18.725  0.00  0.00    +0.014 A 
BRANCH  14  21
ATOM     20  N   UNL     1      27.605  24.342  20.028  0.00  0.00    -0.325 N 
ATOM     21  C   UNL     1      28.904  23.920  20.075  0.00  0.00    +0.242 C 
ATOM     22  O   UNL     1      29.522  23.882  21.128  0.00  0.00    -0.270 OA
ATOM     23  H   UNL     1      27.170  24.544  20.919  0.00  0.00    +0.145 HD
ATOM     24  H   UNL     1      26.998  24.139  19.247  0.00  0.00    +0.145 HD
ENDBRANCH  14  21
ENDBRANCH   1  17
TORSDOF 2
ENDMDL
MODEL 3
REMARK VINA RESULT:      -7.1      2.005      2.759
REMARK  Name = ZINC000870248439
REMARK  2 active torsions:
REMARK  status: ('A' for Active; 'I' for Inactive)
REMARK    1  A    between atoms: C_2  and  C_4
REMARK    2  A    between atoms: C_7  and  C_8
REMARK                            x       y       z     vdW  Elec       q    Type
REMARK                         _______ _______ _______ _____ _____    ______ ____
ROOT
ATOM      1  C   UNL     1      31.941  20.121  13.185  0.00  0.00    +0.247 C 
ATOM      2  O   UNL     1      32.076  18.898  13.181  0.00  0.00    -0.270 OA
ATOM      3  N   UNL     1      32.504  20.958  12.213  0.00  0.00    -0.297 N 
ATOM      4  C   UNL     1      32.406  22.419  12.188  0.00  0.00    +0.108 C 
ATOM      5  C   UNL     1      32.254  22.989  10.782  0.00  0.00    +0.026 C 
ATOM      6  C   UNL     1      33.299  22.452   9.781  0.00  0.00    -0.025 C 
ATOM      7  C   UNL     1      32.885  22.943   8.371  0.00  0.00    +0.017 C 
ATOM      8  C   UNL     1      33.827  22.538   7.245  0.00  0.00    +0.069 C 
ATOM      9  S   UNL     1      35.506  23.182   7.484  0.00  0.00    -0.161 S 
ATOM     10  C   UNL     1      35.811  22.599   9.174  0.00  0.00    +0.069 C 
ATOM     11  C   UNL     1      34.700  23.017  10.130  0.00  0.00    +0.017 C 
ATOM     12  C   UNL     1      33.247  20.903   9.855  0.00  0.00    +0.026 C 
ATOM     13  C   UNL     1      33.450  20.365  11.271  0.00  0.00    +0.108 C 
ENDROOT
BRANCH   1  17
ATOM     14  C   UNL     1      29.445  22.033  16.073  0.00  0.00    +0.037 A 
ATOM     15  C   UNL     1      30.822  21.955  16.304  0.00  0.00    +0.014 A 
ATOM     16  C   UNL     1      31.633  21.247  15.416  0.00  0.00    +0.014 A 
ATOM     17  C   UNL     1      31.086  20.703  14.249  0.00  0.00    +0.037 A 
ATOM     18  C   UNL     1      29.697  20.705  14.065  0.00  0.00    +0.014 A 
ATOM     19  C   UNL     1      28.875  21.362  14.984  0.00  0.00    +0.014 A 
BRANCH  14  21
ATOM     20  N   UNL     1      27.224  22.559  16.910  0.00  0.00    -0.325 N 
ATOM     21  C   UNL     1      28.564  22.822  16.970  0.00  0.00    +0.242 C 
ATOM     22  O   UNL     1      29.018  23.631  17.765  0.00  0.00    -0.270 OA
ATOM     23  H   UNL     1      26.650  23.012  17.609  0.00  0.00    +0.145 HD
ATOM     24  H   UNL     1      26.855  21.729  16.468  0.00  0.00    +0.145 HD
ENDBRANCH  14  21
ENDBRANCH   1  17
TORSDOF 2
ENDMDL
MODEL 4
REMARK VINA RESULT:      -6.9      4.453      7.238
REMARK  Name = ZINC000870248439
REMARK  2 active torsions:
REMARK  status: ('A' for Active; 'I' for Inactive)
REMARK    1  A    between atoms: C_2  and  C_4
REMARK    2  A    between atoms: C_7  and  C_8
REMARK                            x       y       z     vdW  Elec       q    Type
REMARK                         _______ _______ _______ _____ _____    ______ ____
ROOT
ATOM      1  C   UNL     1      30.185  20.946  14.485  0.00  0.00    +0.247 C 
ATOM      2  O   UNL     1      29.097  21.317  14.045  0.00  0.00    -0.270 OA
ATOM      3  N   UNL     1      30.867  21.617  15.509  0.00  0.00    -0.297 N 
ATOM      4  C   UNL     1      32.177  21.242  16.047  0.00  0.00    +0.108 C 
ATOM      5  C   UNL     1      32.292  21.449  17.552  0.00  0.00    +0.026 C 
ATOM      6  C   UNL     1      31.841  22.849  18.022  0.00  0.00    -0.025 C 
ATOM      7  C   UNL     1      31.806  22.829  19.571  0.00  0.00    +0.017 C 
ATOM      8  C   UNL     1      31.414  24.148  20.223  0.00  0.00    +0.069 C 
ATOM      9  S   UNL     1      32.558  25.492  19.803  0.00  0.00    -0.161 S 
ATOM     10  C   UNL     1      32.550  25.338  17.996  0.00  0.00    +0.069 C 
ATOM     11  C   UNL     1      32.861  23.915  17.545  0.00  0.00    +0.017 C 
ATOM     12  C   UNL     1      30.420  23.086  17.448  0.00  0.00    +0.026 C 
ATOM     13  C   UNL     1      30.352  22.917  15.930  0.00  0.00    +0.108 C 
ENDROOT
BRANCH   1  17
ATOM     14  C   UNL     1      31.951  17.300  13.136  0.00  0.00    +0.037 A 
ATOM     15  C   UNL     1      32.419  18.517  12.628  0.00  0.00    +0.014 A 
ATOM     16  C   UNL     1      31.785  19.706  12.988  0.00  0.00    +0.014 A 
ATOM     17  C   UNL     1      30.749  19.692  13.927  0.00  0.00    +0.037 A 
ATOM     18  C   UNL     1      30.223  18.469  14.364  0.00  0.00    +0.014 A 
ATOM     19  C   UNL     1      30.818  17.272  13.959  0.00  0.00    +0.014 A 
BRANCH  14  21
ATOM     20  N   UNL     1      32.830  15.148  13.845  0.00  0.00    -0.325 N 
ATOM     21  C   UNL     1      32.636  16.024  12.814  0.00  0.00    +0.242 C 
ATOM     22  O   UNL     1      32.965  15.743  11.671  0.00  0.00    -0.270 OA
ATOM     23  H   UNL     1      33.185  14.235  13.593  0.00  0.00    +0.145 HD
ATOM     24  H   UNL     1      32.342  15.233  14.726  0.00  0.00    +0.145 HD
ENDBRANCH  14  21
ENDBRANCH   1  17
TORSDOF 2
ENDMDL
MODEL 5
REMARK VINA RESULT:      -6.9      5.432      7.252
REMARK  Name = ZINC000870248439
REMARK  2 active torsions:
REMARK  status: ('A' for Active; 'I' for Inactive)
REMARK    1  A    between atoms: C_2  and  C_4
REMARK    2  A    between atoms: C_7  and  C_8
REMARK                            x       y       z     vdW  Elec       q    Type
REMARK                         _______ _______ _______ _____ _____    ______ ____
ROOT
ATOM      1  C   UNL     1      31.243  23.501  19.579  0.00  0.00    +0.247 C 
ATOM      2  O   UNL     1      31.014  22.795  20.561  0.00  0.00    -0.270 OA
ATOM      3  N   UNL     1      32.023  24.664  19.635  0.00  0.00    -0.297 N 
ATOM      4  C   UNL     1      32.299  25.559  18.509  0.00  0.00    +0.108 C 
ATOM      5  C   UNL     1      33.716  26.120  18.518  0.00  0.00    +0.026 C 
ATOM      6  C   UNL     1      34.130  26.734  19.873  0.00  0.00    -0.025 C 
ATOM      7  C   UNL     1      35.644  27.054  19.794  0.00  0.00    +0.017 C 
ATOM      8  C   UNL     1      36.231  27.706  21.038  0.00  0.00    +0.069 C 
ATOM      9  S   UNL     1      35.442  29.293  21.424  0.00  0.00    -0.161 S 
ATOM     10  C   UNL     1      33.705  28.775  21.407  0.00  0.00    +0.069 C 
ATOM     11  C   UNL     1      33.340  28.045  20.119  0.00  0.00    +0.017 C 
ATOM     12  C   UNL     1      33.857  25.662  20.961  0.00  0.00    +0.026 C 
ATOM     13  C   UNL     1      32.414  25.156  20.954  0.00  0.00    +0.108 C 
ENDROOT
BRANCH   1  17
ATOM     14  C   UNL     1      29.836  22.404  15.701  0.00  0.00    +0.037 A 
ATOM     15  C   UNL     1      28.953  23.005  16.605  0.00  0.00    +0.014 A 
ATOM     16  C   UNL     1      29.375  23.278  17.906  0.00  0.00    +0.014 A 
ATOM     17  C   UNL     1      30.704  23.042  18.275  0.00  0.00    +0.037 A 
ATOM     18  C   UNL     1      31.559  22.360  17.400  0.00  0.00    +0.014 A 
ATOM     19  C   UNL     1      31.120  22.031  16.115  0.00  0.00    +0.014 A 
BRANCH  14  21
ATOM     20  N   UNL     1      29.672  23.148  13.392  0.00  0.00    -0.325 N 
ATOM     21  C   UNL     1      29.433  22.149  14.295  0.00  0.00    +0.242 C 
ATOM     22  O   UNL     1      28.960  21.078  13.947  0.00  0.00    -0.270 OA
ATOM     23  H   UNL     1      29.508  22.917  12.421  0.00  0.00    +0.145 HD
ATOM     24  H   UNL     1      30.290  23.921  13.592  0.00  0.00    +0.145 HD
ENDBRANCH  14  21
ENDBRANCH   1  17
TORSDOF 2
ENDMDL
MODEL 6
REMARK VINA RESULT:      -6.6      4.794      7.312
REMARK  Name = ZINC000870248439
REMARK  2 active torsions:
REMARK  status: ('A' for Active; 'I' for Inactive)
REMARK    1  A    between atoms: C_2  and  C_4
REMARK    2  A    between atoms: C_7  and  C_8
REMARK                            x       y       z     vdW  Elec       q    Type
REMARK                         _______ _______ _______ _____ _____    ______ ____
ROOT
ATOM      1  C   UNL     1      29.662  22.796  16.900  0.00  0.00    +0.247 C 
ATOM      2  O   UNL     1      28.467  23.070  17.012  0.00  0.00    -0.270 OA
ATOM      3  N   UNL     1      30.654  23.334  17.730  0.00  0.00    -0.297 N 
ATOM      4  C   UNL     1      32.091  23.072  17.621  0.00  0.00    +0.108 C 
ATOM      5  C   UNL     1      32.789  22.967  18.971  0.00  0.00    +0.026 C 
ATOM      6  C   UNL     1      32.476  24.142  19.922  0.00  0.00    -0.025 C 
ATOM      7  C   UNL     1      33.070  23.787  21.309  0.00  0.00    +0.017 C 
ATOM      8  C   UNL     1      32.890  24.854  22.380  0.00  0.00    +0.069 C 
ATOM      9  S   UNL     1      33.678  26.424  21.928  0.00  0.00    -0.161 S 
ATOM     10  C   UNL     1      32.952  26.661  20.283  0.00  0.00    +0.069 C 
ATOM     11  C   UNL     1      33.146  25.437  19.394  0.00  0.00    +0.017 C 
ATOM     12  C   UNL     1      30.932  24.262  20.006  0.00  0.00    +0.026 C 
ATOM     13  C   UNL     1      30.269  24.413  18.637  0.00  0.00    +0.108 C 
ENDROOT
BRANCH   1  17
ATOM     14  C   UNL     1      30.566  19.729  14.070  0.00  0.00    +0.037 A 
ATOM     15  C   UNL     1      31.549  20.133  14.979  0.00  0.00    +0.014 A 
ATOM     16  C   UNL     1      31.297  21.200  15.842  0.00  0.00    +0.014 A 
ATOM     17  C   UNL     1      30.033  21.799  15.865  0.00  0.00    +0.037 A 
ATOM     18  C   UNL     1      29.082  21.455  14.896  0.00  0.00    +0.014 A 
ATOM     19  C   UNL     1      29.353  20.426  13.990  0.00  0.00    +0.014 A 
BRANCH  14  21
ATOM     20  N   UNL     1      31.548  18.775  12.062  0.00  0.00    -0.325 N 
ATOM     21  C   UNL     1      30.784  18.565  13.176  0.00  0.00    +0.242 C 
ATOM     22  O   UNL     1      30.349  17.457  13.448  0.00  0.00    -0.270 OA
ATOM     23  H   UNL     1      31.792  17.951  11.527  0.00  0.00    +0.145 HD
ATOM     24  H   UNL     1      32.131  19.593  11.951  0.00  0.00    +0.145 HD
ENDBRANCH  14  21
ENDBRANCH   1  17
TORSDOF 2
ENDMDL
MODEL 7
REMARK VINA RESULT:      -6.5      3.559      4.964
REMARK  Name = ZINC000870248439
REMARK  2 active torsions:
REMARK  status: ('A' for Active; 'I' for Inactive)
REMARK    1  A    between atoms: C_2  and  C_4
REMARK    2  A    between atoms: C_7  and  C_8
REMARK                            x       y       z     vdW  Elec       q    Type
REMARK                         _______ _______ _______ _____ _____    ______ ____
ROOT
ATOM      1  C   UNL     1      31.602  22.262  14.952  0.00  0.00    +0.247 C 
ATOM      2  O   UNL     1      32.011  23.261  14.362  0.00  0.00    -0.270 OA
ATOM      3  N   UNL     1      32.337  21.073  15.049  0.00  0.00    -0.297 N 
ATOM      4  C   UNL     1      31.886  19.844  15.706  0.00  0.00    +0.108 C 
ATOM      5  C   UNL     1      32.999  19.115  16.449  0.00  0.00    +0.026 C 
ATOM      6  C   UNL     1      34.270  18.896  15.601  0.00  0.00    -0.025 C 
ATOM      7  C   UNL     1      35.370  18.352  16.546  0.00  0.00    +0.017 C 
ATOM      8  C   UNL     1      36.700  18.038  15.874  0.00  0.00    +0.069 C 
ATOM      9  S   UNL     1      36.538  16.778  14.579  0.00  0.00    -0.161 S 
ATOM     10  C   UNL     1      35.188  17.512  13.616  0.00  0.00    +0.069 C 
ATOM     11  C   UNL     1      33.986  17.853  14.489  0.00  0.00    +0.017 C 
ATOM     12  C   UNL     1      34.679  20.279  15.029  0.00  0.00    +0.026 C 
ATOM     13  C   UNL     1      33.554  20.960  14.250  0.00  0.00    +0.108 C 
ENDROOT
BRANCH   1  17
ATOM     14  C   UNL     1      27.918  22.370  17.107  0.00  0.00    +0.037 A 
ATOM     15  C   UNL     1      27.964  21.731  15.863  0.00  0.00    +0.014 A 
ATOM     16  C   UNL     1      29.136  21.774  15.108  0.00  0.00    +0.014 A 
ATOM     17  C   UNL     1      30.288  22.370  15.634  0.00  0.00    +0.037 A 
ATOM     18  C   UNL     1      30.214  23.085  16.835  0.00  0.00    +0.014 A 
ATOM     19  C   UNL     1      29.024  23.094  17.568  0.00  0.00    +0.014 A 
BRANCH  14  21
ATOM     20  N   UNL     1      25.530  21.978  17.334  0.00  0.00    -0.325 N 
ATOM     21  C   UNL     1      26.703  22.297  17.957  0.00  0.00    +0.242 C 
ATOM     22  O   UNL     1      26.757  22.462  19.167  0.00  0.00    -0.270 OA
ATOM     23  H   UNL     1      24.736  21.811  17.939  0.00  0.00    +0.145 HD
ATOM     24  H   UNL     1      25.500  21.583  16.404  0.00  0.00    +0.145 HD
ENDBRANCH  14  21
ENDBRANCH   1  17
TORSDOF 2
ENDMDL
MODEL 8
REMARK VINA RESULT:      -6.5      3.854      5.138
REMARK  Name = ZINC000870248439
REMARK  2 active torsions:
REMARK  status: ('A' for Active; 'I' for Inactive)
REMARK    1  A    between atoms: C_2  and  C_4
REMARK    2  A    between atoms: C_7  and  C_8
REMARK                            x       y       z     vdW  Elec       q    Type
REMARK                         _______ _______ _______ _____ _____    ______ ____
ROOT
ATOM      1  C   UNL     1      30.765  21.895  14.320  0.00  0.00    +0.247 C 
ATOM      2  O   UNL     1      30.715  22.613  13.322  0.00  0.00    -0.270 OA
ATOM      3  N   UNL     1      31.355  20.624  14.324  0.00  0.00    -0.297 N 
ATOM      4  C   UNL     1      31.412  19.715  15.470  0.00  0.00    +0.108 C 
ATOM      5  C   UNL     1      32.721  18.940  15.561  0.00  0.00    +0.026 C 
ATOM      6  C   UNL     1      33.123  18.248  14.240  0.00  0.00    -0.025 C 
ATOM      7  C   UNL     1      34.560  17.697  14.424  0.00  0.00    +0.017 C 
ATOM      8  C   UNL     1      35.119  16.943  13.226  0.00  0.00    +0.069 C 
ATOM      9  S   UNL     1      34.119  15.492  12.796  0.00  0.00    -0.161 S 
ATOM     10  C   UNL     1      32.487  16.274  12.691  0.00  0.00    +0.069 C 
ATOM     11  C   UNL     1      32.156  17.072  13.948  0.00  0.00    +0.017 C 
ATOM     12  C   UNL     1      33.095  19.332  13.131  0.00  0.00    +0.026 C 
ATOM     13  C   UNL     1      31.752  20.056  13.038  0.00  0.00    +0.108 C 
ENDROOT
BRANCH   1  17
ATOM     14  C   UNL     1      29.318  23.274  18.093  0.00  0.00    +0.037 A 
ATOM     15  C   UNL     1      28.424  22.690  17.189  0.00  0.00    +0.014 A 
ATOM     16  C   UNL     1      28.866  22.326  15.917  0.00  0.00    +0.014 A 
ATOM     17  C   UNL     1      30.219  22.453  15.582  0.00  0.00    +0.037 A 
ATOM     18  C   UNL     1      31.091  23.119  16.453  0.00  0.00    +0.014 A 
ATOM     19  C   UNL     1      30.637  23.540  17.706  0.00  0.00    +0.014 A 
BRANCH  14  21
ATOM     20  N   UNL     1      27.546  23.722  19.696  0.00  0.00    -0.325 N 
ATOM     21  C   UNL     1      28.891  23.624  19.471  0.00  0.00    +0.242 C 
ATOM     22  O   UNL     1      29.699  23.765  20.377  0.00  0.00    -0.270 OA
ATOM     23  H   UNL     1      27.264  23.839  20.661  0.00  0.00    +0.145 HD
ATOM     24  H   UNL     1      26.861  23.358  19.049  0.00  0.00    +0.145 HD
ENDBRANCH  14  21
ENDBRANCH   1  17
TORSDOF 2
ENDMDL
MODEL 9
REMARK VINA RESULT:      -6.4      6.517      8.870
REMARK  Name = ZINC000870248439
REMARK  2 active torsions:
REMARK  status: ('A' for Active; 'I' for Inactive)
REMARK    1  A    between atoms: C_2  and  C_4
REMARK    2  A    between atoms: C_7  and  C_8
REMARK                            x       y       z     vdW  Elec       q    Type
REMARK                         _______ _______ _______ _____ _____    ______ ____
ROOT
ATOM      1  C   UNL     1      32.167  25.319  19.166  0.00  0.00    +0.247 C 
ATOM      2  O   UNL     1      32.452  26.327  18.520  0.00  0.00    -0.270 OA
ATOM      3  N   UNL     1      32.713  25.034  20.424  0.00  0.00    -0.297 N 
ATOM      4  C   UNL     1      32.438  23.835  21.220  0.00  0.00    +0.108 C 
ATOM      5  C   UNL     1      32.354  24.112  22.716  0.00  0.00    +0.026 C 
ATOM      6  C   UNL     1      33.549  24.921  23.265  0.00  0.00    -0.025 C 
ATOM      7  C   UNL     1      33.215  25.307  24.728  0.00  0.00    +0.017 C 
ATOM      8  C   UNL     1      34.303  26.086  25.453  0.00  0.00    +0.069 C 
ATOM      9  S   UNL     1      35.858  25.159  25.563  0.00  0.00    -0.161 S 
ATOM     10  C   UNL     1      36.070  24.722  23.816  0.00  0.00    +0.069 C 
ATOM     11  C   UNL     1      34.829  24.046  23.244  0.00  0.00    +0.017 C 
ATOM     12  C   UNL     1      33.681  26.191  22.384  0.00  0.00    +0.026 C 
ATOM     13  C   UNL     1      33.812  25.874  20.894  0.00  0.00    +0.108 C 
ENDROOT
BRANCH   1  17
ATOM     14  C   UNL     1      29.205  22.895  17.273  0.00  0.00    +0.037 A 
ATOM     15  C   UNL     1      28.867  23.615  18.425  0.00  0.00    +0.014 A 
ATOM     16  C   UNL     1      29.852  24.332  19.106  0.00  0.00    +0.014 A 
ATOM     17  C   UNL     1      31.148  24.410  18.585  0.00  0.00    +0.037 A 
ATOM     18  C   UNL     1      31.506  23.619  17.486  0.00  0.00    +0.014 A 
ATOM     19  C   UNL     1      30.535  22.852  16.836  0.00  0.00    +0.014 A 
BRANCH  14  21
ATOM     20  N   UNL     1      26.894  22.199  16.985  0.00  0.00    -0.325 N 
ATOM     21  C   UNL     1      28.171  22.166  16.498  0.00  0.00    +0.242 C 
ATOM     22  O   UNL     1      28.435  21.607  15.444  0.00  0.00    -0.270 OA
ATOM     23  H   UNL     1      26.179  21.805  16.387  0.00  0.00    +0.145 HD
ATOM     24  H   UNL     1      26.601  22.860  17.692  0.00  0.00    +0.145 HD
ENDBRANCH  14  21
ENDBRANCH   1  17
TORSDOF 2
ENDMDL
