MODEL 1
REMARK VINA RESULT:      -6.0      0.000      0.000
REMARK  Name = ZINC001228612316
REMARK  5 active torsions:
REMARK  status: ('A' for Active; 'I' for Inactive)
REMARK    1  A    between atoms: C_2  and  C_4
REMARK    2  A    between atoms: C_8  and  O_9
REMARK    3  A    between atoms: O_9  and  C_10
REMARK    4  A    between atoms: C_10  and  C_11
REMARK    5  A    between atoms: C_10  and  C_17
REMARK                            x       y       z     vdW  Elec       q    Type
REMARK                         _______ _______ _______ _____ _____    ______ ____
ROOT
ATOM      1  C   UNL     1      34.900  24.848  17.269  0.00  0.00    +0.040 A 
ATOM      2  C   UNL     1      35.893  25.605  16.642  0.00  0.00    +0.013 A 
ATOM      3  C   UNL     1      36.343  25.235  15.372  0.00  0.00    +0.004 A 
ATOM      4  C   UNL     1      35.795  24.119  14.731  0.00  0.00    +0.046 A 
ATOM      5  C   UNL     1      34.796  23.364  15.352  0.00  0.00    +0.122 A 
ATOM      6  C   UNL     1      34.379  23.718  16.631  0.00  0.00    +0.058 A 
ENDROOT
BRANCH   1   8
ATOM      7  N   UNL     1      33.159  25.848  18.649  0.00  0.00    -0.325 N 
ATOM      8  C   UNL     1      34.349  25.181  18.607  0.00  0.00    +0.242 C 
ATOM      9  O   UNL     1      34.901  24.818  19.638  0.00  0.00    -0.270 OA
ATOM     10  H   UNL     1      32.737  25.932  19.567  0.00  0.00    +0.145 HD
ATOM     11  H   UNL     1      32.549  25.914  17.847  0.00  0.00    +0.145 HD
ENDBRANCH   1   8
BRANCH   5  12
ATOM     12  O   UNL     1      34.318  22.299  14.640  0.00  0.00    -0.484 OA
BRANCH  12  13
ATOM     13  C   UNL     1      32.932  22.323  14.249  0.00  0.00    +0.208 C 
BRANCH  13  14
ATOM     14  C   UNL     1      32.823  22.928  12.865  0.00  0.00    +0.011 A 
ATOM     15  C   UNL     1      31.854  23.905  12.599  0.00  0.00    +0.010 A 
ATOM     16  C   UNL     1      31.747  24.455  11.328  0.00  0.00    +0.020 A 
ATOM     17  C   UNL     1      32.622  24.011  10.353  0.00  0.00    +0.111 A 
ATOM     18  N   UNL     1      33.567  23.070  10.562  0.00  0.00    -0.263 NA
ATOM     19  C   UNL     1      33.644  22.548  11.811  0.00  0.00    +0.118 A 
ENDBRANCH  13  14
BRANCH  13  20
ATOM     20  C   UNL     1      32.380  20.915  14.254  0.00  0.00    +0.034 C 
ATOM     21  C   UNL     1      31.034  20.578  13.648  0.00  0.00    +0.008 C 
ATOM     22  C   UNL     1      31.202  20.548  15.136  0.00  0.00    +0.008 C 
ENDBRANCH  13  20
ENDBRANCH  12  13
ENDBRANCH   5  12
TORSDOF 5
ENDMDL
MODEL 2
REMARK VINA RESULT:      -6.0      3.948      6.127
REMARK  Name = ZINC001228612316
REMARK  5 active torsions:
REMARK  status: ('A' for Active; 'I' for Inactive)
REMARK    1  A    between atoms: C_2  and  C_4
REMARK    2  A    between atoms: C_8  and  O_9
REMARK    3  A    between atoms: O_9  and  C_10
REMARK    4  A    between atoms: C_10  and  C_11
REMARK    5  A    between atoms: C_10  and  C_17
REMARK                            x       y       z     vdW  Elec       q    Type
REMARK                         _______ _______ _______ _____ _____    ______ ____
ROOT
ATOM      1  C   UNL     1      33.244  23.593  10.409  0.00  0.00    +0.040 A 
ATOM      2  C   UNL     1      32.173  24.457  10.648  0.00  0.00    +0.013 A 
ATOM      3  C   UNL     1      31.465  24.361  11.849  0.00  0.00    +0.004 A 
ATOM      4  C   UNL     1      31.835  23.412  12.807  0.00  0.00    +0.046 A 
ATOM      5  C   UNL     1      32.912  22.553  12.575  0.00  0.00    +0.122 A 
ATOM      6  C   UNL     1      33.588  22.630  11.362  0.00  0.00    +0.058 A 
ENDROOT
BRANCH   1   8
ATOM      7  N   UNL     1      34.407  24.869   8.688  0.00  0.00    -0.325 N 
ATOM      8  C   UNL     1      34.063  23.639   9.171  0.00  0.00    +0.242 C 
ATOM      9  O   UNL     1      34.474  22.617   8.634  0.00  0.00    -0.270 OA
ATOM     10  H   UNL     1      35.082  24.869   7.933  0.00  0.00    +0.145 HD
ATOM     11  H   UNL     1      34.328  25.707   9.245  0.00  0.00    +0.145 HD
ENDBRANCH   1   8
BRANCH   5  12
ATOM     12  O   UNL     1      33.201  21.668  13.577  0.00  0.00    -0.484 OA
BRANCH  12  13
ATOM     13  C   UNL     1      32.196  20.699  13.925  0.00  0.00    +0.208 C 
BRANCH  13  14
ATOM     14  C   UNL     1      32.693  19.319  13.549  0.00  0.00    +0.011 A 
ATOM     15  C   UNL     1      32.175  18.185  14.189  0.00  0.00    +0.010 A 
ATOM     16  C   UNL     1      32.635  16.919  13.849  0.00  0.00    +0.020 A 
ATOM     17  C   UNL     1      33.607  16.823  12.870  0.00  0.00    +0.111 A 
ATOM     18  N   UNL     1      34.139  17.887  12.230  0.00  0.00    -0.263 NA
ATOM     19  C   UNL     1      33.673  19.109  12.585  0.00  0.00    +0.118 A 
ENDBRANCH  13  14
BRANCH  13  20
ATOM     20  C   UNL     1      31.914  20.770  15.410  0.00  0.00    +0.034 C 
ATOM     21  C   UNL     1      30.510  20.926  15.956  0.00  0.00    +0.008 C 
ATOM     22  C   UNL     1      31.472  22.070  16.053  0.00  0.00    +0.008 C 
ENDBRANCH  13  20
ENDBRANCH  12  13
ENDBRANCH   5  12
TORSDOF 5
ENDMDL
MODEL 3
REMARK VINA RESULT:      -5.8      3.372      6.306
REMARK  Name = ZINC001228612316
REMARK  5 active torsions:
REMARK  status: ('A' for Active; 'I' for Inactive)
REMARK    1  A    between atoms: C_2  and  C_4
REMARK    2  A    between atoms: C_8  and  O_9
REMARK    3  A    between atoms: O_9  and  C_10
REMARK    4  A    between atoms: C_10  and  C_11
REMARK    5  A    between atoms: C_10  and  C_17
REMARK                            x       y       z     vdW  Elec       q    Type
REMARK                         _______ _______ _______ _____ _____    ______ ____
ROOT
ATOM      1  C   UNL     1      32.822  23.729  10.163  0.00  0.00    +0.040 A 
ATOM      2  C   UNL     1      31.797  24.476  10.750  0.00  0.00    +0.013 A 
ATOM      3  C   UNL     1      31.574  24.379  12.126  0.00  0.00    +0.004 A 
ATOM      4  C   UNL     1      32.379  23.546  12.910  0.00  0.00    +0.046 A 
ATOM      5  C   UNL     1      33.410  22.805  12.328  0.00  0.00    +0.122 A 
ATOM      6  C   UNL     1      33.603  22.879  10.952  0.00  0.00    +0.058 A 
ENDROOT
BRANCH   1   8
ATOM      7  N   UNL     1      34.391  24.210   8.362  0.00  0.00    -0.325 N 
ATOM      8  C   UNL     1      33.142  23.787   8.715  0.00  0.00    +0.242 C 
ATOM      9  O   UNL     1      32.344  23.410   7.864  0.00  0.00    -0.270 OA
ATOM     10  H   UNL     1      34.629  24.101   7.383  0.00  0.00    +0.145 HD
ATOM     11  H   UNL     1      35.150  24.259   9.025  0.00  0.00    +0.145 HD
ENDBRANCH   1   8
BRANCH   5  12
ATOM     12  O   UNL     1      34.147  22.029  13.180  0.00  0.00    -0.484 OA
BRANCH  12  13
ATOM     13  C   UNL     1      33.458  21.398  14.275  0.00  0.00    +0.208 C 
BRANCH  13  14
ATOM     14  C   UNL     1      33.385  19.908  14.017  0.00  0.00    +0.011 A 
ATOM     15  C   UNL     1      32.183  19.217  14.219  0.00  0.00    +0.010 A 
ATOM     16  C   UNL     1      32.116  17.848  13.988  0.00  0.00    +0.020 A 
ATOM     17  C   UNL     1      33.263  17.206  13.557  0.00  0.00    +0.111 A 
ATOM     18  N   UNL     1      34.444  17.830  13.354  0.00  0.00    -0.263 NA
ATOM     19  C   UNL     1      34.479  19.164  13.591  0.00  0.00    +0.118 A 
ENDBRANCH  13  14
BRANCH  13  20
ATOM     20  C   UNL     1      34.198  21.673  15.566  0.00  0.00    +0.034 C 
ATOM     21  C   UNL     1      33.719  21.135  16.898  0.00  0.00    +0.008 C 
ATOM     22  C   UNL     1      33.612  22.601  16.612  0.00  0.00    +0.008 C 
ENDBRANCH  13  20
ENDBRANCH  12  13
ENDBRANCH   5  12
TORSDOF 5
ENDMDL
MODEL 4
REMARK VINA RESULT:      -5.6      4.866      6.699
REMARK  Name = ZINC001228612316
REMARK  5 active torsions:
REMARK  status: ('A' for Active; 'I' for Inactive)
REMARK    1  A    between atoms: C_2  and  C_4
REMARK    2  A    between atoms: C_8  and  O_9
REMARK    3  A    between atoms: O_9  and  C_10
REMARK    4  A    between atoms: C_10  and  C_11
REMARK    5  A    between atoms: C_10  and  C_17
REMARK                            x       y       z     vdW  Elec       q    Type
REMARK                         _______ _______ _______ _____ _____    ______ ____
ROOT
ATOM      1  C   UNL     1      32.188  20.063  14.920  0.00  0.00    +0.040 A 
ATOM      2  C   UNL     1      33.176  20.211  15.896  0.00  0.00    +0.013 A 
ATOM      3  C   UNL     1      33.953  19.108  16.263  0.00  0.00    +0.004 A 
ATOM      4  C   UNL     1      33.747  17.869  15.648  0.00  0.00    +0.046 A 
ATOM      5  C   UNL     1      32.765  17.720  14.665  0.00  0.00    +0.122 A 
ATOM      6  C   UNL     1      31.972  18.813  14.331  0.00  0.00    +0.058 A 
ENDROOT
BRANCH   1   8
ATOM      7  N   UNL     1      31.130  22.222  15.318  0.00  0.00    -0.325 N 
ATOM      8  C   UNL     1      31.332  21.183  14.455  0.00  0.00    +0.242 C 
ATOM      9  O   UNL     1      30.874  21.215  13.319  0.00  0.00    -0.270 OA
ATOM     10  H   UNL     1      30.668  23.033  14.925  0.00  0.00    +0.145 HD
ATOM     11  H   UNL     1      31.706  22.362  16.136  0.00  0.00    +0.145 HD
ENDBRANCH   1   8
BRANCH   5  12
ATOM     12  O   UNL     1      32.649  16.472  14.117  0.00  0.00    -0.484 OA
BRANCH  12  13
ATOM     13  C   UNL     1      32.689  16.366  12.682  0.00  0.00    +0.208 C 
BRANCH  13  14
ATOM     14  C   UNL     1      34.099  16.651  12.207  0.00  0.00    +0.011 A 
ATOM     15  C   UNL     1      34.335  17.674  11.278  0.00  0.00    +0.010 A 
ATOM     16  C   UNL     1      35.626  17.932  10.837  0.00  0.00    +0.020 A 
ATOM     17  C   UNL     1      36.653  17.156  11.344  0.00  0.00    +0.111 A 
ATOM     18  N   UNL     1      36.473  16.159  12.236  0.00  0.00    -0.263 NA
ATOM     19  C   UNL     1      35.201  15.927  12.645  0.00  0.00    +0.118 A 
ENDBRANCH  13  14
BRANCH  13  20
ATOM     20  C   UNL     1      32.265  14.975  12.264  0.00  0.00    +0.034 C 
ATOM     21  C   UNL     1      32.441  14.472  10.847  0.00  0.00    +0.008 C 
ATOM     22  C   UNL     1      31.066  14.770  11.360  0.00  0.00    +0.008 C 
ENDBRANCH  13  20
ENDBRANCH  12  13
ENDBRANCH   5  12
TORSDOF 5
ENDMDL
MODEL 5
REMARK VINA RESULT:      -5.6      3.480      7.431
REMARK  Name = ZINC001228612316
REMARK  5 active torsions:
REMARK  status: ('A' for Active; 'I' for Inactive)
REMARK    1  A    between atoms: C_2  and  C_4
REMARK    2  A    between atoms: C_8  and  O_9
REMARK    3  A    between atoms: O_9  and  C_10
REMARK    4  A    between atoms: C_10  and  C_11
REMARK    5  A    between atoms: C_10  and  C_17
REMARK                            x       y       z     vdW  Elec       q    Type
REMARK                         _______ _______ _______ _____ _____    ______ ____
ROOT
ATOM      1  C   UNL     1      34.613  20.910   8.305  0.00  0.00    +0.040 A 
ATOM      2  C   UNL     1      34.470  19.521   8.338  0.00  0.00    +0.013 A 
ATOM      3  C   UNL     1      34.188  18.886   9.551  0.00  0.00    +0.004 A 
ATOM      4  C   UNL     1      34.042  19.639  10.720  0.00  0.00    +0.046 A 
ATOM      5  C   UNL     1      34.175  21.029  10.689  0.00  0.00    +0.122 A 
ATOM      6  C   UNL     1      34.491  21.651   9.485  0.00  0.00    +0.058 A 
ENDROOT
BRANCH   1   8
ATOM      7  N   UNL     1      34.658  21.035   5.872  0.00  0.00    -0.325 N 
ATOM      8  C   UNL     1      34.891  21.668   7.059  0.00  0.00    +0.242 C 
ATOM      9  O   UNL     1      35.253  22.838   7.085  0.00  0.00    -0.270 OA
ATOM     10  H   UNL     1      34.716  21.619   5.046  0.00  0.00    +0.145 HD
ATOM     11  H   UNL     1      34.107  20.192   5.810  0.00  0.00    +0.145 HD
ENDBRANCH   1   8
BRANCH   5  12
ATOM     12  O   UNL     1      34.003  21.676  11.882  0.00  0.00    -0.484 OA
BRANCH  12  13
ATOM     13  C   UNL     1      32.689  22.176  12.188  0.00  0.00    +0.208 C 
BRANCH  13  14
ATOM     14  C   UNL     1      32.343  21.807  13.615  0.00  0.00    +0.011 A 
ATOM     15  C   UNL     1      31.247  20.975  13.881  0.00  0.00    +0.010 A 
ATOM     16  C   UNL     1      30.925  20.641  15.190  0.00  0.00    +0.020 A 
ATOM     17  C   UNL     1      31.715  21.151  16.204  0.00  0.00    +0.111 A 
ATOM     18  N   UNL     1      32.777  21.959  15.996  0.00  0.00    -0.263 NA
ATOM     19  C   UNL     1      33.065  22.271  14.708  0.00  0.00    +0.118 A 
ENDBRANCH  13  14
BRANCH  13  20
ATOM     20  C   UNL     1      32.664  23.678  12.012  0.00  0.00    +0.034 C 
ATOM     21  C   UNL     1      31.375  24.473  12.058  0.00  0.00    +0.008 C 
ATOM     22  C   UNL     1      32.091  24.302  10.754  0.00  0.00    +0.008 C 
ENDBRANCH  13  20
ENDBRANCH  12  13
ENDBRANCH   5  12
TORSDOF 5
ENDMDL
MODEL 6
REMARK VINA RESULT:      -5.5      2.378      6.164
REMARK  Name = ZINC001228612316
REMARK  5 active torsions:
REMARK  status: ('A' for Active; 'I' for Inactive)
REMARK    1  A    between atoms: C_2  and  C_4
REMARK    2  A    between atoms: C_8  and  O_9
REMARK    3  A    between atoms: O_9  and  C_10
REMARK    4  A    between atoms: C_10  and  C_11
REMARK    5  A    between atoms: C_10  and  C_17
REMARK                            x       y       z     vdW  Elec       q    Type
REMARK                         _______ _______ _______ _____ _____    ______ ____
ROOT
ATOM      1  C   UNL     1      33.622  23.006  10.747  0.00  0.00    +0.040 A 
ATOM      2  C   UNL     1      32.733  23.986  10.297  0.00  0.00    +0.013 A 
ATOM      3  C   UNL     1      31.765  24.491  11.169  0.00  0.00    +0.004 A 
ATOM      4  C   UNL     1      31.696  24.025  12.486  0.00  0.00    +0.046 A 
ATOM      5  C   UNL     1      32.589  23.052  12.941  0.00  0.00    +0.122 A 
ATOM      6  C   UNL     1      33.525  22.528  12.057  0.00  0.00    +0.058 A 
ENDROOT
BRANCH   1   8
ATOM      7  N   UNL     1      35.801  21.939  10.523  0.00  0.00    -0.325 N 
ATOM      8  C   UNL     1      34.693  22.430   9.895  0.00  0.00    +0.242 C 
ATOM      9  O   UNL     1      34.567  22.334   8.680  0.00  0.00    -0.270 OA
ATOM     10  H   UNL     1      36.444  21.423   9.935  0.00  0.00    +0.145 HD
ATOM     11  H   UNL     1      35.818  21.748  11.514  0.00  0.00    +0.145 HD
ENDBRANCH   1   8
BRANCH   5  12
ATOM     12  O   UNL     1      32.446  22.670  14.247  0.00  0.00    -0.484 OA
BRANCH  12  13
ATOM     13  C   UNL     1      32.989  21.394  14.634  0.00  0.00    +0.208 C 
BRANCH  13  14
ATOM     14  C   UNL     1      33.798  21.569  15.902  0.00  0.00    +0.011 A 
ATOM     15  C   UNL     1      33.928  20.505  16.805  0.00  0.00    +0.010 A 
ATOM     16  C   UNL     1      34.664  20.666  17.972  0.00  0.00    +0.020 A 
ATOM     17  C   UNL     1      35.254  21.896  18.204  0.00  0.00    +0.111 A 
ATOM     18  N   UNL     1      35.152  22.949  17.365  0.00  0.00    -0.263 NA
ATOM     19  C   UNL     1      34.424  22.764  16.236  0.00  0.00    +0.118 A 
ENDBRANCH  13  14
BRANCH  13  20
ATOM     20  C   UNL     1      31.862  20.411  14.859  0.00  0.00    +0.034 C 
ATOM     21  C   UNL     1      31.904  18.999  14.312  0.00  0.00    +0.008 C 
ATOM     22  C   UNL     1      30.957  19.994  13.716  0.00  0.00    +0.008 C 
ENDBRANCH  13  20
ENDBRANCH  12  13
ENDBRANCH   5  12
TORSDOF 5
ENDMDL
MODEL 7
REMARK VINA RESULT:      -5.5      4.677      6.810
REMARK  Name = ZINC001228612316
REMARK  5 active torsions:
REMARK  status: ('A' for Active; 'I' for Inactive)
REMARK    1  A    between atoms: C_2  and  C_4
REMARK    2  A    between atoms: C_8  and  O_9
REMARK    3  A    between atoms: O_9  and  C_10
REMARK    4  A    between atoms: C_10  and  C_11
REMARK    5  A    between atoms: C_10  and  C_17
REMARK                            x       y       z     vdW  Elec       q    Type
REMARK                         _______ _______ _______ _____ _____    ______ ____
ROOT
ATOM      1  C   UNL     1      37.572  27.058   9.328  0.00  0.00    +0.040 A 
ATOM      2  C   UNL     1      38.517  26.030   9.319  0.00  0.00    +0.013 A 
ATOM      3  C   UNL     1      38.091  24.703   9.219  0.00  0.00    +0.004 A 
ATOM      4  C   UNL     1      36.727  24.410   9.118  0.00  0.00    +0.046 A 
ATOM      5  C   UNL     1      35.780  25.437   9.118  0.00  0.00    +0.122 A 
ATOM      6  C   UNL     1      36.210  26.753   9.255  0.00  0.00    +0.058 A 
ENDROOT
BRANCH   1   8
ATOM      7  N   UNL     1      36.920  29.406   9.395  0.00  0.00    -0.325 N 
ATOM      8  C   UNL     1      37.937  28.495   9.411  0.00  0.00    +0.242 C 
ATOM      9  O   UNL     1      39.099  28.856   9.553  0.00  0.00    -0.270 OA
ATOM     10  H   UNL     1      37.185  30.362   9.599  0.00  0.00    +0.145 HD
ATOM     11  H   UNL     1      35.959  29.142   9.559  0.00  0.00    +0.145 HD
ENDBRANCH   1   8
BRANCH   5  12
ATOM     12  O   UNL     1      34.473  25.049   9.004  0.00  0.00    -0.484 OA
BRANCH  12  13
ATOM     13  C   UNL     1      34.159  23.670   9.273  0.00  0.00    +0.208 C 
BRANCH  13  14
ATOM     14  C   UNL     1      33.381  23.587  10.570  0.00  0.00    +0.011 A 
ATOM     15  C   UNL     1      32.190  24.310  10.722  0.00  0.00    +0.010 A 
ATOM     16  C   UNL     1      31.478  24.241  11.912  0.00  0.00    +0.020 A 
ATOM     17  C   UNL     1      31.980  23.442  12.924  0.00  0.00    +0.111 A 
ATOM     18  N   UNL     1      33.125  22.733  12.824  0.00  0.00    -0.263 NA
ATOM     19  C   UNL     1      33.800  22.823  11.652  0.00  0.00    +0.118 A 
ENDBRANCH  13  14
BRANCH  13  20
ATOM     20  C   UNL     1      33.344  23.103   8.132  0.00  0.00    +0.034 C 
ATOM     21  C   UNL     1      33.186  21.612   7.919  0.00  0.00    +0.008 C 
ATOM     22  C   UNL     1      34.020  22.410   6.966  0.00  0.00    +0.008 C 
ENDBRANCH  13  20
ENDBRANCH  12  13
ENDBRANCH   5  12
TORSDOF 5
ENDMDL
MODEL 8
REMARK VINA RESULT:      -5.4      3.066      5.277
REMARK  Name = ZINC001228612316
REMARK  5 active torsions:
REMARK  status: ('A' for Active; 'I' for Inactive)
REMARK    1  A    between atoms: C_2  and  C_4
REMARK    2  A    between atoms: C_8  and  O_9
REMARK    3  A    between atoms: O_9  and  C_10
REMARK    4  A    between atoms: C_10  and  C_11
REMARK    5  A    between atoms: C_10  and  C_17
REMARK                            x       y       z     vdW  Elec       q    Type
REMARK                         _______ _______ _______ _____ _____    ______ ____
ROOT
ATOM      1  C   UNL     1      33.886  18.136  15.739  0.00  0.00    +0.040 A 
ATOM      2  C   UNL     1      33.069  17.369  14.905  0.00  0.00    +0.013 A 
ATOM      3  C   UNL     1      32.167  18.005  14.048  0.00  0.00    +0.004 A 
ATOM      4  C   UNL     1      32.091  19.402  14.021  0.00  0.00    +0.046 A 
ATOM      5  C   UNL     1      32.913  20.172  14.847  0.00  0.00    +0.122 A 
ATOM      6  C   UNL     1      33.783  19.530  15.723  0.00  0.00    +0.058 A 
ENDROOT
BRANCH   1   8
ATOM      7  N   UNL     1      34.752  16.221  16.973  0.00  0.00    -0.325 N 
ATOM      8  C   UNL     1      34.885  17.544  16.663  0.00  0.00    +0.242 C 
ATOM      9  O   UNL     1      35.834  18.194  17.086  0.00  0.00    -0.270 OA
ATOM     10  H   UNL     1      35.525  15.812  17.483  0.00  0.00    +0.145 HD
ATOM     11  H   UNL     1      34.165  15.600  16.436  0.00  0.00    +0.145 HD
ENDBRANCH   1   8
BRANCH   5  12
ATOM     12  O   UNL     1      32.771  21.528  14.739  0.00  0.00    -0.484 OA
BRANCH  12  13
ATOM     13  C   UNL     1      33.828  22.261  14.092  0.00  0.00    +0.208 C 
BRANCH  13  14
ATOM     14  C   UNL     1      33.268  22.949  12.864  0.00  0.00    +0.011 A 
ATOM     15  C   UNL     1      32.101  23.720  12.961  0.00  0.00    +0.010 A 
ATOM     16  C   UNL     1      31.583  24.346  11.835  0.00  0.00    +0.020 A 
ATOM     17  C   UNL     1      32.252  24.184  10.635  0.00  0.00    +0.111 A 
ATOM     18  N   UNL     1      33.375  23.447  10.494  0.00  0.00    -0.263 NA
ATOM     19  C   UNL     1      33.855  22.845  11.609  0.00  0.00    +0.118 A 
ENDBRANCH  13  14
BRANCH  13  20
ATOM     20  C   UNL     1      34.399  23.281  15.052  0.00  0.00    +0.034 C 
ATOM     21  C   UNL     1      35.585  24.151  14.690  0.00  0.00    +0.008 C 
ATOM     22  C   UNL     1      35.751  23.060  15.703  0.00  0.00    +0.008 C 
ENDBRANCH  13  20
ENDBRANCH  12  13
ENDBRANCH   5  12
TORSDOF 5
ENDMDL
MODEL 9
REMARK VINA RESULT:      -5.4      2.942      6.993
REMARK  Name = ZINC001228612316
REMARK  5 active torsions:
REMARK  status: ('A' for Active; 'I' for Inactive)
REMARK    1  A    between atoms: C_2  and  C_4
REMARK    2  A    between atoms: C_8  and  O_9
REMARK    3  A    between atoms: O_9  and  C_10
REMARK    4  A    between atoms: C_10  and  C_11
REMARK    5  A    between atoms: C_10  and  C_17
REMARK                            x       y       z     vdW  Elec       q    Type
REMARK                         _______ _______ _______ _____ _____    ______ ____
ROOT
ATOM      1  C   UNL     1      32.499  19.220  15.096  0.00  0.00    +0.040 A 
ATOM      2  C   UNL     1      31.311  19.862  14.736  0.00  0.00    +0.013 A 
ATOM      3  C   UNL     1      31.058  21.155  15.201  0.00  0.00    +0.004 A 
ATOM      4  C   UNL     1      31.994  21.804  16.014  0.00  0.00    +0.046 A 
ATOM      5  C   UNL     1      33.186  21.168  16.369  0.00  0.00    +0.122 A 
ATOM      6  C   UNL     1      33.414  19.867  15.932  0.00  0.00    +0.058 A 
ENDROOT
BRANCH   1   8
ATOM      7  N   UNL     1      33.667  17.108  15.436  0.00  0.00    -0.325 N 
ATOM      8  C   UNL     1      32.858  17.857  14.631  0.00  0.00    +0.242 C 
ATOM      9  O   UNL     1      32.397  17.388  13.596  0.00  0.00    -0.270 OA
ATOM     10  H   UNL     1      33.776  16.138  15.167  0.00  0.00    +0.145 HD
ATOM     11  H   UNL     1      33.833  17.347  16.403  0.00  0.00    +0.145 HD
ENDBRANCH   1   8
BRANCH   5  12
ATOM     12  O   UNL     1      34.040  21.889  17.158  0.00  0.00    -0.484 OA
BRANCH  12  13
ATOM     13  C   UNL     1      34.265  23.268  16.812  0.00  0.00    +0.208 C 
BRANCH  13  14
ATOM     14  C   UNL     1      34.628  24.036  18.066  0.00  0.00    +0.011 A 
ATOM     15  C   UNL     1      35.650  23.570  18.905  0.00  0.00    +0.010 A 
ATOM     16  C   UNL     1      35.979  24.269  20.059  0.00  0.00    +0.020 A 
ATOM     17  C   UNL     1      35.274  25.425  20.342  0.00  0.00    +0.111 A 
ATOM     18  N   UNL     1      34.279  25.908  19.566  0.00  0.00    -0.263 NA
ATOM     19  C   UNL     1      33.977  25.202  18.449  0.00  0.00    +0.118 A 
ENDBRANCH  13  14
BRANCH  13  20
ATOM     20  C   UNL     1      35.382  23.360  15.796  0.00  0.00    +0.034 C 
ATOM     21  C   UNL     1      35.828  24.683  15.208  0.00  0.00    +0.008 C 
ATOM     22  C   UNL     1      35.088  23.705  14.349  0.00  0.00    +0.008 C 
ENDBRANCH  13  20
ENDBRANCH  12  13
ENDBRANCH   5  12
TORSDOF 5
ENDMDL
