MODEL 1
REMARK VINA RESULT:      -6.5      0.000      0.000
REMARK  Name = ZINC000826139982
REMARK  4 active torsions:
REMARK  status: ('A' for Active; 'I' for Inactive)
REMARK    1  A    between atoms: C_2  and  C_4
REMARK    2  A    between atoms: C_8  and  C_10
REMARK    3  A    between atoms: C_14  and  S_15
REMARK    4  A    between atoms: S_15  and  C_16
REMARK                            x       y       z     vdW  Elec       q    Type
REMARK                         _______ _______ _______ _____ _____    ______ ____
ROOT
ATOM      1  C   UNL     1      35.645  21.176   7.212  0.00  0.00    +0.093 C 
ATOM      2  C   UNL     1      34.581  20.384   7.971  0.00  0.00    +0.033 C 
ATOM      3  C   UNL     1      33.744  21.492   8.592  0.00  0.00    +0.109 C 
ATOM      4  N   UNL     1      34.762  22.424   9.057  0.00  0.00    -0.297 N 
ATOM      5  C   UNL     1      34.759  23.344  10.097  0.00  0.00    +0.247 C 
ATOM      6  O   UNL     1      35.692  24.139  10.240  0.00  0.00    -0.270 OA
ATOM      7  C   UNL     1      35.889  22.390   8.120  0.00  0.00    +0.120 C 
ENDROOT
BRANCH   5   8
ATOM      8  C   UNL     1      33.626  23.434  11.069  0.00  0.00    +0.038 A 
ATOM      9  C   UNL     1      32.450  24.142  10.821  0.00  0.00    +0.013 A 
ATOM     10  C   UNL     1      31.466  24.265  11.804  0.00  0.00    +0.002 A 
ATOM     11  C   UNL     1      31.586  23.561  12.998  0.00  0.00    +0.015 A 
ATOM     12  C   UNL     1      32.669  22.701  13.197  0.00  0.00    +0.017 A 
ATOM     13  C   UNL     1      33.706  22.674  12.252  0.00  0.00    +0.028 A 
BRANCH  12  14
ATOM     14  S   UNL     1      32.755  21.659  14.638  0.00  0.00    -0.016 S 
BRANCH  14  15
ATOM     15  C   UNL     1      31.337  20.572  14.373  0.00  0.00    +0.448 C 
ATOM     16  F   UNL     1      30.859  20.588  13.105  0.00  0.00    -0.160 F 
ATOM     17  F   UNL     1      31.651  19.287  14.662  0.00  0.00    -0.160 F 
ATOM     18  F   UNL     1      30.308  20.923  15.184  0.00  0.00    -0.160 F 
ENDBRANCH  14  15
ENDBRANCH  12  14
ENDBRANCH   5   8
BRANCH   1  20
ATOM     19  N   UNL     1      35.108  22.876   5.534  0.00  0.00    -0.329 N 
ATOM     20  C   UNL     1      35.142  21.547   5.825  0.00  0.00    +0.215 C 
ATOM     21  O   UNL     1      34.817  20.728   4.971  0.00  0.00    -0.276 OA
ATOM     22  H   UNL     1      34.860  23.123   4.584  0.00  0.00    +0.145 HD
ATOM     23  H   UNL     1      35.510  23.588   6.128  0.00  0.00    +0.145 HD
ENDBRANCH   1  20
TORSDOF 4
ENDMDL
MODEL 2
REMARK VINA RESULT:      -6.2      4.561      6.646
REMARK  Name = ZINC000826139982
REMARK  4 active torsions:
REMARK  status: ('A' for Active; 'I' for Inactive)
REMARK    1  A    between atoms: C_2  and  C_4
REMARK    2  A    between atoms: C_8  and  C_10
REMARK    3  A    between atoms: C_14  and  S_15
REMARK    4  A    between atoms: S_15  and  C_16
REMARK                            x       y       z     vdW  Elec       q    Type
REMARK                         _______ _______ _______ _____ _____    ______ ____
ROOT
ATOM      1  C   UNL     1      33.066  18.937  15.392  0.00  0.00    +0.093 C 
ATOM      2  C   UNL     1      31.752  19.348  14.727  0.00  0.00    +0.033 C 
ATOM      3  C   UNL     1      32.239  20.107  13.502  0.00  0.00    +0.109 C 
ATOM      4  N   UNL     1      33.331  20.903  14.048  0.00  0.00    -0.297 N 
ATOM      5  C   UNL     1      33.862  22.124  13.654  0.00  0.00    +0.247 C 
ATOM      6  O   UNL     1      34.886  22.566  14.182  0.00  0.00    -0.270 OA
ATOM      7  C   UNL     1      33.988  20.131  15.106  0.00  0.00    +0.120 C 
ENDROOT
BRANCH   5   8
ATOM      8  C   UNL     1      33.243  22.942  12.567  0.00  0.00    +0.038 A 
ATOM      9  C   UNL     1      32.107  23.731  12.746  0.00  0.00    +0.013 A 
ATOM     10  C   UNL     1      31.522  24.401  11.670  0.00  0.00    +0.002 A 
ATOM     11  C   UNL     1      32.151  24.403  10.428  0.00  0.00    +0.015 A 
ATOM     12  C   UNL     1      33.386  23.768  10.269  0.00  0.00    +0.017 A 
ATOM     13  C   UNL     1      33.905  23.005  11.325  0.00  0.00    +0.028 A 
BRANCH  12  14
ATOM     14  S   UNL     1      34.292  23.904   8.742  0.00  0.00    -0.016 S 
BRANCH  14  15
ATOM     15  C   UNL     1      33.264  22.916   7.634  0.00  0.00    +0.448 C 
ATOM     16  F   UNL     1      32.884  21.722   8.150  0.00  0.00    -0.160 F 
ATOM     17  F   UNL     1      32.132  23.581   7.302  0.00  0.00    -0.160 F 
ATOM     18  F   UNL     1      33.924  22.651   6.479  0.00  0.00    -0.160 F 
ENDBRANCH  14  15
ENDBRANCH  12  14
ENDBRANCH   5   8
BRANCH   1  20
ATOM     19  N   UNL     1      32.864  16.511  15.128  0.00  0.00    -0.329 N 
ATOM     20  C   UNL     1      33.570  17.628  14.804  0.00  0.00    +0.215 C 
ATOM     21  O   UNL     1      34.527  17.542  14.040  0.00  0.00    -0.276 OA
ATOM     22  H   UNL     1      33.141  15.653  14.669  0.00  0.00    +0.145 HD
ATOM     23  H   UNL     1      31.980  16.533  15.617  0.00  0.00    +0.145 HD
ENDBRANCH   1  20
TORSDOF 4
ENDMDL
MODEL 3
REMARK VINA RESULT:      -6.0      2.196      2.422
REMARK  Name = ZINC000826139982
REMARK  4 active torsions:
REMARK  status: ('A' for Active; 'I' for Inactive)
REMARK    1  A    between atoms: C_2  and  C_4
REMARK    2  A    between atoms: C_8  and  C_10
REMARK    3  A    between atoms: C_14  and  S_15
REMARK    4  A    between atoms: S_15  and  C_16
REMARK                            x       y       z     vdW  Elec       q    Type
REMARK                         _______ _______ _______ _____ _____    ______ ____
ROOT
ATOM      1  C   UNL     1      36.491  22.654   6.565  0.00  0.00    +0.093 C 
ATOM      2  C   UNL     1      36.055  21.555   7.533  0.00  0.00    +0.033 C 
ATOM      3  C   UNL     1      34.784  22.141   8.128  0.00  0.00    +0.109 C 
ATOM      4  N   UNL     1      35.163  23.528   8.357  0.00  0.00    -0.297 N 
ATOM      5  C   UNL     1      34.714  24.462   9.282  0.00  0.00    +0.247 C 
ATOM      6  O   UNL     1      35.080  25.639   9.219  0.00  0.00    -0.270 OA
ATOM      7  C   UNL     1      36.086  23.942   7.296  0.00  0.00    +0.120 C 
ENDROOT
BRANCH   5   8
ATOM      8  C   UNL     1      33.758  24.098  10.372  0.00  0.00    +0.038 A 
ATOM      9  C   UNL     1      32.405  24.437  10.357  0.00  0.00    +0.013 A 
ATOM     10  C   UNL     1      31.581  24.149  11.446  0.00  0.00    +0.002 A 
ATOM     11  C   UNL     1      32.070  23.390  12.506  0.00  0.00    +0.015 A 
ATOM     12  C   UNL     1      33.372  22.885  12.460  0.00  0.00    +0.017 A 
ATOM     13  C   UNL     1      34.224  23.276  11.416  0.00  0.00    +0.028 A 
BRANCH  12  14
ATOM     14  S   UNL     1      33.963  21.770  13.717  0.00  0.00    -0.016 S 
BRANCH  14  15
ATOM     15  C   UNL     1      34.390  22.924  15.039  0.00  0.00    +0.448 C 
ATOM     16  F   UNL     1      34.423  24.221  14.650  0.00  0.00    -0.160 F 
ATOM     17  F   UNL     1      33.505  22.839  16.060  0.00  0.00    -0.160 F 
ATOM     18  F   UNL     1      35.614  22.636  15.547  0.00  0.00    -0.160 F 
ENDBRANCH  14  15
ENDBRANCH  12  14
ENDBRANCH   5   8
BRANCH   1  20
ATOM     19  N   UNL     1      35.414  23.621   4.590  0.00  0.00    -0.329 N 
ATOM     20  C   UNL     1      35.803  22.479   5.220  0.00  0.00    +0.215 C 
ATOM     21  O   UNL     1      35.627  21.394   4.674  0.00  0.00    -0.276 OA
ATOM     22  H   UNL     1      35.039  23.515   3.656  0.00  0.00    +0.145 HD
ATOM     23  H   UNL     1      35.670  24.546   4.905  0.00  0.00    +0.145 HD
ENDBRANCH   1  20
TORSDOF 4
ENDMDL
MODEL 4
REMARK VINA RESULT:      -5.8      3.312      4.502
REMARK  Name = ZINC000826139982
REMARK  4 active torsions:
REMARK  status: ('A' for Active; 'I' for Inactive)
REMARK    1  A    between atoms: C_2  and  C_4
REMARK    2  A    between atoms: C_8  and  C_10
REMARK    3  A    between atoms: C_14  and  S_15
REMARK    4  A    between atoms: S_15  and  C_16
REMARK                            x       y       z     vdW  Elec       q    Type
REMARK                         _______ _______ _______ _____ _____    ______ ____
ROOT
ATOM      1  C   UNL     1      33.576  23.654   9.458  0.00  0.00    +0.093 C 
ATOM      2  C   UNL     1      32.432  24.135  10.350  0.00  0.00    +0.033 C 
ATOM      3  C   UNL     1      32.839  23.588  11.710  0.00  0.00    +0.109 C 
ATOM      4  N   UNL     1      33.299  22.248  11.378  0.00  0.00    -0.297 N 
ATOM      5  C   UNL     1      33.332  21.077  12.125  0.00  0.00    +0.247 C 
ATOM      6  O   UNL     1      33.891  20.066  11.690  0.00  0.00    -0.270 OA
ATOM      7  C   UNL     1      33.930  22.284  10.056  0.00  0.00    +0.120 C 
ENDROOT
BRANCH   5   8
ATOM      8  C   UNL     1      32.722  20.990  13.486  0.00  0.00    +0.038 A 
ATOM      9  C   UNL     1      31.359  20.798  13.711  0.00  0.00    +0.013 A 
ATOM     10  C   UNL     1      30.835  20.817  15.005  0.00  0.00    +0.002 A 
ATOM     11  C   UNL     1      31.691  20.887  16.100  0.00  0.00    +0.015 A 
ATOM     12  C   UNL     1      33.074  20.898  15.905  0.00  0.00    +0.017 A 
ATOM     13  C   UNL     1      33.583  20.994  14.601  0.00  0.00    +0.028 A 
BRANCH  12  14
ATOM     14  S   UNL     1      34.192  20.812  17.289  0.00  0.00    -0.016 S 
BRANCH  14  15
ATOM     15  C   UNL     1      34.749  22.526  17.400  0.00  0.00    +0.448 C 
ATOM     16  F   UNL     1      35.218  22.876  18.621  0.00  0.00    -0.160 F 
ATOM     17  F   UNL     1      35.739  22.773  16.510  0.00  0.00    -0.160 F 
ATOM     18  F   UNL     1      33.733  23.378  17.112  0.00  0.00    -0.160 F 
ENDBRANCH  14  15
ENDBRANCH  12  14
ENDBRANCH   5   8
BRANCH   1  20
ATOM     19  N   UNL     1      35.923  24.165   9.932  0.00  0.00    -0.329 N 
ATOM     20  C   UNL     1      34.728  24.646   9.491  0.00  0.00    +0.215 C 
ATOM     21  O   UNL     1      34.644  25.809   9.110  0.00  0.00    -0.276 OA
ATOM     22  H   UNL     1      36.712  24.796   9.871  0.00  0.00    +0.145 HD
ATOM     23  H   UNL     1      36.100  23.187  10.107  0.00  0.00    +0.145 HD
ENDBRANCH   1  20
TORSDOF 4
ENDMDL
MODEL 5
REMARK VINA RESULT:      -5.8      2.941      3.957
REMARK  Name = ZINC000826139982
REMARK  4 active torsions:
REMARK  status: ('A' for Active; 'I' for Inactive)
REMARK    1  A    between atoms: C_2  and  C_4
REMARK    2  A    between atoms: C_8  and  C_10
REMARK    3  A    between atoms: C_14  and  S_15
REMARK    4  A    between atoms: S_15  and  C_16
REMARK                            x       y       z     vdW  Elec       q    Type
REMARK                         _______ _______ _______ _____ _____    ______ ____
ROOT
ATOM      1  C   UNL     1      33.971  23.870   9.106  0.00  0.00    +0.093 C 
ATOM      2  C   UNL     1      34.791  22.718   9.687  0.00  0.00    +0.033 C 
ATOM      3  C   UNL     1      33.758  21.984  10.528  0.00  0.00    +0.109 C 
ATOM      4  N   UNL     1      33.051  23.081  11.173  0.00  0.00    -0.297 N 
ATOM      5  C   UNL     1      32.371  23.149  12.382  0.00  0.00    +0.247 C 
ATOM      6  O   UNL     1      31.721  24.154  12.685  0.00  0.00    -0.270 OA
ATOM      7  C   UNL     1      33.002  24.216  10.247  0.00  0.00    +0.120 C 
ENDROOT
BRANCH   5   8
ATOM      8  C   UNL     1      32.371  22.014  13.355  0.00  0.00    +0.038 A 
ATOM      9  C   UNL     1      31.343  21.075  13.446  0.00  0.00    +0.013 A 
ATOM     10  C   UNL     1      31.357  20.091  14.436  0.00  0.00    +0.002 A 
ATOM     11  C   UNL     1      32.471  19.947  15.257  0.00  0.00    +0.015 A 
ATOM     12  C   UNL     1      33.590  20.761  15.065  0.00  0.00    +0.017 A 
ATOM     13  C   UNL     1      33.519  21.818  14.145  0.00  0.00    +0.028 A 
BRANCH  12  14
ATOM     14  S   UNL     1      35.090  20.482  15.984  0.00  0.00    -0.016 S 
BRANCH  14  15
ATOM     15  C   UNL     1      34.665  21.210  17.581  0.00  0.00    +0.448 C 
ATOM     16  F   UNL     1      35.710  21.312  18.436  0.00  0.00    -0.160 F 
ATOM     17  F   UNL     1      34.157  22.456  17.426  0.00  0.00    -0.160 F 
ATOM     18  F   UNL     1      33.717  20.468  18.207  0.00  0.00    -0.160 F 
ENDBRANCH  14  15
ENDBRANCH  12  14
ENDBRANCH   5   8
BRANCH   1  20
ATOM     19  N   UNL     1      34.075  22.980   6.828  0.00  0.00    -0.329 N 
ATOM     20  C   UNL     1      33.271  23.431   7.829  0.00  0.00    +0.215 C 
ATOM     21  O   UNL     1      32.053  23.425   7.681  0.00  0.00    -0.276 OA
ATOM     22  H   UNL     1      33.609  22.603   6.012  0.00  0.00    +0.145 HD
ATOM     23  H   UNL     1      35.064  22.809   6.941  0.00  0.00    +0.145 HD
ENDBRANCH   1  20
TORSDOF 4
ENDMDL
MODEL 6
REMARK VINA RESULT:      -5.7      3.155      4.447
REMARK  Name = ZINC000826139982
REMARK  4 active torsions:
REMARK  status: ('A' for Active; 'I' for Inactive)
REMARK    1  A    between atoms: C_2  and  C_4
REMARK    2  A    between atoms: C_8  and  C_10
REMARK    3  A    between atoms: C_14  and  S_15
REMARK    4  A    between atoms: S_15  and  C_16
REMARK                            x       y       z     vdW  Elec       q    Type
REMARK                         _______ _______ _______ _____ _____    ______ ____
ROOT
ATOM      1  C   UNL     1      33.530  23.661   9.480  0.00  0.00    +0.093 C 
ATOM      2  C   UNL     1      32.401  24.146  10.390  0.00  0.00    +0.033 C 
ATOM      3  C   UNL     1      32.824  23.594  11.743  0.00  0.00    +0.109 C 
ATOM      4  N   UNL     1      33.274  22.252  11.401  0.00  0.00    -0.297 N 
ATOM      5  C   UNL     1      33.312  21.080  12.145  0.00  0.00    +0.247 C 
ATOM      6  O   UNL     1      33.860  20.067  11.700  0.00  0.00    -0.270 OA
ATOM      7  C   UNL     1      33.886  22.289  10.070  0.00  0.00    +0.120 C 
ENDROOT
BRANCH   5   8
ATOM      8  C   UNL     1      32.721  20.993  13.515  0.00  0.00    +0.038 A 
ATOM      9  C   UNL     1      31.365  20.772  13.758  0.00  0.00    +0.013 A 
ATOM     10  C   UNL     1      30.857  20.792  15.058  0.00  0.00    +0.002 A 
ATOM     11  C   UNL     1      31.724  20.893  16.142  0.00  0.00    +0.015 A 
ATOM     12  C   UNL     1      33.105  20.933  15.929  0.00  0.00    +0.017 A 
ATOM     13  C   UNL     1      33.595  21.027  14.618  0.00  0.00    +0.028 A 
BRANCH  12  14
ATOM     14  S   UNL     1      34.240  20.886  17.300  0.00  0.00    -0.016 S 
BRANCH  14  15
ATOM     15  C   UNL     1      34.911  19.216  17.146  0.00  0.00    +0.448 C 
ATOM     16  F   UNL     1      35.240  18.642  18.328  0.00  0.00    -0.160 F 
ATOM     17  F   UNL     1      34.023  18.393  16.539  0.00  0.00    -0.160 F 
ATOM     18  F   UNL     1      36.034  19.221  16.386  0.00  0.00    -0.160 F 
ENDBRANCH  14  15
ENDBRANCH  12  14
ENDBRANCH   5   8
BRANCH   1  20
ATOM     19  N   UNL     1      35.888  24.158   9.911  0.00  0.00    -0.329 N 
ATOM     20  C   UNL     1      34.687  24.648   9.499  0.00  0.00    +0.215 C 
ATOM     21  O   UNL     1      34.599  25.816   9.131  0.00  0.00    -0.276 OA
ATOM     22  H   UNL     1      36.678  24.786   9.839  0.00  0.00    +0.145 HD
ATOM     23  H   UNL     1      36.064  23.177  10.072  0.00  0.00    +0.145 HD
ENDBRANCH   1  20
TORSDOF 4
ENDMDL
MODEL 7
REMARK VINA RESULT:      -5.7      1.936      2.752
REMARK  Name = ZINC000826139982
REMARK  4 active torsions:
REMARK  status: ('A' for Active; 'I' for Inactive)
REMARK    1  A    between atoms: C_2  and  C_4
REMARK    2  A    between atoms: C_8  and  C_10
REMARK    3  A    between atoms: C_14  and  S_15
REMARK    4  A    between atoms: S_15  and  C_16
REMARK                            x       y       z     vdW  Elec       q    Type
REMARK                         _______ _______ _______ _____ _____    ______ ____
ROOT
ATOM      1  C   UNL     1      36.870  24.492   7.514  0.00  0.00    +0.093 C 
ATOM      2  C   UNL     1      36.426  25.559   8.514  0.00  0.00    +0.033 C 
ATOM      3  C   UNL     1      35.837  24.718   9.637  0.00  0.00    +0.109 C 
ATOM      4  N   UNL     1      35.080  23.713   8.903  0.00  0.00    -0.297 N 
ATOM      5  C   UNL     1      33.952  22.981   9.250  0.00  0.00    +0.247 C 
ATOM      6  O   UNL     1      33.540  22.073   8.521  0.00  0.00    -0.270 OA
ATOM      7  C   UNL     1      35.788  23.411   7.657  0.00  0.00    +0.120 C 
ENDROOT
BRANCH   5   8
ATOM      8  C   UNL     1      33.203  23.234  10.518  0.00  0.00    +0.038 A 
ATOM      9  C   UNL     1      32.197  24.193  10.643  0.00  0.00    +0.013 A 
ATOM     10  C   UNL     1      31.597  24.446  11.878  0.00  0.00    +0.002 A 
ATOM     11  C   UNL     1      31.897  23.644  12.974  0.00  0.00    +0.015 A 
ATOM     12  C   UNL     1      32.768  22.560  12.829  0.00  0.00    +0.017 A 
ATOM     13  C   UNL     1      33.450  22.386  11.615  0.00  0.00    +0.028 A 
BRANCH  12  14
ATOM     14  S   UNL     1      33.033  21.417  14.167  0.00  0.00    -0.016 S 
BRANCH  14  15
ATOM     15  C   UNL     1      31.410  20.634  14.289  0.00  0.00    +0.448 C 
ATOM     16  F   UNL     1      30.721  20.609  13.123  0.00  0.00    -0.160 F 
ATOM     17  F   UNL     1      31.521  19.352  14.711  0.00  0.00    -0.160 F 
ATOM     18  F   UNL     1      30.633  21.284  15.190  0.00  0.00    -0.160 F 
ENDBRANCH  14  15
ENDBRANCH  12  14
ENDBRANCH   5   8
BRANCH   1  20
ATOM     19  N   UNL     1      38.443  22.649   7.863  0.00  0.00    -0.329 N 
ATOM     20  C   UNL     1      38.268  23.998   7.852  0.00  0.00    +0.215 C 
ATOM     21  O   UNL     1      39.224  24.738   8.065  0.00  0.00    -0.276 OA
ATOM     22  H   UNL     1      39.390  22.319   7.997  0.00  0.00    +0.145 HD
ATOM     23  H   UNL     1      37.745  21.994   7.542  0.00  0.00    +0.145 HD
ENDBRANCH   1  20
TORSDOF 4
ENDMDL
MODEL 8
REMARK VINA RESULT:      -5.7      5.102      6.802
REMARK  Name = ZINC000826139982
REMARK  4 active torsions:
REMARK  status: ('A' for Active; 'I' for Inactive)
REMARK    1  A    between atoms: C_2  and  C_4
REMARK    2  A    between atoms: C_8  and  C_10
REMARK    3  A    between atoms: C_14  and  S_15
REMARK    4  A    between atoms: S_15  and  C_16
REMARK                            x       y       z     vdW  Elec       q    Type
REMARK                         _______ _______ _______ _____ _____    ______ ____
ROOT
ATOM      1  C   UNL     1      33.079  18.803  15.261  0.00  0.00    +0.093 C 
ATOM      2  C   UNL     1      31.785  19.171  14.535  0.00  0.00    +0.033 C 
ATOM      3  C   UNL     1      32.302  19.990  13.361  0.00  0.00    +0.109 C 
ATOM      4  N   UNL     1      33.321  20.819  13.989  0.00  0.00    -0.297 N 
ATOM      5  C   UNL     1      33.813  22.075  13.660  0.00  0.00    +0.247 C 
ATOM      6  O   UNL     1      34.783  22.550  14.257  0.00  0.00    -0.270 OA
ATOM      7  C   UNL     1      33.956  20.048  15.061  0.00  0.00    +0.120 C 
ENDROOT
BRANCH   5   8
ATOM      8  C   UNL     1      33.215  22.896  12.563  0.00  0.00    +0.038 A 
ATOM      9  C   UNL     1      32.116  23.736  12.738  0.00  0.00    +0.013 A 
ATOM     10  C   UNL     1      31.546  24.407  11.654  0.00  0.00    +0.002 A 
ATOM     11  C   UNL     1      32.158  24.356  10.405  0.00  0.00    +0.015 A 
ATOM     12  C   UNL     1      33.363  23.667  10.246  0.00  0.00    +0.017 A 
ATOM     13  C   UNL     1      33.864  22.904  11.312  0.00  0.00    +0.028 A 
BRANCH  12  14
ATOM     14  S   UNL     1      34.255  23.731   8.706  0.00  0.00    -0.016 S 
BRANCH  14  15
ATOM     15  C   UNL     1      35.437  25.055   9.038  0.00  0.00    +0.448 C 
ATOM     16  F   UNL     1      36.305  24.781  10.042  0.00  0.00    -0.160 F 
ATOM     17  F   UNL     1      36.179  25.329   7.939  0.00  0.00    -0.160 F 
ATOM     18  F   UNL     1      34.792  26.198   9.379  0.00  0.00    -0.160 F 
ENDBRANCH  14  15
ENDBRANCH  12  14
ENDBRANCH   5   8
BRANCH   1  20
ATOM     19  N   UNL     1      32.860  16.452  14.611  0.00  0.00    -0.329 N 
ATOM     20  C   UNL     1      33.679  17.537  14.666  0.00  0.00    +0.215 C 
ATOM     21  O   UNL     1      34.816  17.466  14.210  0.00  0.00    -0.276 OA
ATOM     22  H   UNL     1      33.224  15.637  14.135  0.00  0.00    +0.145 HD
ATOM     23  H   UNL     1      31.872  16.488  14.819  0.00  0.00    +0.145 HD
ENDBRANCH   1  20
TORSDOF 4
ENDMDL
MODEL 9
REMARK VINA RESULT:      -5.7      3.167      4.151
REMARK  Name = ZINC000826139982
REMARK  4 active torsions:
REMARK  status: ('A' for Active; 'I' for Inactive)
REMARK    1  A    between atoms: C_2  and  C_4
REMARK    2  A    between atoms: C_8  and  C_10
REMARK    3  A    between atoms: C_14  and  S_15
REMARK    4  A    between atoms: S_15  and  C_16
REMARK                            x       y       z     vdW  Elec       q    Type
REMARK                         _______ _______ _______ _____ _____    ______ ____
ROOT
ATOM      1  C   UNL     1      33.972  23.756   9.182  0.00  0.00    +0.093 C 
ATOM      2  C   UNL     1      34.876  22.827   9.993  0.00  0.00    +0.033 C 
ATOM      3  C   UNL     1      33.876  22.125  10.900  0.00  0.00    +0.109 C 
ATOM      4  N   UNL     1      33.009  23.220  11.309  0.00  0.00    -0.297 N 
ATOM      5  C   UNL     1      32.245  23.408  12.454  0.00  0.00    +0.247 C 
ATOM      6  O   UNL     1      31.469  24.363  12.545  0.00  0.00    -0.270 OA
ATOM      7  C   UNL     1      32.897  24.168  10.197  0.00  0.00    +0.120 C 
ENDROOT
BRANCH   5   8
ATOM      8  C   UNL     1      32.307  22.461  13.609  0.00  0.00    +0.038 A 
ATOM      9  C   UNL     1      31.407  21.412  13.796  0.00  0.00    +0.013 A 
ATOM     10  C   UNL     1      31.461  20.617  14.943  0.00  0.00    +0.002 A 
ATOM     11  C   UNL     1      32.506  20.774  15.849  0.00  0.00    +0.015 A 
ATOM     12  C   UNL     1      33.521  21.698  15.590  0.00  0.00    +0.017 A 
ATOM     13  C   UNL     1      33.396  22.567  14.496  0.00  0.00    +0.028 A 
BRANCH  12  14
ATOM     14  S   UNL     1      34.956  21.796  16.641  0.00  0.00    -0.016 S 
BRANCH  14  15
ATOM     15  C   UNL     1      34.832  23.491  17.250  0.00  0.00    +0.448 C 
ATOM     16  F   UNL     1      35.314  24.422  16.391  0.00  0.00    -0.160 F 
ATOM     17  F   UNL     1      33.544  23.821  17.508  0.00  0.00    -0.160 F 
ATOM     18  F   UNL     1      35.521  23.634  18.409  0.00  0.00    -0.160 F 
ENDBRANCH  14  15
ENDBRANCH  12  14
ENDBRANCH   5   8
BRANCH   1  20
ATOM     19  N   UNL     1      32.058  22.937   7.893  0.00  0.00    -0.329 N 
ATOM     20  C   UNL     1      33.414  23.026   7.969  0.00  0.00    +0.215 C 
ATOM     21  O   UNL     1      34.106  22.568   7.065  0.00  0.00    -0.276 OA
ATOM     22  H   UNL     1      31.681  22.533   7.046  0.00  0.00    +0.145 HD
ATOM     23  H   UNL     1      31.431  23.428   8.515  0.00  0.00    +0.145 HD
ENDBRANCH   1  20
TORSDOF 4
ENDMDL
