MODEL 1
REMARK VINA RESULT:      -6.8      0.000      0.000
REMARK  Name = ZINC000329563636
REMARK  3 active torsions:
REMARK  status: ('A' for Active; 'I' for Inactive)
REMARK    1  A    between atoms: C_1  and  C_2
REMARK    2  A    between atoms: C_2  and  N_3
REMARK    3  A    between atoms: N_9  and  C_10
REMARK                            x       y       z     vdW  Elec       q    Type
REMARK                         _______ _______ _______ _____ _____    ______ ____
ROOT
ATOM      1  C   UNL     1      31.589  24.108  13.475  0.00  0.00    +0.112 C 
ATOM      2  C   UNL     1      30.621  23.063  14.041  0.00  0.00    +0.075 C 
ATOM      3  C   UNL     1      30.736  22.827  15.553  0.00  0.00    +0.113 C 
ATOM      4  C   UNL     1      29.943  23.830  16.431  0.00  0.00    +0.048 C 
ATOM      5  C   UNL     1      28.808  23.036  17.068  0.00  0.00    +0.004 C 
ATOM      6  C   UNL     1      29.370  21.634  17.197  0.00  0.00    +0.004 C 
ATOM      7  C   UNL     1      30.111  21.446  15.884  0.00  0.00    +0.048 C 
ATOM      8  O   UNL     1      32.110  22.781  15.987  0.00  0.00    -0.485 OA
ATOM      9  C   UNL     1      32.811  23.913  15.663  0.00  0.00    +0.126 A 
ATOM     10  C   UNL     1      33.778  24.348  16.568  0.00  0.00    +0.046 A 
ATOM     11  C   UNL     1      34.496  25.519  16.313  0.00  0.00    +0.004 A 
ATOM     12  C   UNL     1      34.263  26.237  15.142  0.00  0.00    +0.001 A 
ATOM     13  C   UNL     1      33.317  25.779  14.224  0.00  0.00    +0.009 A 
ATOM     14  C   UNL     1      32.582  24.610  14.479  0.00  0.00    +0.015 A 
ENDROOT
BRANCH   1  21
ATOM     15  N   UNL     1      35.352  23.063   8.510  0.00  0.00    -0.299 N 
ATOM     16  C   UNL     1      34.665  24.354   8.527  0.00  0.00    +0.127 C 
ATOM     17  C   UNL     1      33.180  24.195   8.834  0.00  0.00    +0.129 C 
ATOM     18  N   UNL     1      33.036  23.538  10.125  0.00  0.00    -0.275 N 
ATOM     19  C   UNL     1      32.387  24.202  11.141  0.00  0.00    +0.303 C 
ATOM     20  O   UNL     1      31.925  25.334  11.001  0.00  0.00    -0.253 OA
ATOM     21  N   UNL     1      32.311  23.544  12.333  0.00  0.00    -0.292 N 
ATOM     22  C   UNL     1      33.693  22.230  10.213  0.00  0.00    +0.205 C 
ATOM     23  C   UNL     1      34.968  22.033   9.366  0.00  0.00    +0.233 C 
ATOM     24  O   UNL     1      35.592  20.971   9.437  0.00  0.00    -0.274 OA
ATOM     25  H   UNL     1      32.363  22.538  12.322  0.00  0.00    +0.151 HD
BRANCH  15  27
ATOM     26  C   UNL     1      36.540  22.510   6.405  0.00  0.00    +0.024 C 
ATOM     27  C   UNL     1      36.649  22.983   7.847  0.00  0.00    +0.104 C 
ENDBRANCH  15  27
ENDBRANCH   1  21
TORSDOF 2
ENDMDL
MODEL 2
REMARK VINA RESULT:      -6.5      2.803      6.946
REMARK  Name = ZINC000329563636
REMARK  3 active torsions:
REMARK  status: ('A' for Active; 'I' for Inactive)
REMARK    1  A    between atoms: C_1  and  C_2
REMARK    2  A    between atoms: C_2  and  N_3
REMARK    3  A    between atoms: N_9  and  C_10
REMARK                            x       y       z     vdW  Elec       q    Type
REMARK                         _______ _______ _______ _____ _____    ______ ____
ROOT
ATOM      1  C   UNL     1      32.968  25.581  12.904  0.00  0.00    +0.112 C 
ATOM      2  C   UNL     1      33.854  26.654  13.548  0.00  0.00    +0.075 C 
ATOM      3  C   UNL     1      34.934  27.240  12.626  0.00  0.00    +0.113 C 
ATOM      4  C   UNL     1      34.450  28.392  11.707  0.00  0.00    +0.048 C 
ATOM      5  C   UNL     1      35.137  29.657  12.210  0.00  0.00    +0.004 C 
ATOM      6  C   UNL     1      36.447  29.156  12.785  0.00  0.00    +0.004 C 
ATOM      7  C   UNL     1      36.035  27.885  13.508  0.00  0.00    +0.048 C 
ATOM      8  O   UNL     1      35.574  26.220  11.833  0.00  0.00    -0.485 OA
ATOM      9  C   UNL     1      34.690  25.500  11.073  0.00  0.00    +0.126 A 
ATOM     10  C   UNL     1      35.119  25.081   9.815  0.00  0.00    +0.046 A 
ATOM     11  C   UNL     1      34.249  24.379   8.979  0.00  0.00    +0.004 A 
ATOM     12  C   UNL     1      32.960  24.076   9.412  0.00  0.00    +0.001 A 
ATOM     13  C   UNL     1      32.546  24.469  10.685  0.00  0.00    +0.009 A 
ATOM     14  C   UNL     1      33.410  25.187  11.527  0.00  0.00    +0.015 A 
ENDROOT
BRANCH   1  21
ATOM     15  N   UNL     1      31.914  19.910  15.479  0.00  0.00    -0.299 N 
ATOM     16  C   UNL     1      30.741  20.585  14.925  0.00  0.00    +0.127 C 
ATOM     17  C   UNL     1      30.658  22.036  15.387  0.00  0.00    +0.129 C 
ATOM     18  N   UNL     1      31.870  22.728  14.977  0.00  0.00    -0.275 N 
ATOM     19  C   UNL     1      31.767  23.803  14.122  0.00  0.00    +0.303 C 
ATOM     20  O   UNL     1      30.686  24.199  13.687  0.00  0.00    -0.253 OA
ATOM     21  N   UNL     1      32.941  24.390  13.754  0.00  0.00    -0.292 N 
ATOM     22  C   UNL     1      33.109  22.128  15.482  0.00  0.00    +0.205 C 
ATOM     23  C   UNL     1      33.107  20.598  15.690  0.00  0.00    +0.233 C 
ATOM     24  O   UNL     1      34.135  20.030  16.066  0.00  0.00    -0.274 OA
ATOM     25  H   UNL     1      33.733  24.293  14.370  0.00  0.00    +0.151 HD
BRANCH  15  27
ATOM     26  C   UNL     1      31.908  17.867  14.074  0.00  0.00    +0.024 C 
ATOM     27  C   UNL     1      31.931  18.451  15.479  0.00  0.00    +0.104 C 
ENDBRANCH  15  27
ENDBRANCH   1  21
TORSDOF 2
ENDMDL
MODEL 3
REMARK VINA RESULT:      -6.4      2.382      4.754
REMARK  Name = ZINC000329563636
REMARK  3 active torsions:
REMARK  status: ('A' for Active; 'I' for Inactive)
REMARK    1  A    between atoms: C_1  and  C_2
REMARK    2  A    between atoms: C_2  and  N_3
REMARK    3  A    between atoms: N_9  and  C_10
REMARK                            x       y       z     vdW  Elec       q    Type
REMARK                         _______ _______ _______ _____ _____    ______ ____
ROOT
ATOM      1  C   UNL     1      32.651  23.295  16.757  0.00  0.00    +0.112 C 
ATOM      2  C   UNL     1      33.288  24.233  17.789  0.00  0.00    +0.075 C 
ATOM      3  C   UNL     1      32.415  24.533  19.015  0.00  0.00    +0.113 C 
ATOM      4  C   UNL     1      32.490  23.471  20.144  0.00  0.00    +0.048 C 
ATOM      5  C   UNL     1      33.199  24.141  21.315  0.00  0.00    +0.004 C 
ATOM      6  C   UNL     1      32.831  25.605  21.176  0.00  0.00    +0.004 C 
ATOM      7  C   UNL     1      32.932  25.837  19.678  0.00  0.00    +0.048 C 
ATOM      8  O   UNL     1      31.039  24.762  18.653  0.00  0.00    -0.485 OA
ATOM      9  C   UNL     1      30.486  23.714  17.965  0.00  0.00    +0.126 A 
ATOM     10  C   UNL     1      29.142  23.431  18.200  0.00  0.00    +0.046 A 
ATOM     11  C   UNL     1      28.533  22.350  17.560  0.00  0.00    +0.004 A 
ATOM     12  C   UNL     1      29.264  21.569  16.667  0.00  0.00    +0.001 A 
ATOM     13  C   UNL     1      30.601  21.875  16.410  0.00  0.00    +0.009 A 
ATOM     14  C   UNL     1      31.223  22.953  17.060  0.00  0.00    +0.015 A 
ENDROOT
BRANCH   1  21
ATOM     15  N   UNL     1      33.369  24.504  10.598  0.00  0.00    -0.299 N 
ATOM     16  C   UNL     1      34.404  23.670  11.208  0.00  0.00    +0.127 C 
ATOM     17  C   UNL     1      34.913  24.271  12.513  0.00  0.00    +0.129 C 
ATOM     18  N   UNL     1      33.791  24.420  13.429  0.00  0.00    -0.275 N 
ATOM     19  C   UNL     1      33.816  23.744  14.628  0.00  0.00    +0.303 C 
ATOM     20  O   UNL     1      34.751  23.014  14.955  0.00  0.00    -0.253 OA
ATOM     21  N   UNL     1      32.723  23.904  15.427  0.00  0.00    -0.292 N 
ATOM     22  C   UNL     1      32.694  25.243  12.911  0.00  0.00    +0.205 C 
ATOM     23  C   UNL     1      32.467  25.220  11.384  0.00  0.00    +0.233 C 
ATOM     24  O   UNL     1      31.528  25.853  10.894  0.00  0.00    -0.274 OA
ATOM     25  H   UNL     1      32.173  24.741  15.317  0.00  0.00    +0.151 HD
BRANCH  15  27
ATOM     26  C   UNL     1      34.311  23.978   8.366  0.00  0.00    +0.024 C 
ATOM     27  C   UNL     1      33.070  24.306   9.184  0.00  0.00    +0.104 C 
ENDBRANCH  15  27
ENDBRANCH   1  21
TORSDOF 2
ENDMDL
MODEL 4
REMARK VINA RESULT:      -6.3      4.255      5.959
REMARK  Name = ZINC000329563636
REMARK  3 active torsions:
REMARK  status: ('A' for Active; 'I' for Inactive)
REMARK    1  A    between atoms: C_1  and  C_2
REMARK    2  A    between atoms: C_2  and  N_3
REMARK    3  A    between atoms: N_9  and  C_10
REMARK                            x       y       z     vdW  Elec       q    Type
REMARK                         _______ _______ _______ _____ _____    ______ ____
ROOT
ATOM      1  C   UNL     1      33.449  22.513  14.273  0.00  0.00    +0.112 C 
ATOM      2  C   UNL     1      33.286  23.454  13.074  0.00  0.00    +0.075 C 
ATOM      3  C   UNL     1      32.061  24.379  13.140  0.00  0.00    +0.113 C 
ATOM      4  C   UNL     1      32.274  25.683  13.954  0.00  0.00    +0.048 C 
ATOM      5  C   UNL     1      32.250  26.825  12.945  0.00  0.00    +0.004 C 
ATOM      6  C   UNL     1      31.330  26.325  11.849  0.00  0.00    +0.004 C 
ATOM      7  C   UNL     1      31.738  24.868  11.704  0.00  0.00    +0.048 C 
ATOM      8  O   UNL     1      30.892  23.689  13.623  0.00  0.00    -0.485 OA
ATOM      9  C   UNL     1      31.079  23.117  14.854  0.00  0.00    +0.126 A 
ATOM     10  C   UNL     1      29.992  23.105  15.726  0.00  0.00    +0.046 A 
ATOM     11  C   UNL     1      30.132  22.574  17.010  0.00  0.00    +0.004 A 
ATOM     12  C   UNL     1      31.352  22.032  17.409  0.00  0.00    +0.001 A 
ATOM     13  C   UNL     1      32.428  22.016  16.520  0.00  0.00    +0.009 A 
ATOM     14  C   UNL     1      32.298  22.560  15.233  0.00  0.00    +0.015 A 
ENDROOT
BRANCH   1  21
ATOM     15  N   UNL     1      35.204  16.512  13.376  0.00  0.00    -0.299 N 
ATOM     16  C   UNL     1      36.287  17.458  13.643  0.00  0.00    +0.127 C 
ATOM     17  C   UNL     1      36.164  18.709  12.780  0.00  0.00    +0.129 C 
ATOM     18  N   UNL     1      34.878  19.337  13.045  0.00  0.00    -0.275 N 
ATOM     19  C   UNL     1      34.854  20.618  13.548  0.00  0.00    +0.303 C 
ATOM     20  O   UNL     1      35.880  21.253  13.786  0.00  0.00    -0.253 OA
ATOM     21  N   UNL     1      33.619  21.138  13.801  0.00  0.00    -0.292 N 
ATOM     22  C   UNL     1      33.721  18.468  12.808  0.00  0.00    +0.205 C 
ATOM     23  C   UNL     1      33.925  16.956  13.048  0.00  0.00    +0.233 C 
ATOM     24  O   UNL     1      32.975  16.181  12.913  0.00  0.00    -0.274 OA
ATOM     25  H   UNL     1      32.835  20.769  13.287  0.00  0.00    +0.151 HD
BRANCH  15  27
ATOM     26  C   UNL     1      35.496  14.983  15.307  0.00  0.00    +0.024 C 
ATOM     27  C   UNL     1      35.383  15.126  13.796  0.00  0.00    +0.104 C 
ENDBRANCH  15  27
ENDBRANCH   1  21
TORSDOF 2
ENDMDL
MODEL 5
REMARK VINA RESULT:      -6.2      3.928      8.590
REMARK  Name = ZINC000329563636
REMARK  3 active torsions:
REMARK  status: ('A' for Active; 'I' for Inactive)
REMARK    1  A    between atoms: C_1  and  C_2
REMARK    2  A    between atoms: C_2  and  N_3
REMARK    3  A    between atoms: N_9  and  C_10
REMARK                            x       y       z     vdW  Elec       q    Type
REMARK                         _______ _______ _______ _____ _____    ______ ____
ROOT
ATOM      1  C   UNL     1      31.797  24.162  14.965  0.00  0.00    +0.112 C 
ATOM      2  C   UNL     1      31.835  25.349  13.997  0.00  0.00    +0.075 C 
ATOM      3  C   UNL     1      32.825  25.203  12.833  0.00  0.00    +0.113 C 
ATOM      4  C   UNL     1      32.284  24.410  11.614  0.00  0.00    +0.048 C 
ATOM      5  C   UNL     1      32.131  25.418  10.481  0.00  0.00    +0.004 C 
ATOM      6  C   UNL     1      33.208  26.448  10.760  0.00  0.00    +0.004 C 
ATOM      7  C   UNL     1      33.132  26.615  12.269  0.00  0.00    +0.048 C 
ATOM      8  O   UNL     1      34.081  24.640  13.262  0.00  0.00    -0.485 OA
ATOM      9  C   UNL     1      33.939  23.423  13.875  0.00  0.00    +0.126 A 
ATOM     10  C   UNL     1      34.942  22.479  13.664  0.00  0.00    +0.046 A 
ATOM     11  C   UNL     1      34.833  21.206  14.228  0.00  0.00    +0.004 A 
ATOM     12  C   UNL     1      33.734  20.889  15.023  0.00  0.00    +0.001 A 
ATOM     13  C   UNL     1      32.748  21.849  15.259  0.00  0.00    +0.009 A 
ATOM     14  C   UNL     1      32.844  23.126  14.684  0.00  0.00    +0.015 A 
ENDROOT
BRANCH   1  21
ATOM     15  N   UNL     1      32.260  24.750  21.238  0.00  0.00    -0.299 N 
ATOM     16  C   UNL     1      31.174  23.896  20.757  0.00  0.00    +0.127 C 
ATOM     17  C   UNL     1      30.379  24.571  19.645  0.00  0.00    +0.129 C 
ATOM     18  N   UNL     1      31.284  24.889  18.550  0.00  0.00    -0.275 N 
ATOM     19  C   UNL     1      31.059  24.324  17.314  0.00  0.00    +0.303 C 
ATOM     20  O   UNL     1      30.122  23.555  17.101  0.00  0.00    -0.253 OA
ATOM     21  N   UNL     1      31.957  24.640  16.339  0.00  0.00    -0.292 N 
ATOM     22  C   UNL     1      32.412  25.745  18.928  0.00  0.00    +0.205 C 
ATOM     23  C   UNL     1      32.942  25.602  20.371  0.00  0.00    +0.233 C 
ATOM     24  O   UNL     1      33.921  26.259  20.732  0.00  0.00    -0.274 OA
ATOM     25  H   UNL     1      32.468  25.504  16.428  0.00  0.00    +0.151 HD
BRANCH  15  27
ATOM     26  C   UNL     1      31.877  23.729  23.464  0.00  0.00    +0.024 C 
ATOM     27  C   UNL     1      32.847  24.449  22.538  0.00  0.00    +0.104 C 
ENDBRANCH  15  27
ENDBRANCH   1  21
TORSDOF 2
ENDMDL
MODEL 6
REMARK VINA RESULT:      -6.2      2.792      3.819
REMARK  Name = ZINC000329563636
REMARK  3 active torsions:
REMARK  status: ('A' for Active; 'I' for Inactive)
REMARK    1  A    between atoms: C_1  and  C_2
REMARK    2  A    between atoms: C_2  and  N_3
REMARK    3  A    between atoms: N_9  and  C_10
REMARK                            x       y       z     vdW  Elec       q    Type
REMARK                         _______ _______ _______ _____ _____    ______ ____
ROOT
ATOM      1  C   UNL     1      33.464  21.477  13.745  0.00  0.00    +0.112 C 
ATOM      2  C   UNL     1      32.288  22.278  14.313  0.00  0.00    +0.075 C 
ATOM      3  C   UNL     1      31.191  21.433  14.978  0.00  0.00    +0.113 C 
ATOM      4  C   UNL     1      31.466  21.057  16.457  0.00  0.00    +0.048 C 
ATOM      5  C   UNL     1      30.448  21.827  17.290  0.00  0.00    +0.004 C 
ATOM      6  C   UNL     1      29.249  21.960  16.371  0.00  0.00    +0.004 C 
ATOM      7  C   UNL     1      29.888  22.272  15.028  0.00  0.00    +0.048 C 
ATOM      8  O   UNL     1      30.896  20.243  14.219  0.00  0.00    -0.485 OA
ATOM      9  C   UNL     1      31.997  19.453  14.014  0.00  0.00    +0.126 A 
ATOM     10  C   UNL     1      31.803  18.073  14.013  0.00  0.00    +0.046 A 
ATOM     11  C   UNL     1      32.893  17.215  13.850  0.00  0.00    +0.004 A 
ATOM     12  C   UNL     1      34.170  17.741  13.663  0.00  0.00    +0.001 A 
ATOM     13  C   UNL     1      34.354  19.124  13.632  0.00  0.00    +0.009 A 
ATOM     14  C   UNL     1      33.265  19.992  13.809  0.00  0.00    +0.015 A 
ENDROOT
BRANCH   1  21
ATOM     15  N   UNL     1      35.669  23.905   8.346  0.00  0.00    -0.299 N 
ATOM     16  C   UNL     1      35.645  24.816   9.490  0.00  0.00    +0.127 C 
ATOM     17  C   UNL     1      34.302  24.776  10.210  0.00  0.00    +0.129 C 
ATOM     18  N   UNL     1      34.049  23.413  10.654  0.00  0.00    -0.275 N 
ATOM     19  C   UNL     1      33.906  23.167  12.002  0.00  0.00    +0.303 C 
ATOM     20  O   UNL     1      33.988  24.056  12.847  0.00  0.00    -0.253 OA
ATOM     21  N   UNL     1      33.699  21.866  12.353  0.00  0.00    -0.292 N 
ATOM     22  C   UNL     1      34.052  22.417   9.578  0.00  0.00    +0.205 C 
ATOM     23  C   UNL     1      34.979  22.695   8.375  0.00  0.00    +0.233 C 
ATOM     24  O   UNL     1      35.063  21.869   7.462  0.00  0.00    -0.274 OA
ATOM     25  H   UNL     1      33.292  21.249  11.669  0.00  0.00    +0.151 HD
BRANCH  15  27
ATOM     26  C   UNL     1      36.389  25.295   6.423  0.00  0.00    +0.024 C 
ATOM     27  C   UNL     1      36.693  24.109   7.327  0.00  0.00    +0.104 C 
ENDBRANCH  15  27
ENDBRANCH   1  21
TORSDOF 2
ENDMDL
MODEL 7
REMARK VINA RESULT:      -6.1      2.500      7.827
REMARK  Name = ZINC000329563636
REMARK  3 active torsions:
REMARK  status: ('A' for Active; 'I' for Inactive)
REMARK    1  A    between atoms: C_1  and  C_2
REMARK    2  A    between atoms: C_2  and  N_3
REMARK    3  A    between atoms: N_9  and  C_10
REMARK                            x       y       z     vdW  Elec       q    Type
REMARK                         _______ _______ _______ _____ _____    ______ ____
ROOT
ATOM      1  C   UNL     1      34.099  23.717  13.144  0.00  0.00    +0.112 C 
ATOM      2  C   UNL     1      34.046  22.640  12.054  0.00  0.00    +0.075 C 
ATOM      3  C   UNL     1      33.917  23.175  10.621  0.00  0.00    +0.113 C 
ATOM      4  C   UNL     1      35.258  23.581   9.955  0.00  0.00    +0.048 C 
ATOM      5  C   UNL     1      35.507  22.569   8.843  0.00  0.00    +0.004 C 
ATOM      6  C   UNL     1      34.115  22.160   8.403  0.00  0.00    +0.004 C 
ATOM      7  C   UNL     1      33.367  22.038   9.720  0.00  0.00    +0.048 C 
ATOM      8  O   UNL     1      32.980  24.268  10.538  0.00  0.00    -0.485 OA
ATOM      9  C   UNL     1      33.299  25.309  11.370  0.00  0.00    +0.126 A 
ATOM     10  C   UNL     1      33.028  26.598  10.915  0.00  0.00    +0.046 A 
ATOM     11  C   UNL     1      33.368  27.702  11.700  0.00  0.00    +0.004 A 
ATOM     12  C   UNL     1      33.954  27.512  12.949  0.00  0.00    +0.001 A 
ATOM     13  C   UNL     1      34.193  26.219  13.415  0.00  0.00    +0.009 A 
ATOM     14  C   UNL     1      33.867  25.105  12.625  0.00  0.00    +0.015 A 
ENDROOT
BRANCH   1  21
ATOM     15  N   UNL     1      30.482  23.622  18.322  0.00  0.00    -0.299 N 
ATOM     16  C   UNL     1      31.915  23.809  18.550  0.00  0.00    +0.127 C 
ATOM     17  C   UNL     1      32.744  22.796  17.769  0.00  0.00    +0.129 C 
ATOM     18  N   UNL     1      32.443  22.937  16.352  0.00  0.00    -0.275 N 
ATOM     19  C   UNL     1      33.458  23.279  15.486  0.00  0.00    +0.303 C 
ATOM     20  O   UNL     1      34.612  23.473  15.866  0.00  0.00    -0.253 OA
ATOM     21  N   UNL     1      33.105  23.422  14.177  0.00  0.00    -0.292 N 
ATOM     22  C   UNL     1      31.026  22.767  16.015  0.00  0.00    +0.205 C 
ATOM     23  C   UNL     1      30.000  23.197  17.086  0.00  0.00    +0.233 C 
ATOM     24  O   UNL     1      28.793  23.125  16.841  0.00  0.00    -0.274 OA
ATOM     25  H   UNL     1      32.289  22.930  13.850  0.00  0.00    +0.151 HD
BRANCH  15  27
ATOM     26  C   UNL     1      30.140  24.319  20.677  0.00  0.00    +0.024 C 
ATOM     27  C   UNL     1      29.552  24.214  19.277  0.00  0.00    +0.104 C 
ENDBRANCH  15  27
ENDBRANCH   1  21
TORSDOF 2
ENDMDL
MODEL 8
REMARK VINA RESULT:      -6.0      4.264      6.254
REMARK  Name = ZINC000329563636
REMARK  3 active torsions:
REMARK  status: ('A' for Active; 'I' for Inactive)
REMARK    1  A    between atoms: C_1  and  C_2
REMARK    2  A    between atoms: C_2  and  N_3
REMARK    3  A    between atoms: N_9  and  C_10
REMARK                            x       y       z     vdW  Elec       q    Type
REMARK                         _______ _______ _______ _____ _____    ______ ____
ROOT
ATOM      1  C   UNL     1      34.377  21.264  15.788  0.00  0.00    +0.112 C 
ATOM      2  C   UNL     1      34.657  21.275  17.295  0.00  0.00    +0.075 C 
ATOM      3  C   UNL     1      34.076  20.083  18.069  0.00  0.00    +0.113 C 
ATOM      4  C   UNL     1      34.959  18.808  18.058  0.00  0.00    +0.048 C 
ATOM      5  C   UNL     1      35.471  18.629  19.483  0.00  0.00    +0.004 C 
ATOM      6  C   UNL     1      34.374  19.226  20.343  0.00  0.00    +0.004 C 
ATOM      7  C   UNL     1      33.979  20.472  19.568  0.00  0.00    +0.048 C 
ATOM      8  O   UNL     1      32.742  19.757  17.632  0.00  0.00    -0.485 OA
ATOM      9  C   UNL     1      32.670  19.487  16.291  0.00  0.00    +0.126 A 
ATOM     10  C   UNL     1      31.771  18.504  15.882  0.00  0.00    +0.046 A 
ATOM     11  C   UNL     1      31.681  18.156  14.533  0.00  0.00    +0.004 A 
ATOM     12  C   UNL     1      32.475  18.809  13.592  0.00  0.00    +0.001 A 
ATOM     13  C   UNL     1      33.350  19.815  14.002  0.00  0.00    +0.009 A 
ATOM     14  C   UNL     1      33.455  20.162  15.358  0.00  0.00    +0.015 A 
ENDROOT
BRANCH   1  21
ATOM     15  N   UNL     1      33.237  26.962  13.311  0.00  0.00    -0.299 N 
ATOM     16  C   UNL     1      34.574  26.768  13.872  0.00  0.00    +0.127 C 
ATOM     17  C   UNL     1      34.514  26.140  15.260  0.00  0.00    +0.129 C 
ATOM     18  N   UNL     1      33.824  24.862  15.167  0.00  0.00    -0.275 N 
ATOM     19  C   UNL     1      34.496  23.714  15.520  0.00  0.00    +0.303 C 
ATOM     20  O   UNL     1      35.663  23.726  15.910  0.00  0.00    -0.253 OA
ATOM     21  N   UNL     1      33.803  22.548  15.384  0.00  0.00    -0.292 N 
ATOM     22  C   UNL     1      32.468  24.947  14.614  0.00  0.00    +0.205 C 
ATOM     23  C   UNL     1      32.208  26.062  13.577  0.00  0.00    +0.233 C 
ATOM     24  O   UNL     1      31.101  26.152  13.040  0.00  0.00    -0.274 OA
ATOM     25  H   UNL     1      32.796  22.589  15.415  0.00  0.00    +0.151 HD
BRANCH  15  27
ATOM     26  C   UNL     1      34.221  28.912  12.136  0.00  0.00    +0.024 C 
ATOM     27  C   UNL     1      33.086  27.899  12.203  0.00  0.00    +0.104 C 
ENDBRANCH  15  27
ENDBRANCH   1  21
TORSDOF 2
ENDMDL
MODEL 9
REMARK VINA RESULT:      -6.0      3.208      8.135
REMARK  Name = ZINC000329563636
REMARK  3 active torsions:
REMARK  status: ('A' for Active; 'I' for Inactive)
REMARK    1  A    between atoms: C_1  and  C_2
REMARK    2  A    between atoms: C_2  and  N_3
REMARK    3  A    between atoms: N_9  and  C_10
REMARK                            x       y       z     vdW  Elec       q    Type
REMARK                         _______ _______ _______ _____ _____    ______ ____
ROOT
ATOM      1  C   UNL     1      34.008  24.146  14.169  0.00  0.00    +0.112 C 
ATOM      2  C   UNL     1      33.136  23.933  12.927  0.00  0.00    +0.075 C 
ATOM      3  C   UNL     1      33.250  25.030  11.859  0.00  0.00    +0.113 C 
ATOM      4  C   UNL     1      34.440  24.862  10.878  0.00  0.00    +0.048 C 
ATOM      5  C   UNL     1      33.830  24.533   9.520  0.00  0.00    +0.004 C 
ATOM      6  C   UNL     1      32.486  25.234   9.543  0.00  0.00    +0.004 C 
ATOM      7  C   UNL     1      31.991  24.968  10.955  0.00  0.00    +0.048 C 
ATOM      8  O   UNL     1      33.283  26.347  12.444  0.00  0.00    -0.485 OA
ATOM      9  C   UNL     1      34.300  26.505  13.349  0.00  0.00    +0.126 A 
ATOM     10  C   UNL     1      34.917  27.754  13.408  0.00  0.00    +0.046 A 
ATOM     11  C   UNL     1      35.987  27.964  14.281  0.00  0.00    +0.004 A 
ATOM     12  C   UNL     1      36.421  26.932  15.109  0.00  0.00    +0.001 A 
ATOM     13  C   UNL     1      35.780  25.693  15.070  0.00  0.00    +0.009 A 
ATOM     14  C   UNL     1      34.712  25.470  14.185  0.00  0.00    +0.015 A 
ENDROOT
BRANCH   1  21
ATOM     15  N   UNL     1      31.806  23.855  20.082  0.00  0.00    -0.299 N 
ATOM     16  C   UNL     1      33.057  23.138  19.833  0.00  0.00    +0.127 C 
ATOM     17  C   UNL     1      32.967  22.271  18.582  0.00  0.00    +0.129 C 
ATOM     18  N   UNL     1      32.646  23.122  17.445  0.00  0.00    -0.275 N 
ATOM     19  C   UNL     1      33.534  23.194  16.395  0.00  0.00    +0.303 C 
ATOM     20  O   UNL     1      34.592  22.568  16.382  0.00  0.00    -0.253 OA
ATOM     21  N   UNL     1      33.187  24.029  15.375  0.00  0.00    -0.292 N 
ATOM     22  C   UNL     1      31.405  23.888  17.595  0.00  0.00    +0.205 C 
ATOM     23  C   UNL     1      31.015  24.308  19.029  0.00  0.00    +0.233 C 
ATOM     24  O   UNL     1      30.008  24.996  19.213  0.00  0.00    -0.274 OA
ATOM     25  H   UNL     1      32.209  24.233  15.241  0.00  0.00    +0.151 HD
BRANCH  15  27
ATOM     26  C   UNL     1      31.789  23.352  22.510  0.00  0.00    +0.024 C 
ATOM     27  C   UNL     1      31.577  24.392  21.419  0.00  0.00    +0.104 C 
ENDBRANCH  15  27
ENDBRANCH   1  21
TORSDOF 2
ENDMDL
