MODEL 1
REMARK VINA RESULT:      -7.6      0.000      0.000
REMARK  Name = ZINC000583127796
REMARK  2 active torsions:
REMARK  status: ('A' for Active; 'I' for Inactive)
REMARK    1  A    between atoms: C_2  and  C_4
REMARK    2  A    between atoms: C_7  and  C_8
REMARK                            x       y       z     vdW  Elec       q    Type
REMARK                         _______ _______ _______ _____ _____    ______ ____
ROOT
ATOM      1  C   UNL     1      30.914  19.371  16.551  0.00  0.00    +0.247 C 
ATOM      2  O   UNL     1      32.064  19.711  16.825  0.00  0.00    -0.270 OA
ATOM      3  N   UNL     1      29.786  20.075  17.004  0.00  0.00    -0.297 N 
ATOM      4  C   UNL     1      28.386  19.749  16.723  0.00  0.00    +0.108 C 
ATOM      5  C   UNL     1      27.630  20.919  16.119  0.00  0.00    +0.020 C 
ATOM      6  C   UNL     1      27.812  22.183  16.938  0.00  0.00    +0.011 C 
ATOM      7  C   UNL     1      29.299  22.518  17.208  0.00  0.00    -0.004 C 
ATOM      8  C   UNL     1      29.322  23.739  18.153  0.00  0.00    +0.020 C 
ATOM      9  C   UNL     1      30.635  24.478  18.005  0.00  0.00    +0.070 C 
ATOM     10  S   UNL     1      30.955  24.453  16.234  0.00  0.00    -0.160 S 
ATOM     11  C   UNL     1      30.027  22.928  15.907  0.00  0.00    +0.077 C 
ATOM     12  C   UNL     1      29.985  21.273  17.836  0.00  0.00    +0.115 C 
ENDROOT
BRANCH   1  16
ATOM     13  C   UNL     1      30.483  16.338  13.565  0.00  0.00    +0.037 A 
ATOM     14  C   UNL     1      29.366  16.721  14.314  0.00  0.00    +0.014 A 
ATOM     15  C   UNL     1      29.513  17.625  15.370  0.00  0.00    +0.014 A 
ATOM     16  C   UNL     1      30.752  18.225  15.613  0.00  0.00    +0.037 A 
ATOM     17  C   UNL     1      31.887  17.762  14.931  0.00  0.00    +0.014 A 
ATOM     18  C   UNL     1      31.753  16.810  13.917  0.00  0.00    +0.014 A 
BRANCH  13  20
ATOM     19  N   UNL     1      29.086  15.058  12.042  0.00  0.00    -0.325 N 
ATOM     20  C   UNL     1      30.352  15.434  12.393  0.00  0.00    +0.242 C 
ATOM     21  O   UNL     1      31.326  15.088  11.742  0.00  0.00    -0.270 OA
ATOM     22  H   UNL     1      29.003  14.550  11.168  0.00  0.00    +0.145 HD
ATOM     23  H   UNL     1      28.266  15.543  12.378  0.00  0.00    +0.145 HD
ENDBRANCH  13  20
ENDBRANCH   1  16
TORSDOF 2
ENDMDL
MODEL 2
REMARK VINA RESULT:      -7.2      2.972      6.975
REMARK  Name = ZINC000583127796
REMARK  2 active torsions:
REMARK  status: ('A' for Active; 'I' for Inactive)
REMARK    1  A    between atoms: C_2  and  C_4
REMARK    2  A    between atoms: C_7  and  C_8
REMARK                            x       y       z     vdW  Elec       q    Type
REMARK                         _______ _______ _______ _____ _____    ______ ____
ROOT
ATOM      1  C   UNL     1      30.073  19.294  15.410  0.00  0.00    +0.247 C 
ATOM      2  O   UNL     1      29.749  19.741  14.311  0.00  0.00    -0.270 OA
ATOM      3  N   UNL     1      31.026  18.273  15.562  0.00  0.00    -0.297 N 
ATOM      4  C   UNL     1      31.479  17.686  16.826  0.00  0.00    +0.108 C 
ATOM      5  C   UNL     1      32.988  17.745  16.983  0.00  0.00    +0.020 C 
ATOM      6  C   UNL     1      33.698  17.191  15.762  0.00  0.00    +0.011 C 
ATOM      7  C   UNL     1      33.218  17.838  14.439  0.00  0.00    -0.004 C 
ATOM      8  C   UNL     1      33.923  17.089  13.288  0.00  0.00    +0.020 C 
ATOM      9  C   UNL     1      33.990  17.976  12.064  0.00  0.00    +0.070 C 
ATOM     10  S   UNL     1      34.388  19.603  12.723  0.00  0.00    -0.160 S 
ATOM     11  C   UNL     1      33.643  19.322  14.353  0.00  0.00    +0.077 C 
ATOM     12  C   UNL     1      31.670  17.719  14.360  0.00  0.00    +0.115 C 
ENDROOT
BRANCH   1  16
ATOM     13  C   UNL     1      28.184  21.413  18.610  0.00  0.00    +0.037 A 
ATOM     14  C   UNL     1      29.526  21.678  18.314  0.00  0.00    +0.014 A 
ATOM     15  C   UNL     1      30.190  20.914  17.350  0.00  0.00    +0.014 A 
ATOM     16  C   UNL     1      29.490  19.957  16.610  0.00  0.00    +0.037 A 
ATOM     17  C   UNL     1      28.180  19.622  16.979  0.00  0.00    +0.014 A 
ATOM     18  C   UNL     1      27.532  20.342  17.987  0.00  0.00    +0.014 A 
BRANCH  13  20
ATOM     19  N   UNL     1      26.790  23.350  19.075  0.00  0.00    -0.325 N 
ATOM     20  C   UNL     1      27.429  22.251  19.577  0.00  0.00    +0.242 C 
ATOM     21  O   UNL     1      27.340  21.941  20.755  0.00  0.00    -0.270 OA
ATOM     22  H   UNL     1      26.176  23.835  19.719  0.00  0.00    +0.145 HD
ATOM     23  H   UNL     1      26.616  23.468  18.087  0.00  0.00    +0.145 HD
ENDBRANCH  13  20
ENDBRANCH   1  16
TORSDOF 2
ENDMDL
MODEL 3
REMARK VINA RESULT:      -7.1      4.926      7.170
REMARK  Name = ZINC000583127796
REMARK  2 active torsions:
REMARK  status: ('A' for Active; 'I' for Inactive)
REMARK    1  A    between atoms: C_2  and  C_4
REMARK    2  A    between atoms: C_7  and  C_8
REMARK                            x       y       z     vdW  Elec       q    Type
REMARK                         _______ _______ _______ _____ _____    ______ ____
ROOT
ATOM      1  C   UNL     1      32.573  23.802  14.144  0.00  0.00    +0.247 C 
ATOM      2  O   UNL     1      33.637  23.186  14.120  0.00  0.00    -0.270 OA
ATOM      3  N   UNL     1      32.392  25.027  13.482  0.00  0.00    -0.297 N 
ATOM      4  C   UNL     1      31.163  25.826  13.449  0.00  0.00    +0.108 C 
ATOM      5  C   UNL     1      30.715  26.139  12.033  0.00  0.00    +0.020 C 
ATOM      6  C   UNL     1      31.846  26.721  11.206  0.00  0.00    +0.011 C 
ATOM      7  C   UNL     1      33.128  25.853  11.240  0.00  0.00    -0.004 C 
ATOM      8  C   UNL     1      34.219  26.631  10.473  0.00  0.00    +0.020 C 
ATOM      9  C   UNL     1      35.267  25.668   9.956  0.00  0.00    +0.070 C 
ATOM     10  S   UNL     1      34.316  24.253   9.380  0.00  0.00    -0.160 S 
ATOM     11  C   UNL     1      32.916  24.509  10.505  0.00  0.00    +0.077 C 
ATOM     12  C   UNL     1      33.516  25.597  12.722  0.00  0.00    +0.115 C 
ENDROOT
BRANCH   1  16
ATOM     13  C   UNL     1      29.036  22.126  15.869  0.00  0.00    +0.037 A 
ATOM     14  C   UNL     1      29.814  23.006  16.628  0.00  0.00    +0.014 A 
ATOM     15  C   UNL     1      31.032  23.471  16.124  0.00  0.00    +0.014 A 
ATOM     16  C   UNL     1      31.423  23.142  14.822  0.00  0.00    +0.037 A 
ATOM     17  C   UNL     1      30.696  22.180  14.107  0.00  0.00    +0.014 A 
ATOM     18  C   UNL     1      29.510  21.664  14.636  0.00  0.00    +0.014 A 
BRANCH  13  20
ATOM     19  N   UNL     1      26.896  22.609  16.918  0.00  0.00    -0.325 N 
ATOM     20  C   UNL     1      27.705  21.668  16.345  0.00  0.00    +0.242 C 
ATOM     21  O   UNL     1      27.332  20.516  16.183  0.00  0.00    -0.270 OA
ATOM     22  H   UNL     1      25.948  22.312  17.119  0.00  0.00    +0.145 HD
ATOM     23  H   UNL     1      27.061  23.600  16.810  0.00  0.00    +0.145 HD
ENDBRANCH  13  20
ENDBRANCH   1  16
TORSDOF 2
ENDMDL
MODEL 4
REMARK VINA RESULT:      -6.9      3.155      6.925
REMARK  Name = ZINC000583127796
REMARK  2 active torsions:
REMARK  status: ('A' for Active; 'I' for Inactive)
REMARK    1  A    between atoms: C_2  and  C_4
REMARK    2  A    between atoms: C_7  and  C_8
REMARK                            x       y       z     vdW  Elec       q    Type
REMARK                         _______ _______ _______ _____ _____    ______ ____
ROOT
ATOM      1  C   UNL     1      31.118  21.078  15.788  0.00  0.00    +0.247 C 
ATOM      2  O   UNL     1      32.222  21.619  15.806  0.00  0.00    -0.270 OA
ATOM      3  N   UNL     1      30.858  19.909  15.054  0.00  0.00    -0.297 N 
ATOM      4  C   UNL     1      29.582  19.193  14.979  0.00  0.00    +0.108 C 
ATOM      5  C   UNL     1      29.718  17.728  15.354  0.00  0.00    +0.020 C 
ATOM      6  C   UNL     1      30.842  17.058  14.585  0.00  0.00    +0.011 C 
ATOM      7  C   UNL     1      32.185  17.821  14.692  0.00  0.00    -0.004 C 
ATOM      8  C   UNL     1      33.187  17.103  13.762  0.00  0.00    +0.020 C 
ATOM      9  C   UNL     1      34.602  17.379  14.223  0.00  0.00    +0.070 C 
ATOM     10  S   UNL     1      34.506  17.283  16.017  0.00  0.00    -0.160 S 
ATOM     11  C   UNL     1      32.756  17.753  16.127  0.00  0.00    +0.077 C 
ATOM     12  C   UNL     1      31.952  19.301  14.279  0.00  0.00    +0.115 C 
ENDROOT
BRANCH   1  16
ATOM     13  C   UNL     1      28.055  22.367  18.483  0.00  0.00    +0.037 A 
ATOM     14  C   UNL     1      27.770  22.280  17.116  0.00  0.00    +0.014 A 
ATOM     15  C   UNL     1      28.789  21.974  16.210  0.00  0.00    +0.014 A 
ATOM     16  C   UNL     1      30.067  21.652  16.675  0.00  0.00    +0.037 A 
ATOM     17  C   UNL     1      30.376  21.841  18.030  0.00  0.00    +0.014 A 
ATOM     18  C   UNL     1      29.372  22.210  18.930  0.00  0.00    +0.014 A 
BRANCH  13  20
ATOM     19  N   UNL     1      26.004  23.505  19.122  0.00  0.00    -0.325 N 
ATOM     20  C   UNL     1      26.983  22.621  19.479  0.00  0.00    +0.242 C 
ATOM     21  O   UNL     1      26.950  22.026  20.545  0.00  0.00    -0.270 OA
ATOM     22  H   UNL     1      25.215  23.569  19.755  0.00  0.00    +0.145 HD
ATOM     23  H   UNL     1      25.856  23.787  18.163  0.00  0.00    +0.145 HD
ENDBRANCH  13  20
ENDBRANCH   1  16
TORSDOF 2
ENDMDL
MODEL 5
REMARK VINA RESULT:      -6.8      2.317      3.606
REMARK  Name = ZINC000583127796
REMARK  2 active torsions:
REMARK  status: ('A' for Active; 'I' for Inactive)
REMARK    1  A    between atoms: C_2  and  C_4
REMARK    2  A    between atoms: C_7  and  C_8
REMARK                            x       y       z     vdW  Elec       q    Type
REMARK                         _______ _______ _______ _____ _____    ______ ____
ROOT
ATOM      1  C   UNL     1      30.096  21.785  17.691  0.00  0.00    +0.247 C 
ATOM      2  O   UNL     1      29.658  21.863  18.838  0.00  0.00    -0.270 OA
ATOM      3  N   UNL     1      30.753  22.852  17.056  0.00  0.00    -0.297 N 
ATOM      4  C   UNL     1      31.312  22.849  15.702  0.00  0.00    +0.108 C 
ATOM      5  C   UNL     1      32.776  23.249  15.680  0.00  0.00    +0.020 C 
ATOM      6  C   UNL     1      33.011  24.544  16.436  0.00  0.00    +0.011 C 
ATOM      7  C   UNL     1      32.428  24.520  17.870  0.00  0.00    -0.004 C 
ATOM      8  C   UNL     1      32.624  25.933  18.461  0.00  0.00    +0.020 C 
ATOM      9  C   UNL     1      32.639  25.860  19.972  0.00  0.00    +0.070 C 
ATOM     10  S   UNL     1      33.596  24.378  20.329  0.00  0.00    -0.160 S 
ATOM     11  C   UNL     1      33.201  23.531  18.774  0.00  0.00    +0.077 C 
ATOM     12  C   UNL     1      30.930  24.115  17.792  0.00  0.00    +0.115 C 
ENDROOT
BRANCH   1  16
ATOM     13  C   UNL     1      30.043  18.130  15.470  0.00  0.00    +0.037 A 
ATOM     14  C   UNL     1      28.871  18.888  15.565  0.00  0.00    +0.014 A 
ATOM     15  C   UNL     1      28.840  20.022  16.380  0.00  0.00    +0.014 A 
ATOM     16  C   UNL     1      30.004  20.459  17.020  0.00  0.00    +0.037 A 
ATOM     17  C   UNL     1      31.145  19.643  17.007  0.00  0.00    +0.014 A 
ATOM     18  C   UNL     1      31.159  18.473  16.242  0.00  0.00    +0.014 A 
BRANCH  13  20
ATOM     19  N   UNL     1      29.003  16.204  14.410  0.00  0.00    -0.325 N 
ATOM     20  C   UNL     1      30.132  16.960  14.558  0.00  0.00    +0.242 C 
ATOM     21  O   UNL     1      31.151  16.718  13.930  0.00  0.00    -0.270 OA
ATOM     22  H   UNL     1      29.041  15.491  13.691  0.00  0.00    +0.145 HD
ATOM     23  H   UNL     1      28.091  16.538  14.688  0.00  0.00    +0.145 HD
ENDBRANCH  13  20
ENDBRANCH   1  16
TORSDOF 2
ENDMDL
MODEL 6
REMARK VINA RESULT:      -6.8      4.456      6.883
REMARK  Name = ZINC000583127796
REMARK  2 active torsions:
REMARK  status: ('A' for Active; 'I' for Inactive)
REMARK    1  A    between atoms: C_2  and  C_4
REMARK    2  A    between atoms: C_7  and  C_8
REMARK                            x       y       z     vdW  Elec       q    Type
REMARK                         _______ _______ _______ _____ _____    ______ ____
ROOT
ATOM      1  C   UNL     1      30.893  22.703  14.813  0.00  0.00    +0.247 C 
ATOM      2  O   UNL     1      30.175  22.374  13.871  0.00  0.00    -0.270 OA
ATOM      3  N   UNL     1      32.132  23.341  14.636  0.00  0.00    -0.297 N 
ATOM      4  C   UNL     1      33.048  23.774  15.694  0.00  0.00    +0.108 C 
ATOM      5  C   UNL     1      33.406  25.245  15.583  0.00  0.00    +0.020 C 
ATOM      6  C   UNL     1      33.876  25.600  14.185  0.00  0.00    +0.011 C 
ATOM      7  C   UNL     1      32.885  25.150  13.083  0.00  0.00    -0.004 C 
ATOM      8  C   UNL     1      33.552  25.455  11.724  0.00  0.00    +0.020 C 
ATOM      9  C   UNL     1      32.492  25.606  10.655  0.00  0.00    +0.070 C 
ATOM     10  S   UNL     1      31.178  26.531  11.467  0.00  0.00    -0.160 S 
ATOM     11  C   UNL     1      31.570  25.961  13.144  0.00  0.00    +0.077 C 
ATOM     12  C   UNL     1      32.589  23.636  13.268  0.00  0.00    +0.115 C 
ENDROOT
BRANCH   1  16
ATOM     13  C   UNL     1      29.023  21.933  18.582  0.00  0.00    +0.037 A 
ATOM     14  C   UNL     1      29.054  23.242  18.091  0.00  0.00    +0.014 A 
ATOM     15  C   UNL     1      29.760  23.530  16.920  0.00  0.00    +0.014 A 
ATOM     16  C   UNL     1      30.348  22.496  16.184  0.00  0.00    +0.037 A 
ATOM     17  C   UNL     1      30.405  21.207  16.731  0.00  0.00    +0.014 A 
ATOM     18  C   UNL     1      29.753  20.929  17.936  0.00  0.00    +0.014 A 
BRANCH  13  20
ATOM     19  N   UNL     1      26.896  21.321  19.590  0.00  0.00    -0.325 N 
ATOM     20  C   UNL     1      28.224  21.581  19.784  0.00  0.00    +0.242 C 
ATOM     21  O   UNL     1      28.742  21.476  20.886  0.00  0.00    -0.270 OA
ATOM     22  H   UNL     1      26.396  20.958  20.393  0.00  0.00    +0.145 HD
ATOM     23  H   UNL     1      26.513  21.127  18.676  0.00  0.00    +0.145 HD
ENDBRANCH  13  20
ENDBRANCH   1  16
TORSDOF 2
ENDMDL
MODEL 7
REMARK VINA RESULT:      -6.8      4.809      6.867
REMARK  Name = ZINC000583127796
REMARK  2 active torsions:
REMARK  status: ('A' for Active; 'I' for Inactive)
REMARK    1  A    between atoms: C_2  and  C_4
REMARK    2  A    between atoms: C_7  and  C_8
REMARK                            x       y       z     vdW  Elec       q    Type
REMARK                         _______ _______ _______ _____ _____    ______ ____
ROOT
ATOM      1  C   UNL     1      31.699  23.706  15.061  0.00  0.00    +0.247 C 
ATOM      2  O   UNL     1      31.870  24.419  16.048  0.00  0.00    -0.270 OA
ATOM      3  N   UNL     1      31.216  22.390  15.149  0.00  0.00    -0.297 N 
ATOM      4  C   UNL     1      30.975  21.473  14.032  0.00  0.00    +0.108 C 
ATOM      5  C   UNL     1      29.558  20.927  14.027  0.00  0.00    +0.020 C 
ATOM      6  C   UNL     1      29.177  20.356  15.381  0.00  0.00    +0.011 C 
ATOM      7  C   UNL     1      29.422  21.347  16.545  0.00  0.00    -0.004 C 
ATOM      8  C   UNL     1      29.118  20.589  17.855  0.00  0.00    +0.020 C 
ATOM      9  C   UNL     1      28.762  21.574  18.947  0.00  0.00    +0.070 C 
ATOM     10  S   UNL     1      27.730  22.793  18.118  0.00  0.00    -0.160 S 
ATOM     11  C   UNL     1      28.454  22.550  16.472  0.00  0.00    +0.077 C 
ATOM     12  C   UNL     1      30.894  21.840  16.477  0.00  0.00    +0.115 C 
ENDROOT
BRANCH   1  16
ATOM     13  C   UNL     1      32.622  25.714  11.398  0.00  0.00    +0.037 A 
ATOM     14  C   UNL     1      31.434  26.026  12.067  0.00  0.00    +0.014 A 
ATOM     15  C   UNL     1      31.061  25.300  13.200  0.00  0.00    +0.014 A 
ATOM     16  C   UNL     1      31.922  24.331  13.727  0.00  0.00    +0.037 A 
ATOM     17  C   UNL     1      33.057  23.949  12.999  0.00  0.00    +0.014 A 
ATOM     18  C   UNL     1      33.400  24.632  11.829  0.00  0.00    +0.014 A 
BRANCH  13  20
ATOM     19  N   UNL     1      33.062  25.895   9.013  0.00  0.00    -0.325 N 
ATOM     20  C   UNL     1      33.083  26.512  10.233  0.00  0.00    +0.242 C 
ATOM     21  O   UNL     1      33.415  27.681  10.352  0.00  0.00    -0.270 OA
ATOM     22  H   UNL     1      33.255  26.489   8.215  0.00  0.00    +0.145 HD
ATOM     23  H   UNL     1      32.539  25.047   8.847  0.00  0.00    +0.145 HD
ENDBRANCH  13  20
ENDBRANCH   1  16
TORSDOF 2
ENDMDL
MODEL 8
REMARK VINA RESULT:      -6.8      3.475      6.927
REMARK  Name = ZINC000583127796
REMARK  2 active torsions:
REMARK  status: ('A' for Active; 'I' for Inactive)
REMARK    1  A    between atoms: C_2  and  C_4
REMARK    2  A    between atoms: C_7  and  C_8
REMARK                            x       y       z     vdW  Elec       q    Type
REMARK                         _______ _______ _______ _____ _____    ______ ____
ROOT
ATOM      1  C   UNL     1      30.992  17.666  14.855  0.00  0.00    +0.247 C 
ATOM      2  O   UNL     1      30.588  16.771  14.116  0.00  0.00    -0.270 OA
ATOM      3  N   UNL     1      32.318  17.731  15.313  0.00  0.00    -0.297 N 
ATOM      4  C   UNL     1      32.889  18.760  16.187  0.00  0.00    +0.108 C 
ATOM      5  C   UNL     1      34.122  19.411  15.585  0.00  0.00    +0.020 C 
ATOM      6  C   UNL     1      35.129  18.375  15.121  0.00  0.00    +0.011 C 
ATOM      7  C   UNL     1      34.509  17.308  14.185  0.00  0.00    -0.004 C 
ATOM      8  C   UNL     1      35.608  16.260  13.906  0.00  0.00    +0.020 C 
ATOM      9  C   UNL     1      35.317  15.546  12.603  0.00  0.00    +0.070 C 
ATOM     10  S   UNL     1      34.741  16.852  11.507  0.00  0.00    -0.160 S 
ATOM     11  C   UNL     1      34.102  17.923  12.826  0.00  0.00    +0.077 C 
ATOM     12  C   UNL     1      33.268  16.690  14.886  0.00  0.00    +0.115 C 
ENDROOT
BRANCH   1  16
ATOM     13  C   UNL     1      28.556  21.019  15.915  0.00  0.00    +0.037 A 
ATOM     14  C   UNL     1      28.441  19.833  16.648  0.00  0.00    +0.014 A 
ATOM     15  C   UNL     1      29.143  18.694  16.245  0.00  0.00    +0.014 A 
ATOM     16  C   UNL     1      30.038  18.765  15.173  0.00  0.00    +0.037 A 
ATOM     17  C   UNL     1      30.072  19.921  14.379  0.00  0.00    +0.014 A 
ATOM     18  C   UNL     1      29.321  21.042  14.744  0.00  0.00    +0.014 A 
BRANCH  13  20
ATOM     19  N   UNL     1      28.677  23.350  16.597  0.00  0.00    -0.325 N 
ATOM     20  C   UNL     1      27.880  22.266  16.357  0.00  0.00    +0.242 C 
ATOM     21  O   UNL     1      26.663  22.334  16.449  0.00  0.00    -0.270 OA
ATOM     22  H   UNL     1      28.193  24.223  16.771  0.00  0.00    +0.145 HD
ATOM     23  H   UNL     1      29.629  23.403  16.264  0.00  0.00    +0.145 HD
ENDBRANCH  13  20
ENDBRANCH   1  16
TORSDOF 2
ENDMDL
MODEL 9
REMARK VINA RESULT:      -6.6      5.223      7.449
REMARK  Name = ZINC000583127796
REMARK  2 active torsions:
REMARK  status: ('A' for Active; 'I' for Inactive)
REMARK    1  A    between atoms: C_2  and  C_4
REMARK    2  A    between atoms: C_7  and  C_8
REMARK                            x       y       z     vdW  Elec       q    Type
REMARK                         _______ _______ _______ _____ _____    ______ ____
ROOT
ATOM      1  C   UNL     1      31.633  24.279  14.828  0.00  0.00    +0.247 C 
ATOM      2  O   UNL     1      30.895  25.026  15.467  0.00  0.00    -0.270 OA
ATOM      3  N   UNL     1      31.879  22.949  15.207  0.00  0.00    -0.297 N 
ATOM      4  C   UNL     1      32.734  21.987  14.506  0.00  0.00    +0.108 C 
ATOM      5  C   UNL     1      32.001  20.701  14.169  0.00  0.00    +0.020 C 
ATOM      6  C   UNL     1      31.299  20.124  15.384  0.00  0.00    +0.011 C 
ATOM      7  C   UNL     1      30.387  21.152  16.098  0.00  0.00    -0.004 C 
ATOM      8  C   UNL     1      29.852  20.468  17.375  0.00  0.00    +0.020 C 
ATOM      9  C   UNL     1      28.557  21.124  17.803  0.00  0.00    +0.070 C 
ATOM     10  S   UNL     1      27.678  21.409  16.259  0.00  0.00    -0.160 S 
ATOM     11  C   UNL     1      29.165  21.521  15.226  0.00  0.00    +0.077 C 
ATOM     12  C   UNL     1      31.222  22.423  16.415  0.00  0.00    +0.115 C 
ENDROOT
BRANCH   1  16
ATOM     13  C   UNL     1      33.247  26.141  11.331  0.00  0.00    +0.037 A 
ATOM     14  C   UNL     1      31.900  25.764  11.343  0.00  0.00    +0.014 A 
ATOM     15  C   UNL     1      31.386  25.051  12.430  0.00  0.00    +0.014 A 
ATOM     16  C   UNL     1      32.188  24.806  13.550  0.00  0.00    +0.037 A 
ATOM     17  C   UNL     1      33.559  25.092  13.491  0.00  0.00    +0.014 A 
ATOM     18  C   UNL     1      34.090  25.748  12.377  0.00  0.00    +0.014 A 
BRANCH  13  20
ATOM     19  N   UNL     1      34.422  26.286   9.207  0.00  0.00    -0.325 N 
ATOM     20  C   UNL     1      33.807  26.960  10.225  0.00  0.00    +0.242 C 
ATOM     21  O   UNL     1      33.676  28.174  10.201  0.00  0.00    -0.270 OA
ATOM     22  H   UNL     1      34.682  26.844   8.403  0.00  0.00    +0.145 HD
ATOM     23  H   UNL     1      34.297  25.294   9.065  0.00  0.00    +0.145 HD
ENDBRANCH  13  20
ENDBRANCH   1  16
TORSDOF 2
ENDMDL
