MODEL 1
REMARK VINA RESULT:      -6.9      0.000      0.000
REMARK  Name = ZINC000560333501
REMARK  5 active torsions:
REMARK  status: ('A' for Active; 'I' for Inactive)
REMARK    1  A    between atoms: C_2  and  C_3
REMARK    2  A    between atoms: C_7  and  C_8
REMARK    3  A    between atoms: C_8  and  C_9
REMARK    4  A    between atoms: N_11  and  C_12
REMARK    5  A    between atoms: C_12  and  C_13
REMARK                            x       y       z     vdW  Elec       q    Type
REMARK                         _______ _______ _______ _____ _____    ______ ____
ROOT
ATOM      1  C   UNL     1      31.595  20.807  14.903  0.00  0.00    +0.217 C 
ATOM      2  O   UNL     1      31.439  21.213  13.748  0.00  0.00    -0.275 OA
ATOM      3  N   UNL     1      31.459  19.478  15.263  0.00  0.00    -0.315 N 
ATOM      4  H   UNL     1      31.891  19.210  16.139  0.00  0.00    +0.149 HD
ENDROOT
BRANCH   1   5
ATOM      5  C   UNL     1      31.948  21.762  16.018  0.00  0.00    +0.131 C 
BRANCH   5  10
ATOM      6  C   UNL     1      28.420  22.168  17.464  0.00  0.00    +0.052 A 
ATOM      7  C   UNL     1      28.698  22.838  18.661  0.00  0.00    +0.019 A 
ATOM      8  C   UNL     1      30.013  23.175  18.981  0.00  0.00    +0.002 A 
ATOM      9  C   UNL     1      31.052  22.849  18.107  0.00  0.00    +0.004 A 
ATOM     10  C   UNL     1      30.793  22.184  16.900  0.00  0.00    -0.037 A 
ATOM     11  C   UNL     1      29.466  21.839  16.591  0.00  0.00    +0.023 A 
BRANCH   6  13
ATOM     12  N   UNL     1      25.975  21.513  16.897  0.00  0.00    -0.191 NA
ATOM     13  C   UNL     1      27.071  21.805  17.147  0.00  0.00    +0.099 C 
ENDBRANCH   6  13
ENDBRANCH   5  10
ENDBRANCH   1   5
BRANCH   3  14
ATOM     14  C   UNL     1      31.450  18.480  14.209  0.00  0.00    +0.108 C 
BRANCH  14  15
ATOM     15  C   UNL     1      31.240  17.018  14.649  0.00  0.00    +0.011 C 
ATOM     16  C   UNL     1      32.175  16.578  15.771  0.00  0.00    +0.033 C 
ATOM     17  C   UNL     1      33.628  16.682  15.331  0.00  0.00    +0.161 C 
ATOM     18  O   UNL     1      33.886  16.088  14.060  0.00  0.00    -0.373 OA
ATOM     19  C   UNL     1      32.928  16.177  12.966  0.00  0.00    +0.070 C 
ATOM     20  C   UNL     1      33.123  17.309  11.898  0.00  0.00    +0.035 C 
ATOM     21  C   UNL     1      34.030  16.360  11.115  0.00  0.00    +0.006 C 
ATOM     22  C   UNL     1      33.302  15.192  11.806  0.00  0.00    +0.035 C 
ATOM     23  C   UNL     1      31.485  16.051  13.472  0.00  0.00    +0.040 C 
ENDBRANCH  14  15
ENDBRANCH   3  14
TORSDOF 5
ENDMDL
MODEL 2
REMARK VINA RESULT:      -6.8      4.324      5.989
REMARK  Name = ZINC000560333501
REMARK  5 active torsions:
REMARK  status: ('A' for Active; 'I' for Inactive)
REMARK    1  A    between atoms: C_2  and  C_3
REMARK    2  A    between atoms: C_7  and  C_8
REMARK    3  A    between atoms: C_8  and  C_9
REMARK    4  A    between atoms: N_11  and  C_12
REMARK    5  A    between atoms: C_12  and  C_13
REMARK                            x       y       z     vdW  Elec       q    Type
REMARK                         _______ _______ _______ _____ _____    ______ ____
ROOT
ATOM      1  C   UNL     1      31.989  21.901  13.657  0.00  0.00    +0.217 C 
ATOM      2  O   UNL     1      31.954  23.118  13.860  0.00  0.00    -0.275 OA
ATOM      3  N   UNL     1      32.461  21.343  12.482  0.00  0.00    -0.315 N 
ATOM      4  H   UNL     1      32.725  20.366  12.531  0.00  0.00    +0.149 HD
ENDROOT
BRANCH   1   5
ATOM      5  C   UNL     1      31.503  20.927  14.704  0.00  0.00    +0.131 C 
BRANCH   5  10
ATOM      6  C   UNL     1      28.527  21.898  16.918  0.00  0.00    +0.052 A 
ATOM      7  C   UNL     1      29.182  22.517  17.989  0.00  0.00    +0.019 A 
ATOM      8  C   UNL     1      30.571  22.638  17.978  0.00  0.00    +0.002 A 
ATOM      9  C   UNL     1      31.309  22.148  16.899  0.00  0.00    +0.004 A 
ATOM     10  C   UNL     1      30.670  21.531  15.814  0.00  0.00    -0.037 A 
ATOM     11  C   UNL     1      29.271  21.403  15.838  0.00  0.00    +0.023 A 
BRANCH   6  13
ATOM     12  N   UNL     1      25.946  21.643  16.949  0.00  0.00    -0.191 NA
ATOM     13  C   UNL     1      27.101  21.757  16.940  0.00  0.00    +0.099 C 
ENDBRANCH   6  13
ENDBRANCH   5  10
ENDBRANCH   1   5
BRANCH   3  14
ATOM     14  C   UNL     1      33.237  22.184  11.587  0.00  0.00    +0.108 C 
BRANCH  14  15
ATOM     15  C   UNL     1      32.458  22.889  10.461  0.00  0.00    +0.011 C 
ATOM     16  C   UNL     1      32.807  22.380   9.066  0.00  0.00    +0.033 C 
ATOM     17  C   UNL     1      34.281  22.604   8.765  0.00  0.00    +0.161 C 
ATOM     18  O   UNL     1      34.730  23.926   9.056  0.00  0.00    -0.373 OA
ATOM     19  C   UNL     1      34.244  24.661  10.217  0.00  0.00    +0.070 C 
ATOM     20  C   UNL     1      35.106  24.636  11.527  0.00  0.00    +0.035 C 
ATOM     21  C   UNL     1      35.874  25.847  10.999  0.00  0.00    +0.006 C 
ATOM     22  C   UNL     1      34.642  26.174  10.134  0.00  0.00    +0.035 C 
ATOM     23  C   UNL     1      32.751  24.404  10.457  0.00  0.00    +0.040 C 
ENDBRANCH  14  15
ENDBRANCH   3  14
TORSDOF 5
ENDMDL
MODEL 3
REMARK VINA RESULT:      -6.8      1.642      2.280
REMARK  Name = ZINC000560333501
REMARK  5 active torsions:
REMARK  status: ('A' for Active; 'I' for Inactive)
REMARK    1  A    between atoms: C_2  and  C_3
REMARK    2  A    between atoms: C_7  and  C_8
REMARK    3  A    between atoms: C_8  and  C_9
REMARK    4  A    between atoms: N_11  and  C_12
REMARK    5  A    between atoms: C_12  and  C_13
REMARK                            x       y       z     vdW  Elec       q    Type
REMARK                         _______ _______ _______ _____ _____    ______ ____
ROOT
ATOM      1  C   UNL     1      30.722  20.391  14.530  0.00  0.00    +0.217 C 
ATOM      2  O   UNL     1      31.724  20.543  15.234  0.00  0.00    -0.275 OA
ATOM      3  N   UNL     1      30.624  19.413  13.555  0.00  0.00    -0.315 N 
ATOM      4  H   UNL     1      29.686  19.181  13.254  0.00  0.00    +0.149 HD
ENDROOT
BRANCH   1   5
ATOM      5  C   UNL     1      29.517  21.286  14.692  0.00  0.00    +0.131 C 
BRANCH   5  10
ATOM      6  C   UNL     1      29.800  22.790  18.207  0.00  0.00    +0.052 A 
ATOM      7  C   UNL     1      28.503  22.586  18.690  0.00  0.00    +0.019 A 
ATOM      8  C   UNL     1      27.556  21.946  17.891  0.00  0.00    +0.002 A 
ATOM      9  C   UNL     1      27.902  21.504  16.613  0.00  0.00    +0.004 A 
ATOM     10  C   UNL     1      29.199  21.693  16.114  0.00  0.00    -0.037 A 
ATOM     11  C   UNL     1      30.143  22.348  16.922  0.00  0.00    +0.023 A 
BRANCH   6  13
ATOM     12  N   UNL     1      31.552  24.006  19.685  0.00  0.00    -0.191 NA
ATOM     13  C   UNL     1      30.767  23.466  19.022  0.00  0.00    +0.099 C 
ENDBRANCH   6  13
ENDBRANCH   5  10
ENDBRANCH   1   5
BRANCH   3  14
ATOM     14  C   UNL     1      31.591  18.329  13.572  0.00  0.00    +0.108 C 
BRANCH  14  15
ATOM     15  C   UNL     1      31.175  17.050  14.323  0.00  0.00    +0.011 C 
ATOM     16  C   UNL     1      31.994  16.790  15.584  0.00  0.00    +0.033 C 
ATOM     17  C   UNL     1      33.467  16.619  15.241  0.00  0.00    +0.161 C 
ATOM     18  O   UNL     1      33.704  15.712  14.168  0.00  0.00    -0.373 OA
ATOM     19  C   UNL     1      32.817  15.643  13.014  0.00  0.00    +0.070 C 
ATOM     20  C   UNL     1      33.204  16.455  11.729  0.00  0.00    +0.035 C 
ATOM     21  C   UNL     1      34.017  15.249  11.259  0.00  0.00    +0.006 C 
ATOM     22  C   UNL     1      33.114  14.372  12.147  0.00  0.00    +0.035 C 
ATOM     23  C   UNL     1      31.349  15.807  13.426  0.00  0.00    +0.040 C 
ENDBRANCH  14  15
ENDBRANCH   3  14
TORSDOF 5
ENDMDL
MODEL 4
REMARK VINA RESULT:      -6.6      3.904      5.197
REMARK  Name = ZINC000560333501
REMARK  5 active torsions:
REMARK  status: ('A' for Active; 'I' for Inactive)
REMARK    1  A    between atoms: C_2  and  C_3
REMARK    2  A    between atoms: C_7  and  C_8
REMARK    3  A    between atoms: C_8  and  C_9
REMARK    4  A    between atoms: N_11  and  C_12
REMARK    5  A    between atoms: C_12  and  C_13
REMARK                            x       y       z     vdW  Elec       q    Type
REMARK                         _______ _______ _______ _____ _____    ______ ____
ROOT
ATOM      1  C   UNL     1      31.733  22.440  13.814  0.00  0.00    +0.217 C 
ATOM      2  O   UNL     1      31.516  23.642  13.985  0.00  0.00    -0.275 OA
ATOM      3  N   UNL     1      32.122  21.906  12.598  0.00  0.00    -0.315 N 
ATOM      4  H   UNL     1      32.556  20.992  12.634  0.00  0.00    +0.149 HD
ENDROOT
BRANCH   1   5
ATOM      5  C   UNL     1      31.578  21.456  14.949  0.00  0.00    +0.131 C 
BRANCH   5  10
ATOM      6  C   UNL     1      28.436  22.007  17.078  0.00  0.00    +0.052 A 
ATOM      7  C   UNL     1      28.993  22.563  18.236  0.00  0.00    +0.019 A 
ATOM      8  C   UNL     1      30.368  22.778  18.312  0.00  0.00    +0.002 A 
ATOM      9  C   UNL     1      31.191  22.444  17.234  0.00  0.00    +0.004 A 
ATOM     10  C   UNL     1      30.651  21.893  16.064  0.00  0.00    -0.037 A 
ATOM     11  C   UNL     1      29.265  21.669  15.999  0.00  0.00    +0.023 A 
BRANCH   6  13
ATOM     12  N   UNL     1      25.882  21.576  16.944  0.00  0.00    -0.191 NA
ATOM     13  C   UNL     1      27.025  21.769  17.009  0.00  0.00    +0.099 C 
ENDBRANCH   6  13
ENDBRANCH   5  10
ENDBRANCH   1   5
BRANCH   3  14
ATOM     14  C   UNL     1      32.604  22.815  11.573  0.00  0.00    +0.108 C 
BRANCH  14  15
ATOM     15  C   UNL     1      34.105  23.159  11.611  0.00  0.00    +0.011 C 
ATOM     16  C   UNL     1      34.431  24.533  11.033  0.00  0.00    +0.033 C 
ATOM     17  C   UNL     1      34.015  24.615   9.572  0.00  0.00    +0.161 C 
ATOM     18  O   UNL     1      34.457  23.509   8.788  0.00  0.00    -0.373 OA
ATOM     19  C   UNL     1      34.481  22.154   9.322  0.00  0.00    +0.070 C 
ATOM     20  C   UNL     1      33.261  21.215   9.021  0.00  0.00    +0.035 C 
ATOM     21  C   UNL     1      33.958  20.789   7.728  0.00  0.00    +0.006 C 
ATOM     22  C   UNL     1      35.291  21.192   8.387  0.00  0.00    +0.035 C 
ATOM     23  C   UNL     1      34.922  22.137  10.791  0.00  0.00    +0.040 C 
ENDBRANCH  14  15
ENDBRANCH   3  14
TORSDOF 5
ENDMDL
MODEL 5
REMARK VINA RESULT:      -6.4      3.155      4.565
REMARK  Name = ZINC000560333501
REMARK  5 active torsions:
REMARK  status: ('A' for Active; 'I' for Inactive)
REMARK    1  A    between atoms: C_2  and  C_3
REMARK    2  A    between atoms: C_7  and  C_8
REMARK    3  A    between atoms: C_8  and  C_9
REMARK    4  A    between atoms: N_11  and  C_12
REMARK    5  A    between atoms: C_12  and  C_13
REMARK                            x       y       z     vdW  Elec       q    Type
REMARK                         _______ _______ _______ _____ _____    ______ ____
ROOT
ATOM      1  C   UNL     1      32.437  20.321  13.794  0.00  0.00    +0.217 C 
ATOM      2  O   UNL     1      33.630  20.009  13.785  0.00  0.00    -0.275 OA
ATOM      3  N   UNL     1      31.439  19.514  13.274  0.00  0.00    -0.315 N 
ATOM      4  H   UNL     1      30.499  19.712  13.593  0.00  0.00    +0.149 HD
ENDROOT
BRANCH   1   5
ATOM      5  C   UNL     1      31.984  21.636  14.384  0.00  0.00    +0.131 C 
BRANCH   5  10
ATOM      6  C   UNL     1      32.054  23.723  11.168  0.00  0.00    +0.052 A 
ATOM      7  C   UNL     1      31.171  24.756  11.501  0.00  0.00    +0.019 A 
ATOM      8  C   UNL     1      30.581  24.786  12.764  0.00  0.00    +0.002 A 
ATOM      9  C   UNL     1      30.872  23.790  13.698  0.00  0.00    +0.004 A 
ATOM     10  C   UNL     1      31.760  22.750  13.385  0.00  0.00    -0.037 A 
ATOM     11  C   UNL     1      32.342  22.722  12.106  0.00  0.00    +0.023 A 
BRANCH   6  13
ATOM     12  N   UNL     1      33.117  23.647   8.802  0.00  0.00    -0.191 NA
ATOM     13  C   UNL     1      32.645  23.682   9.862  0.00  0.00    +0.099 C 
ENDBRANCH   6  13
ENDBRANCH   5  10
ENDBRANCH   1   5
BRANCH   3  14
ATOM     14  C   UNL     1      31.756  18.123  13.001  0.00  0.00    +0.108 C 
BRANCH  14  15
ATOM     15  C   UNL     1      31.139  17.080  13.951  0.00  0.00    +0.011 C 
ATOM     16  C   UNL     1      31.813  17.026  15.319  0.00  0.00    +0.033 C 
ATOM     17  C   UNL     1      33.282  16.655  15.179  0.00  0.00    +0.161 C 
ATOM     18  O   UNL     1      33.510  15.520  14.348  0.00  0.00    -0.373 OA
ATOM     19  C   UNL     1      32.723  15.282  13.145  0.00  0.00    +0.070 C 
ATOM     20  C   UNL     1      33.306  15.759  11.769  0.00  0.00    +0.035 C 
ATOM     21  C   UNL     1      34.019  14.412  11.648  0.00  0.00    +0.006 C 
ATOM     22  C   UNL     1      32.953  13.832  12.596  0.00  0.00    +0.035 C 
ATOM     23  C   UNL     1      31.252  15.661  13.354  0.00  0.00    +0.040 C 
ENDBRANCH  14  15
ENDBRANCH   3  14
TORSDOF 5
ENDMDL
MODEL 6
REMARK VINA RESULT:      -6.3      3.865      5.072
REMARK  Name = ZINC000560333501
REMARK  5 active torsions:
REMARK  status: ('A' for Active; 'I' for Inactive)
REMARK    1  A    between atoms: C_2  and  C_3
REMARK    2  A    between atoms: C_7  and  C_8
REMARK    3  A    between atoms: C_8  and  C_9
REMARK    4  A    between atoms: N_11  and  C_12
REMARK    5  A    between atoms: C_12  and  C_13
REMARK                            x       y       z     vdW  Elec       q    Type
REMARK                         _______ _______ _______ _____ _____    ______ ____
ROOT
ATOM      1  C   UNL     1      30.627  21.762  13.901  0.00  0.00    +0.217 C 
ATOM      2  O   UNL     1      30.529  22.962  13.630  0.00  0.00    -0.275 OA
ATOM      3  N   UNL     1      31.715  20.989  13.535  0.00  0.00    -0.315 N 
ATOM      4  H   UNL     1      31.837  20.126  14.049  0.00  0.00    +0.149 HD
ENDROOT
BRANCH   1   5
ATOM      5  C   UNL     1      29.535  21.049  14.662  0.00  0.00    +0.131 C 
BRANCH   5  10
ATOM      6  C   UNL     1      30.017  22.703  18.088  0.00  0.00    +0.052 A 
ATOM      7  C   UNL     1      28.709  22.670  18.587  0.00  0.00    +0.019 A 
ATOM      8  C   UNL     1      27.691  22.095  17.828  0.00  0.00    +0.002 A 
ATOM      9  C   UNL     1      27.972  21.548  16.575  0.00  0.00    +0.004 A 
ATOM     10  C   UNL     1      29.277  21.566  16.062  0.00  0.00    -0.037 A 
ATOM     11  C   UNL     1      30.296  22.157  16.827  0.00  0.00    +0.023 A 
BRANCH   6  13
ATOM     12  N   UNL     1      31.905  23.811  19.479  0.00  0.00    -0.191 NA
ATOM     13  C   UNL     1      31.059  23.312  18.860  0.00  0.00    +0.099 C 
ENDBRANCH   6  13
ENDBRANCH   5  10
ENDBRANCH   1   5
BRANCH   3  14
ATOM     14  C   UNL     1      32.924  21.669  13.105  0.00  0.00    +0.108 C 
BRANCH  14  15
ATOM     15  C   UNL     1      33.897  20.853  12.232  0.00  0.00    +0.011 C 
ATOM     16  C   UNL     1      35.354  21.281  12.379  0.00  0.00    +0.033 C 
ATOM     17  C   UNL     1      35.531  22.734  11.964  0.00  0.00    +0.161 C 
ATOM     18  O   UNL     1      34.932  23.049  10.710  0.00  0.00    -0.373 OA
ATOM     19  C   UNL     1      33.659  22.469  10.303  0.00  0.00    +0.070 C 
ATOM     20  C   UNL     1      32.351  23.298  10.550  0.00  0.00    +0.035 C 
ATOM     21  C   UNL     1      32.560  23.960   9.188  0.00  0.00    +0.006 C 
ATOM     22  C   UNL     1      33.382  22.722   8.782  0.00  0.00    +0.035 C 
ATOM     23  C   UNL     1      33.548  21.001  10.736  0.00  0.00    +0.040 C 
ENDBRANCH  14  15
ENDBRANCH   3  14
TORSDOF 5
ENDMDL
MODEL 7
REMARK VINA RESULT:      -6.3     18.876     21.180
REMARK  Name = ZINC000560333501
REMARK  5 active torsions:
REMARK  status: ('A' for Active; 'I' for Inactive)
REMARK    1  A    between atoms: C_2  and  C_3
REMARK    2  A    between atoms: C_7  and  C_8
REMARK    3  A    between atoms: C_8  and  C_9
REMARK    4  A    between atoms: N_11  and  C_12
REMARK    5  A    between atoms: C_12  and  C_13
REMARK                            x       y       z     vdW  Elec       q    Type
REMARK                         _______ _______ _______ _____ _____    ______ ____
ROOT
ATOM      1  C   UNL     1      19.569  11.399   2.085  0.00  0.00    +0.217 C 
ATOM      2  O   UNL     1      20.028  12.496   1.755  0.00  0.00    -0.275 OA
ATOM      3  N   UNL     1      18.561  10.759   1.385  0.00  0.00    -0.315 N 
ATOM      4  H   UNL     1      18.470   9.764   1.551  0.00  0.00    +0.149 HD
ENDROOT
BRANCH   1   5
ATOM      5  C   UNL     1      20.092  10.675   3.303  0.00  0.00    +0.131 C 
BRANCH   5  10
ATOM      6  C   UNL     1      23.007   8.468   2.151  0.00  0.00    +0.052 A 
ATOM      7  C   UNL     1      22.621   7.225   2.666  0.00  0.00    +0.019 A 
ATOM      8  C   UNL     1      21.416   7.103   3.357  0.00  0.00    +0.002 A 
ATOM      9  C   UNL     1      20.592   8.217   3.532  0.00  0.00    +0.004 A 
ATOM     10  C   UNL     1      20.959   9.468   3.018  0.00  0.00    -0.037 A 
ATOM     11  C   UNL     1      22.180   9.585   2.332  0.00  0.00    +0.023 A 
BRANCH   6  13
ATOM     12  N   UNL     1      25.270   8.697   0.903  0.00  0.00    -0.191 NA
ATOM     13  C   UNL     1      24.255   8.595   1.458  0.00  0.00    +0.099 C 
ENDBRANCH   6  13
ENDBRANCH   5  10
ENDBRANCH   1   5
BRANCH   3  14
ATOM     14  C   UNL     1      18.251  11.228   0.046  0.00  0.00    +0.108 C 
BRANCH  14  15
ATOM     15  C   UNL     1      18.134  10.151  -1.048  0.00  0.00    +0.011 C 
ATOM     16  C   UNL     1      19.147   9.020  -0.903  0.00  0.00    +0.033 C 
ATOM     17  C   UNL     1      20.568   9.557  -0.989  0.00  0.00    +0.161 C 
ATOM     18  O   UNL     1      20.786  10.425  -2.099  0.00  0.00    -0.373 OA
ATOM     19  C   UNL     1      19.768  11.368  -2.544  0.00  0.00    +0.070 C 
ATOM     20  C   UNL     1      19.852  12.848  -2.032  0.00  0.00    +0.035 C 
ATOM     21  C   UNL     1      20.761  13.166  -3.220  0.00  0.00    +0.006 C 
ATOM     22  C   UNL     1      20.126  11.966  -3.947  0.00  0.00    +0.035 C 
ATOM     23  C   UNL     1      18.362  10.763  -2.447  0.00  0.00    +0.040 C 
ENDBRANCH  14  15
ENDBRANCH   3  14
TORSDOF 5
ENDMDL
MODEL 8
REMARK VINA RESULT:      -6.3      3.040      7.548
REMARK  Name = ZINC000560333501
REMARK  5 active torsions:
REMARK  status: ('A' for Active; 'I' for Inactive)
REMARK    1  A    between atoms: C_2  and  C_3
REMARK    2  A    between atoms: C_7  and  C_8
REMARK    3  A    between atoms: C_8  and  C_9
REMARK    4  A    between atoms: N_11  and  C_12
REMARK    5  A    between atoms: C_12  and  C_13
REMARK                            x       y       z     vdW  Elec       q    Type
REMARK                         _______ _______ _______ _____ _____    ______ ____
ROOT
ATOM      1  C   UNL     1      34.576  19.996  17.280  0.00  0.00    +0.217 C 
ATOM      2  O   UNL     1      35.364  20.496  16.472  0.00  0.00    -0.275 OA
ATOM      3  N   UNL     1      34.029  20.700  18.338  0.00  0.00    -0.315 N 
ATOM      4  H   UNL     1      33.190  20.305  18.746  0.00  0.00    +0.149 HD
ENDROOT
BRANCH   1   5
ATOM      5  C   UNL     1      34.157  18.550  17.160  0.00  0.00    +0.131 C 
BRANCH   5  10
ATOM      6  C   UNL     1      31.068  19.107  14.957  0.00  0.00    +0.052 A 
ATOM      7  C   UNL     1      30.770  17.793  14.577  0.00  0.00    +0.019 A 
ATOM      8  C   UNL     1      31.550  16.739  15.052  0.00  0.00    +0.002 A 
ATOM      9  C   UNL     1      32.624  16.991  15.908  0.00  0.00    +0.004 A 
ATOM     10  C   UNL     1      32.932  18.300  16.305  0.00  0.00    -0.037 A 
ATOM     11  C   UNL     1      32.148  19.357  15.814  0.00  0.00    +0.023 A 
BRANCH   6  13
ATOM     12  N   UNL     1      29.637  21.073  14.052  0.00  0.00    -0.191 NA
ATOM     13  C   UNL     1      30.278  20.192  14.453  0.00  0.00    +0.099 C 
ENDBRANCH   6  13
ENDBRANCH   5  10
ENDBRANCH   1   5
BRANCH   3  14
ATOM     14  C   UNL     1      34.124  22.149  18.319  0.00  0.00    +0.108 C 
BRANCH  14  15
ATOM     15  C   UNL     1      33.024  22.900  17.545  0.00  0.00    +0.011 C 
ATOM     16  C   UNL     1      33.327  24.381  17.335  0.00  0.00    +0.033 C 
ATOM     17  C   UNL     1      33.466  25.094  18.672  0.00  0.00    +0.161 C 
ATOM     18  O   UNL     1      32.404  24.817  19.582  0.00  0.00    -0.373 OA
ATOM     19  C   UNL     1      31.805  23.493  19.678  0.00  0.00    +0.070 C 
ATOM     20  C   UNL     1      32.323  22.522  20.795  0.00  0.00    +0.035 C 
ATOM     21  C   UNL     1      31.294  23.129  21.747  0.00  0.00    +0.006 C 
ATOM     22  C   UNL     1      30.475  23.532  20.506  0.00  0.00    +0.035 C 
ATOM     23  C   UNL     1      31.679  22.833  18.299  0.00  0.00    +0.040 C 
ENDBRANCH  14  15
ENDBRANCH   3  14
TORSDOF 5
ENDMDL
MODEL 9
REMARK VINA RESULT:      -6.3      3.928      7.814
REMARK  Name = ZINC000560333501
REMARK  5 active torsions:
REMARK  status: ('A' for Active; 'I' for Inactive)
REMARK    1  A    between atoms: C_2  and  C_3
REMARK    2  A    between atoms: C_7  and  C_8
REMARK    3  A    between atoms: C_8  and  C_9
REMARK    4  A    between atoms: N_11  and  C_12
REMARK    5  A    between atoms: C_12  and  C_13
REMARK                            x       y       z     vdW  Elec       q    Type
REMARK                         _______ _______ _______ _____ _____    ______ ____
ROOT
ATOM      1  C   UNL     1      29.059  22.902  18.117  0.00  0.00    +0.217 C 
ATOM      2  O   UNL     1      28.472  22.555  19.145  0.00  0.00    -0.275 OA
ATOM      3  N   UNL     1      30.105  23.808  18.112  0.00  0.00    -0.315 N 
ATOM      4  H   UNL     1      30.698  23.794  17.291  0.00  0.00    +0.149 HD
ENDROOT
BRANCH   1   5
ATOM      5  C   UNL     1      28.658  22.347  16.771  0.00  0.00    +0.131 C 
BRANCH   5  10
ATOM      6  C   UNL     1      31.919  20.483  16.004  0.00  0.00    +0.052 A 
ATOM      7  C   UNL     1      31.597  19.871  14.787  0.00  0.00    +0.019 A 
ATOM      8  C   UNL     1      30.345  20.083  14.213  0.00  0.00    +0.002 A 
ATOM      9  C   UNL     1      29.413  20.907  14.846  0.00  0.00    +0.004 A 
ATOM     10  C   UNL     1      29.720  21.534  16.062  0.00  0.00    -0.037 A 
ATOM     11  C   UNL     1      30.980  21.307  16.640  0.00  0.00    +0.023 A 
BRANCH   6  13
ATOM     12  N   UNL     1      34.234  20.061  17.096  0.00  0.00    -0.191 NA
ATOM     13  C   UNL     1      33.200  20.248  16.603  0.00  0.00    +0.099 C 
ENDBRANCH   6  13
ENDBRANCH   5  10
ENDBRANCH   1   5
BRANCH   3  14
ATOM     14  C   UNL     1      30.749  24.119  19.376  0.00  0.00    +0.108 C 
BRANCH  14  15
ATOM     15  C   UNL     1      31.811  23.120  19.870  0.00  0.00    +0.011 C 
ATOM     16  C   UNL     1      32.182  23.300  21.339  0.00  0.00    +0.033 C 
ATOM     17  C   UNL     1      32.761  24.686  21.581  0.00  0.00    +0.161 C 
ATOM     18  O   UNL     1      33.777  25.052  20.652  0.00  0.00    -0.373 OA
ATOM     19  C   UNL     1      33.698  24.682  19.245  0.00  0.00    +0.070 C 
ATOM     20  C   UNL     1      33.117  25.729  18.232  0.00  0.00    +0.035 C 
ATOM     21  C   UNL     1      34.527  26.297  18.071  0.00  0.00    +0.006 C 
ATOM     22  C   UNL     1      35.064  24.924  18.518  0.00  0.00    +0.035 C 
ATOM     23  C   UNL     1      33.121  23.271  19.069  0.00  0.00    +0.040 C 
ENDBRANCH  14  15
ENDBRANCH   3  14
TORSDOF 5
ENDMDL
