MODEL 1
REMARK VINA RESULT:      -6.5      0.000      0.000
REMARK  Name = ZINC000870248439
REMARK  2 active torsions:
REMARK  status: ('A' for Active; 'I' for Inactive)
REMARK    1  A    between atoms: C_2  and  C_4
REMARK    2  A    between atoms: C_7  and  C_8
REMARK                            x       y       z     vdW  Elec       q    Type
REMARK                         _______ _______ _______ _____ _____    ______ ____
ROOT
ATOM      1  C   UNL     1      32.211  21.771  13.808  0.00  0.00    +0.247 C 
ATOM      2  O   UNL     1      32.805  20.714  14.026  0.00  0.00    -0.270 OA
ATOM      3  N   UNL     1      32.604  22.680  12.818  0.00  0.00    -0.297 N 
ATOM      4  C   UNL     1      31.934  23.939  12.501  0.00  0.00    +0.108 C 
ATOM      5  C   UNL     1      31.779  24.184  11.014  0.00  0.00    +0.026 C 
ATOM      6  C   UNL     1      33.104  24.032  10.247  0.00  0.00    -0.025 C 
ATOM      7  C   UNL     1      32.773  24.078   8.738  0.00  0.00    +0.017 C 
ATOM      8  C   UNL     1      33.986  23.999   7.821  0.00  0.00    +0.069 C 
ATOM      9  S   UNL     1      35.157  25.358   8.097  0.00  0.00    -0.161 S 
ATOM     10  C   UNL     1      35.373  25.208   9.890  0.00  0.00    +0.069 C 
ATOM     11  C   UNL     1      34.035  25.217  10.613  0.00  0.00    +0.017 C 
ATOM     12  C   UNL     1      33.710  22.651  10.627  0.00  0.00    +0.026 C 
ATOM     13  C   UNL     1      33.874  22.463  12.135  0.00  0.00    +0.108 C 
ENDROOT
BRANCH   1  17
ATOM     14  C   UNL     1      28.819  22.352  16.336  0.00  0.00    +0.037 A 
ATOM     15  C   UNL     1      28.724  21.476  15.255  0.00  0.00    +0.014 A 
ATOM     16  C   UNL     1      29.785  21.372  14.364  0.00  0.00    +0.014 A 
ATOM     17  C   UNL     1      30.986  22.051  14.603  0.00  0.00    +0.037 A 
ATOM     18  C   UNL     1      31.058  22.979  15.647  0.00  0.00    +0.014 A 
ATOM     19  C   UNL     1      29.967  23.137  16.507  0.00  0.00    +0.014 A 
BRANCH  14  21
ATOM     20  N   UNL     1      27.995  22.976  18.535  0.00  0.00    -0.325 N 
ATOM     21  C   UNL     1      27.697  22.469  17.297  0.00  0.00    +0.242 C 
ATOM     22  O   UNL     1      26.555  22.154  16.988  0.00  0.00    -0.270 OA
ATOM     23  H   UNL     1      27.197  23.137  19.144  0.00  0.00    +0.145 HD
ATOM     24  H   UNL     1      28.840  23.488  18.723  0.00  0.00    +0.145 HD
ENDBRANCH  14  21
ENDBRANCH   1  17
TORSDOF 2
ENDMDL
MODEL 2
REMARK VINA RESULT:      -6.3      6.154      8.724
REMARK  Name = ZINC000870248439
REMARK  2 active torsions:
REMARK  status: ('A' for Active; 'I' for Inactive)
REMARK    1  A    between atoms: C_2  and  C_4
REMARK    2  A    between atoms: C_7  and  C_8
REMARK                            x       y       z     vdW  Elec       q    Type
REMARK                         _______ _______ _______ _____ _____    ______ ____
ROOT
ATOM      1  C   UNL     1      32.324  23.881  18.261  0.00  0.00    +0.247 C 
ATOM      2  O   UNL     1      32.822  24.809  17.624  0.00  0.00    -0.270 OA
ATOM      3  N   UNL     1      32.987  23.226  19.307  0.00  0.00    -0.297 N 
ATOM      4  C   UNL     1      32.445  22.132  20.109  0.00  0.00    +0.108 C 
ATOM      5  C   UNL     1      32.715  22.278  21.592  0.00  0.00    +0.026 C 
ATOM      6  C   UNL     1      34.201  22.533  21.902  0.00  0.00    -0.025 C 
ATOM      7  C   UNL     1      34.306  22.888  23.403  0.00  0.00    +0.017 C 
ATOM      8  C   UNL     1      35.727  23.117  23.901  0.00  0.00    +0.069 C 
ATOM      9  S   UNL     1      36.786  21.660  23.676  0.00  0.00    -0.161 S 
ATOM     10  C   UNL     1      36.489  21.342  21.917  0.00  0.00    +0.069 C 
ATOM     11  C   UNL     1      35.002  21.237  21.615  0.00  0.00    +0.017 C 
ATOM     12  C   UNL     1      34.662  23.732  21.027  0.00  0.00    +0.026 C 
ATOM     13  C   UNL     1      34.395  23.526  19.537  0.00  0.00    +0.108 C 
ENDROOT
BRANCH   1  17
ATOM     14  C   UNL     1      28.397  22.426  17.425  0.00  0.00    +0.037 A 
ATOM     15  C   UNL     1      29.317  22.550  16.384  0.00  0.00    +0.014 A 
ATOM     16  C   UNL     1      30.554  23.132  16.630  0.00  0.00    +0.014 A 
ATOM     17  C   UNL     1      30.928  23.489  17.932  0.00  0.00    +0.037 A 
ATOM     18  C   UNL     1      29.984  23.427  18.962  0.00  0.00    +0.014 A 
ATOM     19  C   UNL     1      28.713  22.906  18.703  0.00  0.00    +0.014 A 
BRANCH  14  21
ATOM     20  N   UNL     1      27.020  20.435  17.221  0.00  0.00    -0.325 N 
ATOM     21  C   UNL     1      27.075  21.804  17.177  0.00  0.00    +0.242 C 
ATOM     22  O   UNL     1      26.077  22.482  16.973  0.00  0.00    -0.270 OA
ATOM     23  H   UNL     1      26.090  20.033  17.144  0.00  0.00    +0.145 HD
ATOM     24  H   UNL     1      27.739  19.876  17.647  0.00  0.00    +0.145 HD
ENDBRANCH  14  21
ENDBRANCH   1  17
TORSDOF 2
ENDMDL
MODEL 3
REMARK VINA RESULT:      -6.2      4.156      7.652
REMARK  Name = ZINC000870248439
REMARK  2 active torsions:
REMARK  status: ('A' for Active; 'I' for Inactive)
REMARK    1  A    between atoms: C_2  and  C_4
REMARK    2  A    between atoms: C_7  and  C_8
REMARK                            x       y       z     vdW  Elec       q    Type
REMARK                         _______ _______ _______ _____ _____    ______ ____
ROOT
ATOM      1  C   UNL     1      31.089  23.415  13.314  0.00  0.00    +0.247 C 
ATOM      2  O   UNL     1      30.041  22.772  13.249  0.00  0.00    -0.270 OA
ATOM      3  N   UNL     1      31.864  23.501  14.479  0.00  0.00    -0.297 N 
ATOM      4  C   UNL     1      33.121  24.232  14.616  0.00  0.00    +0.108 C 
ATOM      5  C   UNL     1      34.190  23.462  15.365  0.00  0.00    +0.026 C 
ATOM      6  C   UNL     1      33.693  22.921  16.717  0.00  0.00    -0.025 C 
ATOM      7  C   UNL     1      34.786  21.976  17.266  0.00  0.00    +0.017 C 
ATOM      8  C   UNL     1      34.483  21.389  18.638  0.00  0.00    +0.069 C 
ATOM      9  S   UNL     1      34.269  22.667  19.909  0.00  0.00    -0.161 S 
ATOM     10  C   UNL     1      33.036  23.707  19.084  0.00  0.00    +0.069 C 
ATOM     11  C   UNL     1      33.493  24.110  17.691  0.00  0.00    +0.017 C 
ATOM     12  C   UNL     1      32.379  22.134  16.451  0.00  0.00    +0.026 C 
ATOM     13  C   UNL     1      31.322  22.960  15.719  0.00  0.00    +0.108 C 
ENDROOT
BRANCH   1  17
ATOM     14  C   UNL     1      32.744  25.451   9.945  0.00  0.00    +0.037 A 
ATOM     15  C   UNL     1      31.673  26.023  10.632  0.00  0.00    +0.014 A 
ATOM     16  C   UNL     1      31.057  25.312  11.654  0.00  0.00    +0.014 A 
ATOM     17  C   UNL     1      31.572  24.079  12.074  0.00  0.00    +0.037 A 
ATOM     18  C   UNL     1      32.601  23.475  11.344  0.00  0.00    +0.014 A 
ATOM     19  C   UNL     1      33.178  24.160  10.270  0.00  0.00    +0.014 A 
BRANCH  14  21
ATOM     20  N   UNL     1      33.332  25.665   7.598  0.00  0.00    -0.325 N 
ATOM     21  C   UNL     1      33.412  26.202   8.856  0.00  0.00    +0.242 C 
ATOM     22  O   UNL     1      33.982  27.264   9.068  0.00  0.00    -0.270 OA
ATOM     23  H   UNL     1      33.714  26.242   6.853  0.00  0.00    +0.145 HD
ATOM     24  H   UNL     1      32.658  24.963   7.349  0.00  0.00    +0.145 HD
ENDBRANCH  14  21
ENDBRANCH   1  17
TORSDOF 2
ENDMDL
MODEL 4
REMARK VINA RESULT:      -6.1      4.620      6.969
REMARK  Name = ZINC000870248439
REMARK  2 active torsions:
REMARK  status: ('A' for Active; 'I' for Inactive)
REMARK    1  A    between atoms: C_2  and  C_4
REMARK    2  A    between atoms: C_7  and  C_8
REMARK                            x       y       z     vdW  Elec       q    Type
REMARK                         _______ _______ _______ _____ _____    ______ ____
ROOT
ATOM      1  C   UNL     1      30.325  21.419  14.913  0.00  0.00    +0.247 C 
ATOM      2  O   UNL     1      29.165  21.829  14.943  0.00  0.00    -0.270 OA
ATOM      3  N   UNL     1      31.390  22.087  15.533  0.00  0.00    -0.297 N 
ATOM      4  C   UNL     1      32.782  21.645  15.547  0.00  0.00    +0.108 C 
ATOM      5  C   UNL     1      33.445  21.778  16.903  0.00  0.00    +0.026 C 
ATOM      6  C   UNL     1      33.285  23.186  17.505  0.00  0.00    -0.025 C 
ATOM      7  C   UNL     1      33.796  23.126  18.962  0.00  0.00    +0.017 C 
ATOM      8  C   UNL     1      33.765  24.458  19.699  0.00  0.00    +0.069 C 
ATOM      9  S   UNL     1      34.779  25.726  18.886  0.00  0.00    -0.161 S 
ATOM     10  C   UNL     1      34.112  25.611  17.205  0.00  0.00    +0.069 C 
ATOM     11  C   UNL     1      34.151  24.181  16.689  0.00  0.00    +0.017 C 
ATOM     12  C   UNL     1      31.772  23.539  17.474  0.00  0.00    +0.026 C 
ATOM     13  C   UNL     1      31.155  23.417  16.081  0.00  0.00    +0.108 C 
ENDROOT
BRANCH   1  17
ATOM     14  C   UNL     1      31.332  17.642  13.192  0.00  0.00    +0.037 A 
ATOM     15  C   UNL     1      31.773  18.814  12.577  0.00  0.00    +0.014 A 
ATOM     16  C   UNL     1      31.351  20.044  13.066  0.00  0.00    +0.014 A 
ATOM     17  C   UNL     1      30.583  20.121  14.235  0.00  0.00    +0.037 A 
ATOM     18  C   UNL     1      30.086  18.948  14.812  0.00  0.00    +0.014 A 
ATOM     19  C   UNL     1      30.452  17.708  14.281  0.00  0.00    +0.014 A 
BRANCH  14  21
ATOM     20  N   UNL     1      33.123  16.069  12.728  0.00  0.00    -0.325 N 
ATOM     21  C   UNL     1      31.778  16.324  12.684  0.00  0.00    +0.242 C 
ATOM     22  O   UNL     1      30.978  15.493  12.272  0.00  0.00    -0.270 OA
ATOM     23  H   UNL     1      33.398  15.126  12.465  0.00  0.00    +0.145 HD
ATOM     24  H   UNL     1      33.759  16.601  13.298  0.00  0.00    +0.145 HD
ENDBRANCH  14  21
ENDBRANCH   1  17
TORSDOF 2
ENDMDL
MODEL 5
REMARK VINA RESULT:      -6.1      5.613      6.443
REMARK  Name = ZINC000870248439
REMARK  2 active torsions:
REMARK  status: ('A' for Active; 'I' for Inactive)
REMARK    1  A    between atoms: C_2  and  C_4
REMARK    2  A    between atoms: C_7  and  C_8
REMARK                            x       y       z     vdW  Elec       q    Type
REMARK                         _______ _______ _______ _____ _____    ______ ____
ROOT
ATOM      1  C   UNL     1      31.141  16.909  13.794  0.00  0.00    +0.247 C 
ATOM      2  O   UNL     1      30.782  16.234  12.829  0.00  0.00    -0.270 OA
ATOM      3  N   UNL     1      32.483  17.055  14.171  0.00  0.00    -0.297 N 
ATOM      4  C   UNL     1      32.973  17.852  15.293  0.00  0.00    +0.108 C 
ATOM      5  C   UNL     1      34.196  18.680  14.956  0.00  0.00    +0.026 C 
ATOM      6  C   UNL     1      35.319  17.847  14.314  0.00  0.00    -0.025 C 
ATOM      7  C   UNL     1      36.400  18.833  13.816  0.00  0.00    +0.017 C 
ATOM      8  C   UNL     1      37.624  18.171  13.198  0.00  0.00    +0.069 C 
ATOM      9  S   UNL     1      38.478  17.067  14.359  0.00  0.00    -0.161 S 
ATOM     10  C   UNL     1      37.076  16.049  14.891  0.00  0.00    +0.069 C 
ATOM     11  C   UNL     1      35.924  16.908  15.388  0.00  0.00    +0.017 C 
ATOM     12  C   UNL     1      34.699  17.072  13.117  0.00  0.00    +0.026 C 
ATOM     13  C   UNL     1      33.487  16.229  13.511  0.00  0.00    +0.108 C 
ENDROOT
BRANCH   1  17
ATOM     14  C   UNL     1      28.390  19.139  16.181  0.00  0.00    +0.037 A 
ATOM     15  C   UNL     1      28.508  17.763  16.377  0.00  0.00    +0.014 A 
ATOM     16  C   UNL     1      29.313  17.017  15.526  0.00  0.00    +0.014 A 
ATOM     17  C   UNL     1      30.094  17.647  14.549  0.00  0.00    +0.037 A 
ATOM     18  C   UNL     1      29.927  19.014  14.308  0.00  0.00    +0.014 A 
ATOM     19  C   UNL     1      29.064  19.758  15.119  0.00  0.00    +0.014 A 
BRANCH  14  21
ATOM     20  N   UNL     1      26.632  19.265  17.852  0.00  0.00    -0.325 N 
ATOM     21  C   UNL     1      27.539  19.948  17.084  0.00  0.00    +0.242 C 
ATOM     22  O   UNL     1      27.661  21.163  17.161  0.00  0.00    -0.270 OA
ATOM     23  H   UNL     1      26.126  19.826  18.533  0.00  0.00    +0.145 HD
ATOM     24  H   UNL     1      26.694  18.274  18.014  0.00  0.00    +0.145 HD
ENDBRANCH  14  21
ENDBRANCH   1  17
TORSDOF 2
ENDMDL
MODEL 6
REMARK VINA RESULT:      -6.0      3.528      4.670
REMARK  Name = ZINC000870248439
REMARK  2 active torsions:
REMARK  status: ('A' for Active; 'I' for Inactive)
REMARK    1  A    between atoms: C_2  and  C_4
REMARK    2  A    between atoms: C_7  and  C_8
REMARK                            x       y       z     vdW  Elec       q    Type
REMARK                         _______ _______ _______ _____ _____    ______ ____
ROOT
ATOM      1  C   UNL     1      30.652  22.468  13.983  0.00  0.00    +0.247 C 
ATOM      2  O   UNL     1      30.230  23.026  12.970  0.00  0.00    -0.270 OA
ATOM      3  N   UNL     1      31.919  22.721  14.527  0.00  0.00    -0.297 N 
ATOM      4  C   UNL     1      32.469  22.106  15.731  0.00  0.00    +0.108 C 
ATOM      5  C   UNL     1      33.171  23.089  16.646  0.00  0.00    +0.026 C 
ATOM      6  C   UNL     1      34.220  23.940  15.908  0.00  0.00    -0.025 C 
ATOM      7  C   UNL     1      34.691  25.042  16.884  0.00  0.00    +0.017 C 
ATOM      8  C   UNL     1      35.782  25.951  16.334  0.00  0.00    +0.069 C 
ATOM      9  S   UNL     1      37.283  25.037  15.878  0.00  0.00    -0.161 S 
ATOM     10  C   UNL     1      36.550  23.766  14.815  0.00  0.00    +0.069 C 
ATOM     11  C   UNL     1      35.419  23.036  15.523  0.00  0.00    +0.017 C 
ATOM     12  C   UNL     1      33.522  24.574  14.671  0.00  0.00    +0.026 C 
ATOM     13  C   UNL     1      32.854  23.541  13.765  0.00  0.00    +0.108 C 
ENDROOT
BRANCH   1  17
ATOM     14  C   UNL     1      28.261  19.768  16.270  0.00  0.00    +0.037 A 
ATOM     15  C   UNL     1      29.087  19.267  15.263  0.00  0.00    +0.014 A 
ATOM     16  C   UNL     1      29.777  20.149  14.441  0.00  0.00    +0.014 A 
ATOM     17  C   UNL     1      29.739  21.528  14.685  0.00  0.00    +0.037 A 
ATOM     18  C   UNL     1      28.861  22.034  15.649  0.00  0.00    +0.014 A 
ATOM     19  C   UNL     1      28.112  21.151  16.433  0.00  0.00    +0.014 A 
BRANCH  14  21
ATOM     20  N   UNL     1      26.519  19.376  17.917  0.00  0.00    -0.325 N 
ATOM     21  C   UNL     1      27.524  18.838  17.156  0.00  0.00    +0.242 C 
ATOM     22  O   UNL     1      27.782  17.641  17.184  0.00  0.00    -0.270 OA
ATOM     23  H   UNL     1      25.965  18.707  18.445  0.00  0.00    +0.145 HD
ATOM     24  H   UNL     1      26.109  20.273  17.720  0.00  0.00    +0.145 HD
ENDBRANCH  14  21
ENDBRANCH   1  17
TORSDOF 2
ENDMDL
MODEL 7
REMARK VINA RESULT:      -6.0      5.883      7.304
REMARK  Name = ZINC000870248439
REMARK  2 active torsions:
REMARK  status: ('A' for Active; 'I' for Inactive)
REMARK    1  A    between atoms: C_2  and  C_4
REMARK    2  A    between atoms: C_7  and  C_8
REMARK                            x       y       z     vdW  Elec       q    Type
REMARK                         _______ _______ _______ _____ _____    ______ ____
ROOT
ATOM      1  C   UNL     1      32.048  16.651  13.258  0.00  0.00    +0.247 C 
ATOM      2  O   UNL     1      31.634  15.879  12.392  0.00  0.00    -0.270 OA
ATOM      3  N   UNL     1      33.320  16.544  13.836  0.00  0.00    -0.297 N 
ATOM      4  C   UNL     1      33.873  17.435  14.852  0.00  0.00    +0.108 C 
ATOM      5  C   UNL     1      35.311  17.834  14.589  0.00  0.00    +0.026 C 
ATOM      6  C   UNL     1      36.224  16.622  14.332  0.00  0.00    -0.025 C 
ATOM      7  C   UNL     1      37.591  17.166  13.858  0.00  0.00    +0.017 C 
ATOM      8  C   UNL     1      38.646  16.097  13.610  0.00  0.00    +0.069 C 
ATOM      9  S   UNL     1      39.007  15.119  15.096  0.00  0.00    -0.161 S 
ATOM     10  C   UNL     1      37.323  14.632  15.552  0.00  0.00    +0.069 C 
ATOM     11  C   UNL     1      36.406  15.841  15.659  0.00  0.00    +0.017 C 
ATOM     12  C   UNL     1      35.563  15.766  13.215  0.00  0.00    +0.026 C 
ATOM     13  C   UNL     1      34.125  15.365  13.539  0.00  0.00    +0.108 C 
ENDROOT
BRANCH   1  17
ATOM     14  C   UNL     1      29.771  19.997  14.620  0.00  0.00    +0.037 A 
ATOM     15  C   UNL     1      29.513  18.732  15.150  0.00  0.00    +0.014 A 
ATOM     16  C   UNL     1      30.168  17.625  14.627  0.00  0.00    +0.014 A 
ATOM     17  C   UNL     1      31.165  17.779  13.655  0.00  0.00    +0.037 A 
ATOM     18  C   UNL     1      31.376  19.035  13.077  0.00  0.00    +0.014 A 
ATOM     19  C   UNL     1      30.668  20.143  13.554  0.00  0.00    +0.014 A 
BRANCH  14  21
ATOM     20  N   UNL     1      29.427  22.401  14.640  0.00  0.00    -0.325 N 
ATOM     21  C   UNL     1      29.082  21.187  15.172  0.00  0.00    +0.242 C 
ATOM     22  O   UNL     1      28.226  21.084  16.041  0.00  0.00    -0.270 OA
ATOM     23  H   UNL     1      28.876  23.192  14.963  0.00  0.00    +0.145 HD
ATOM     24  H   UNL     1      29.907  22.493  13.761  0.00  0.00    +0.145 HD
ENDBRANCH  14  21
ENDBRANCH   1  17
TORSDOF 2
ENDMDL
MODEL 8
REMARK VINA RESULT:      -5.9      4.146      4.969
REMARK  Name = ZINC000870248439
REMARK  2 active torsions:
REMARK  status: ('A' for Active; 'I' for Inactive)
REMARK    1  A    between atoms: C_2  and  C_4
REMARK    2  A    between atoms: C_7  and  C_8
REMARK                            x       y       z     vdW  Elec       q    Type
REMARK                         _______ _______ _______ _____ _____    ______ ____
ROOT
ATOM      1  C   UNL     1      29.816  17.926  14.718  0.00  0.00    +0.247 C 
ATOM      2  O   UNL     1      29.178  16.877  14.626  0.00  0.00    -0.270 OA
ATOM      3  N   UNL     1      31.057  18.125  14.098  0.00  0.00    -0.297 N 
ATOM      4  C   UNL     1      31.853  19.349  14.156  0.00  0.00    +0.108 C 
ATOM      5  C   UNL     1      32.437  19.753  12.817  0.00  0.00    +0.026 C 
ATOM      6  C   UNL     1      33.200  18.606  12.132  0.00  0.00    -0.025 C 
ATOM      7  C   UNL     1      33.542  19.071  10.698  0.00  0.00    +0.017 C 
ATOM      8  C   UNL     1      34.356  18.071   9.887  0.00  0.00    +0.069 C 
ATOM      9  S   UNL     1      35.951  17.683  10.661  0.00  0.00    -0.161 S 
ATOM     10  C   UNL     1      35.380  17.239  12.322  0.00  0.00    +0.069 C 
ATOM     11  C   UNL     1      34.507  18.334  12.919  0.00  0.00    +0.017 C 
ATOM     12  C   UNL     1      32.253  17.373  12.092  0.00  0.00    +0.026 C 
ATOM     13  C   UNL     1      31.713  16.986  13.468  0.00  0.00    +0.108 C 
ENDROOT
BRANCH   1  17
ATOM     14  C   UNL     1      27.752  21.096  16.700  0.00  0.00    +0.037 A 
ATOM     15  C   UNL     1      28.670  21.400  15.694  0.00  0.00    +0.014 A 
ATOM     16  C   UNL     1      29.428  20.382  15.128  0.00  0.00    +0.014 A 
ATOM     17  C   UNL     1      29.199  19.045  15.477  0.00  0.00    +0.037 A 
ATOM     18  C   UNL     1      28.329  18.746  16.531  0.00  0.00    +0.014 A 
ATOM     19  C   UNL     1      27.614  19.776  17.150  0.00  0.00    +0.014 A 
BRANCH  14  21
ATOM     20  N   UNL     1      27.530  22.921  18.288  0.00  0.00    -0.325 N 
ATOM     21  C   UNL     1      26.934  22.171  17.307  0.00  0.00    +0.242 C 
ATOM     22  O   UNL     1      25.792  22.397  16.930  0.00  0.00    -0.270 OA
ATOM     23  H   UNL     1      26.987  23.712  18.623  0.00  0.00    +0.145 HD
ATOM     24  H   UNL     1      28.526  22.944  18.424  0.00  0.00    +0.145 HD
ENDBRANCH  14  21
ENDBRANCH   1  17
TORSDOF 2
ENDMDL
MODEL 9
REMARK VINA RESULT:      -5.9      6.664      8.680
REMARK  Name = ZINC000870248439
REMARK  2 active torsions:
REMARK  status: ('A' for Active; 'I' for Inactive)
REMARK    1  A    between atoms: C_2  and  C_4
REMARK    2  A    between atoms: C_7  and  C_8
REMARK                            x       y       z     vdW  Elec       q    Type
REMARK                         _______ _______ _______ _____ _____    ______ ____
ROOT
ATOM      1  C   UNL     1      33.858  23.098  20.383  0.00  0.00    +0.247 C 
ATOM      2  O   UNL     1      34.142  23.940  21.235  0.00  0.00    -0.270 OA
ATOM      3  N   UNL     1      34.701  22.029  20.051  0.00  0.00    -0.297 N 
ATOM      4  C   UNL     1      34.415  20.991  19.064  0.00  0.00    +0.108 C 
ATOM      5  C   UNL     1      34.769  19.595  19.534  0.00  0.00    +0.026 C 
ATOM      6  C   UNL     1      36.209  19.497  20.067  0.00  0.00    -0.025 C 
ATOM      7  C   UNL     1      36.367  18.103  20.717  0.00  0.00    +0.017 C 
ATOM      8  C   UNL     1      37.763  17.809  21.251  0.00  0.00    +0.069 C 
ATOM      9  S   UNL     1      39.033  17.882  19.956  0.00  0.00    -0.161 S 
ATOM     10  C   UNL     1      38.661  19.514  19.263  0.00  0.00    +0.069 C 
ATOM     11  C   UNL     1      37.194  19.632  18.877  0.00  0.00    +0.017 C 
ATOM     12  C   UNL     1      36.393  20.616  21.130  0.00  0.00    +0.026 C 
ATOM     13  C   UNL     1      36.051  22.008  20.601  0.00  0.00    +0.108 C 
ENDROOT
BRANCH   1  17
ATOM     14  C   UNL     1      30.079  23.056  18.396  0.00  0.00    +0.037 A 
ATOM     15  C   UNL     1      31.182  23.622  17.757  0.00  0.00    +0.014 A 
ATOM     16  C   UNL     1      32.383  23.743  18.444  0.00  0.00    +0.014 A 
ATOM     17  C   UNL     1      32.528  23.201  19.727  0.00  0.00    +0.037 A 
ATOM     18  C   UNL     1      31.407  22.694  20.393  0.00  0.00    +0.014 A 
ATOM     19  C   UNL     1      30.178  22.634  19.728  0.00  0.00    +0.014 A 
BRANCH  14  21
ATOM     20  N   UNL     1      28.791  23.260  16.347  0.00  0.00    -0.325 N 
ATOM     21  C   UNL     1      28.793  22.917  17.673  0.00  0.00    +0.242 C 
ATOM     22  O   UNL     1      27.790  22.487  18.228  0.00  0.00    -0.270 OA
ATOM     23  H   UNL     1      27.927  23.067  15.847  0.00  0.00    +0.145 HD
ATOM     24  H   UNL     1      29.635  23.349  15.807  0.00  0.00    +0.145 HD
ENDBRANCH  14  21
ENDBRANCH   1  17
TORSDOF 2
ENDMDL
