MODEL 1
REMARK VINA RESULT:      -7.7      0.000      0.000
REMARK  Name = ZINC001228612316
REMARK  5 active torsions:
REMARK  status: ('A' for Active; 'I' for Inactive)
REMARK    1  A    between atoms: C_2  and  C_4
REMARK    2  A    between atoms: C_8  and  O_9
REMARK    3  A    between atoms: O_9  and  C_10
REMARK    4  A    between atoms: C_10  and  C_11
REMARK    5  A    between atoms: C_10  and  C_17
REMARK                            x       y       z     vdW  Elec       q    Type
REMARK                         _______ _______ _______ _____ _____    ______ ____
ROOT
ATOM      1  C   UNL     1      13.312   4.495  13.941  0.00  0.00    +0.040 A 
ATOM      2  C   UNL     1      12.237   5.391  13.960  0.00  0.00    +0.013 A 
ATOM      3  C   UNL     1      11.717   5.883  12.762  0.00  0.00    +0.004 A 
ATOM      4  C   UNL     1      12.265   5.485  11.540  0.00  0.00    +0.046 A 
ATOM      5  C   UNL     1      13.340   4.597  11.509  0.00  0.00    +0.122 A 
ATOM      6  C   UNL     1      13.858   4.102  12.713  0.00  0.00    +0.058 A 
ENDROOT
BRANCH   1   8
ATOM      7  N   UNL     1      13.093   3.005  15.865  0.00  0.00    -0.325 N 
ATOM      8  C   UNL     1      13.819   3.985  15.243  0.00  0.00    +0.242 C 
ATOM      9  O   UNL     1      14.867   4.392  15.732  0.00  0.00    -0.270 OA
ATOM     10  H   UNL     1      13.510   2.599  16.692  0.00  0.00    +0.145 HD
ATOM     11  H   UNL     1      12.372   2.478  15.396  0.00  0.00    +0.145 HD
ENDBRANCH   1   8
BRANCH   5  12
ATOM     12  O   UNL     1      14.007   4.191  10.385  0.00  0.00    -0.484 OA
BRANCH  12  13
ATOM     13  C   UNL     1      14.760   5.160   9.639  0.00  0.00    +0.208 C 
BRANCH  13  14
ATOM     14  C   UNL     1      16.235   4.825   9.537  0.00  0.00    +0.011 A 
ATOM     15  C   UNL     1      16.726   3.727   8.824  0.00  0.00    +0.010 A 
ATOM     16  C   UNL     1      18.101   3.540   8.707  0.00  0.00    +0.020 A 
ATOM     17  C   UNL     1      18.946   4.460   9.306  0.00  0.00    +0.111 A 
ATOM     18  N   UNL     1      18.513   5.526  10.010  0.00  0.00    -0.263 NA
ATOM     19  C   UNL     1      17.176   5.684  10.106  0.00  0.00    +0.118 A 
ENDBRANCH  13  14
BRANCH  13  20
ATOM     20  C   UNL     1      14.214   5.236   8.216  0.00  0.00    +0.034 C 
ATOM     21  C   UNL     1      14.573   6.395   7.318  0.00  0.00    +0.008 C 
ATOM     22  C   UNL     1      13.155   6.228   7.790  0.00  0.00    +0.008 C 
ENDBRANCH  13  20
ENDBRANCH  12  13
ENDBRANCH   5  12
TORSDOF 5
ENDMDL
MODEL 2
REMARK VINA RESULT:      -7.2      2.452      5.977
REMARK  Name = ZINC001228612316
REMARK  5 active torsions:
REMARK  status: ('A' for Active; 'I' for Inactive)
REMARK    1  A    between atoms: C_2  and  C_4
REMARK    2  A    between atoms: C_8  and  O_9
REMARK    3  A    between atoms: O_9  and  C_10
REMARK    4  A    between atoms: C_10  and  C_11
REMARK    5  A    between atoms: C_10  and  C_17
REMARK                            x       y       z     vdW  Elec       q    Type
REMARK                         _______ _______ _______ _____ _____    ______ ____
ROOT
ATOM      1  C   UNL     1      17.516   3.379   8.671  0.00  0.00    +0.040 A 
ATOM      2  C   UNL     1      18.504   3.937   9.489  0.00  0.00    +0.013 A 
ATOM      3  C   UNL     1      18.283   5.165  10.114  0.00  0.00    +0.004 A 
ATOM      4  C   UNL     1      17.076   5.842   9.928  0.00  0.00    +0.046 A 
ATOM      5  C   UNL     1      16.084   5.298   9.112  0.00  0.00    +0.122 A 
ATOM      6  C   UNL     1      16.308   4.064   8.487  0.00  0.00    +0.058 A 
ENDROOT
BRANCH   1   8
ATOM      7  N   UNL     1      18.439   1.121   8.798  0.00  0.00    -0.325 N 
ATOM      8  C   UNL     1      17.792   2.060   8.041  0.00  0.00    +0.242 C 
ATOM      9  O   UNL     1      17.425   1.801   6.901  0.00  0.00    -0.270 OA
ATOM     10  H   UNL     1      18.521   0.199   8.388  0.00  0.00    +0.145 HD
ATOM     11  H   UNL     1      18.542   1.201   9.798  0.00  0.00    +0.145 HD
ENDBRANCH   1   8
BRANCH   5  12
ATOM     12  O   UNL     1      14.895   5.897   8.795  0.00  0.00    -0.484 OA
BRANCH  12  13
ATOM     13  C   UNL     1      13.673   5.185   9.045  0.00  0.00    +0.208 C 
BRANCH  13  14
ATOM     14  C   UNL     1      13.098   5.447  10.424  0.00  0.00    +0.011 A 
ATOM     15  C   UNL     1      12.057   6.349  10.662  0.00  0.00    +0.010 A 
ATOM     16  C   UNL     1      11.526   6.465  11.945  0.00  0.00    +0.020 A 
ATOM     17  C   UNL     1      12.053   5.673  12.952  0.00  0.00    +0.111 A 
ATOM     18  N   UNL     1      13.063   4.799  12.766  0.00  0.00    -0.263 NA
ATOM     19  C   UNL     1      13.557   4.705  11.512  0.00  0.00    +0.118 A 
ENDBRANCH  13  14
BRANCH  13  20
ATOM     20  C   UNL     1      12.622   5.614   8.027  0.00  0.00    +0.034 C 
ATOM     21  C   UNL     1      11.499   4.680   7.644  0.00  0.00    +0.008 C 
ATOM     22  C   UNL     1      12.546   5.044   6.627  0.00  0.00    +0.008 C 
ENDBRANCH  13  20
ENDBRANCH  12  13
ENDBRANCH   5  12
TORSDOF 5
ENDMDL
MODEL 3
REMARK VINA RESULT:      -7.0      3.411      5.610
REMARK  Name = ZINC001228612316
REMARK  5 active torsions:
REMARK  status: ('A' for Active; 'I' for Inactive)
REMARK    1  A    between atoms: C_2  and  C_4
REMARK    2  A    between atoms: C_8  and  O_9
REMARK    3  A    between atoms: O_9  and  C_10
REMARK    4  A    between atoms: C_10  and  C_11
REMARK    5  A    between atoms: C_10  and  C_17
REMARK                            x       y       z     vdW  Elec       q    Type
REMARK                         _______ _______ _______ _____ _____    ______ ____
ROOT
ATOM      1  C   UNL     1      12.484   5.257  12.314  0.00  0.00    +0.040 A 
ATOM      2  C   UNL     1      13.655   4.495  12.242  0.00  0.00    +0.013 A 
ATOM      3  C   UNL     1      14.498   4.612  11.136  0.00  0.00    +0.004 A 
ATOM      4  C   UNL     1      14.179   5.490  10.097  0.00  0.00    +0.046 A 
ATOM      5  C   UNL     1      13.012   6.251  10.156  0.00  0.00    +0.122 A 
ATOM      6  C   UNL     1      12.168   6.133  11.268  0.00  0.00    +0.058 A 
ENDROOT
BRANCH   1   8
ATOM      7  N   UNL     1      12.254   4.894  14.719  0.00  0.00    -0.325 N 
ATOM      8  C   UNL     1      11.627   5.110  13.521  0.00  0.00    +0.242 C 
ATOM      9  O   UNL     1      10.408   5.214  13.463  0.00  0.00    -0.270 OA
ATOM     10  H   UNL     1      11.661   4.904  15.539  0.00  0.00    +0.145 HD
ATOM     11  H   UNL     1      13.243   5.040  14.852  0.00  0.00    +0.145 HD
ENDBRANCH   1   8
BRANCH   5  12
ATOM     12  O   UNL     1      12.555   7.087   9.173  0.00  0.00    -0.484 OA
BRANCH  12  13
ATOM     13  C   UNL     1      12.130   6.520   7.923  0.00  0.00    +0.208 C 
BRANCH  13  14
ATOM     14  C   UNL     1      10.657   6.739   7.635  0.00  0.00    +0.011 A 
ATOM     15  C   UNL     1      10.180   7.761   6.811  0.00  0.00    +0.010 A 
ATOM     16  C   UNL     1       8.818   7.839   6.527  0.00  0.00    +0.020 A 
ATOM     17  C   UNL     1       7.974   6.887   7.076  0.00  0.00    +0.111 A 
ATOM     18  N   UNL     1       8.393   5.892   7.883  0.00  0.00    -0.263 NA
ATOM     19  C   UNL     1       9.718   5.839   8.140  0.00  0.00    +0.118 A 
ENDBRANCH  13  14
BRANCH  13  20
ATOM     20  C   UNL     1      12.915   7.163   6.784  0.00  0.00    +0.034 C 
ATOM     21  C   UNL     1      13.324   6.350   5.580  0.00  0.00    +0.008 C 
ATOM     22  C   UNL     1      14.375   6.873   6.520  0.00  0.00    +0.008 C 
ENDBRANCH  13  20
ENDBRANCH  12  13
ENDBRANCH   5  12
TORSDOF 5
ENDMDL
MODEL 4
REMARK VINA RESULT:      -6.8      2.152      5.937
REMARK  Name = ZINC001228612316
REMARK  5 active torsions:
REMARK  status: ('A' for Active; 'I' for Inactive)
REMARK    1  A    between atoms: C_2  and  C_4
REMARK    2  A    between atoms: C_8  and  O_9
REMARK    3  A    between atoms: O_9  and  C_10
REMARK    4  A    between atoms: C_10  and  C_11
REMARK    5  A    between atoms: C_10  and  C_17
REMARK                            x       y       z     vdW  Elec       q    Type
REMARK                         _______ _______ _______ _____ _____    ______ ____
ROOT
ATOM      1  C   UNL     1      16.102   3.503   7.991  0.00  0.00    +0.040 A 
ATOM      2  C   UNL     1      15.894   4.171   6.780  0.00  0.00    +0.013 A 
ATOM      3  C   UNL     1      15.222   5.393   6.762  0.00  0.00    +0.004 A 
ATOM      4  C   UNL     1      14.755   5.957   7.952  0.00  0.00    +0.046 A 
ATOM      5  C   UNL     1      14.953   5.299   9.166  0.00  0.00    +0.122 A 
ATOM      6  C   UNL     1      15.630   4.072   9.181  0.00  0.00    +0.058 A 
ENDROOT
BRANCH   1   8
ATOM      7  N   UNL     1      16.769   1.416   9.072  0.00  0.00    -0.325 N 
ATOM      8  C   UNL     1      16.840   2.211   7.960  0.00  0.00    +0.242 C 
ATOM      9  O   UNL     1      17.458   1.845   6.968  0.00  0.00    -0.270 OA
ATOM     10  H   UNL     1      17.188   0.498   8.990  0.00  0.00    +0.145 HD
ATOM     11  H   UNL     1      16.091   1.559   9.804  0.00  0.00    +0.145 HD
ENDBRANCH   1   8
BRANCH   5  12
ATOM     12  O   UNL     1      14.482   5.711  10.382  0.00  0.00    -0.484 OA
BRANCH  12  13
ATOM     13  C   UNL     1      13.259   5.145  10.880  0.00  0.00    +0.208 C 
BRANCH  13  14
ATOM     14  C   UNL     1      13.336   4.736  12.338  0.00  0.00    +0.011 A 
ATOM     15  C   UNL     1      14.280   3.832  12.832  0.00  0.00    +0.010 A 
ATOM     16  C   UNL     1      14.341   3.577  14.201  0.00  0.00    +0.020 A 
ATOM     17  C   UNL     1      13.455   4.240  15.035  0.00  0.00    +0.111 A 
ATOM     18  N   UNL     1      12.524   5.112  14.597  0.00  0.00    -0.263 NA
ATOM     19  C   UNL     1      12.489   5.341  13.267  0.00  0.00    +0.118 A 
ENDBRANCH  13  14
BRANCH  13  20
ATOM     20  C   UNL     1      12.140   6.175  10.757  0.00  0.00    +0.034 C 
ATOM     21  C   UNL     1      10.706   5.733  10.589  0.00  0.00    +0.008 C 
ATOM     22  C   UNL     1      11.405   6.446   9.463  0.00  0.00    +0.008 C 
ENDBRANCH  13  20
ENDBRANCH  12  13
ENDBRANCH   5  12
TORSDOF 5
ENDMDL
MODEL 5
REMARK VINA RESULT:      -6.8      2.582      3.177
REMARK  Name = ZINC001228612316
REMARK  5 active torsions:
REMARK  status: ('A' for Active; 'I' for Inactive)
REMARK    1  A    between atoms: C_2  and  C_4
REMARK    2  A    between atoms: C_8  and  O_9
REMARK    3  A    between atoms: O_9  and  C_10
REMARK    4  A    between atoms: C_10  and  C_11
REMARK    5  A    between atoms: C_10  and  C_17
REMARK                            x       y       z     vdW  Elec       q    Type
REMARK                         _______ _______ _______ _____ _____    ______ ____
ROOT
ATOM      1  C   UNL     1      11.388   5.410  11.366  0.00  0.00    +0.040 A 
ATOM      2  C   UNL     1      11.998   5.266  12.618  0.00  0.00    +0.013 A 
ATOM      3  C   UNL     1      13.316   4.817  12.706  0.00  0.00    +0.004 A 
ATOM      4  C   UNL     1      14.034   4.509  11.548  0.00  0.00    +0.046 A 
ATOM      5  C   UNL     1      13.436   4.644  10.295  0.00  0.00    +0.122 A 
ATOM      6  C   UNL     1      12.113   5.097  10.209  0.00  0.00    +0.058 A 
ENDROOT
BRANCH   1   8
ATOM      7  N   UNL     1       9.479   6.260  10.102  0.00  0.00    -0.325 N 
ATOM      8  C   UNL     1       9.987   5.909  11.324  0.00  0.00    +0.242 C 
ATOM      9  O   UNL     1       9.294   5.971  12.332  0.00  0.00    -0.270 OA
ATOM     10  H   UNL     1       8.494   6.494  10.081  0.00  0.00    +0.145 HD
ATOM     11  H   UNL     1       9.919   6.003   9.232  0.00  0.00    +0.145 HD
ENDBRANCH   1   8
BRANCH   5  12
ATOM     12  O   UNL     1      14.008   4.307   9.098  0.00  0.00    -0.484 OA
BRANCH  12  13
ATOM     13  C   UNL     1      14.969   5.201   8.514  0.00  0.00    +0.208 C 
BRANCH  13  14
ATOM     14  C   UNL     1      16.405   4.815   8.812  0.00  0.00    +0.011 A 
ATOM     15  C   UNL     1      17.202   5.487   9.744  0.00  0.00    +0.010 A 
ATOM     16  C   UNL     1      18.482   5.014  10.023  0.00  0.00    +0.020 A 
ATOM     17  C   UNL     1      18.926   3.880   9.363  0.00  0.00    +0.111 A 
ATOM     18  N   UNL     1      18.193   3.210   8.451  0.00  0.00    -0.263 NA
ATOM     19  C   UNL     1      16.955   3.689   8.201  0.00  0.00    +0.118 A 
ENDBRANCH  13  14
BRANCH  13  20
ATOM     20  C   UNL     1      14.805   5.196   6.997  0.00  0.00    +0.034 C 
ATOM     21  C   UNL     1      14.960   6.472   6.205  0.00  0.00    +0.008 C 
ATOM     22  C   UNL     1      13.614   5.807   6.294  0.00  0.00    +0.008 C 
ENDBRANCH  13  20
ENDBRANCH  12  13
ENDBRANCH   5  12
TORSDOF 5
ENDMDL
MODEL 6
REMARK VINA RESULT:      -6.8      2.871      5.997
REMARK  Name = ZINC001228612316
REMARK  5 active torsions:
REMARK  status: ('A' for Active; 'I' for Inactive)
REMARK    1  A    between atoms: C_2  and  C_4
REMARK    2  A    between atoms: C_8  and  O_9
REMARK    3  A    between atoms: O_9  and  C_10
REMARK    4  A    between atoms: C_10  and  C_11
REMARK    5  A    between atoms: C_10  and  C_17
REMARK                            x       y       z     vdW  Elec       q    Type
REMARK                         _______ _______ _______ _____ _____    ______ ____
ROOT
ATOM      1  C   UNL     1      16.976   4.107   8.948  0.00  0.00    +0.040 A 
ATOM      2  C   UNL     1      16.974   3.499   7.688  0.00  0.00    +0.013 A 
ATOM      3  C   UNL     1      15.773   3.080   7.116  0.00  0.00    +0.004 A 
ATOM      4  C   UNL     1      14.566   3.266   7.796  0.00  0.00    +0.046 A 
ATOM      5  C   UNL     1      14.556   3.867   9.055  0.00  0.00    +0.122 A 
ATOM      6  C   UNL     1      15.764   4.289   9.626  0.00  0.00    +0.058 A 
ENDROOT
BRANCH   1   8
ATOM      7  N   UNL     1      19.334   3.681   9.426  0.00  0.00    -0.325 N 
ATOM      8  C   UNL     1      18.281   4.552   9.508  0.00  0.00    +0.242 C 
ATOM      9  O   UNL     1      18.428   5.668   9.991  0.00  0.00    -0.270 OA
ATOM     10  H   UNL     1      20.234   4.043   9.715  0.00  0.00    +0.145 HD
ATOM     11  H   UNL     1      19.324   2.865   8.834  0.00  0.00    +0.145 HD
ENDBRANCH   1   8
BRANCH   5  12
ATOM     12  O   UNL     1      13.454   4.037   9.848  0.00  0.00    -0.484 OA
BRANCH  12  13
ATOM     13  C   UNL     1      13.017   5.373  10.149  0.00  0.00    +0.208 C 
BRANCH  13  14
ATOM     14  C   UNL     1      12.429   6.096   8.953  0.00  0.00    +0.011 A 
ATOM     15  C   UNL     1      11.291   5.654   8.272  0.00  0.00    +0.010 A 
ATOM     16  C   UNL     1      10.764   6.424   7.238  0.00  0.00    +0.020 A 
ATOM     17  C   UNL     1      11.391   7.617   6.917  0.00  0.00    +0.111 A 
ATOM     18  N   UNL     1      12.495   8.073   7.542  0.00  0.00    -0.263 NA
ATOM     19  C   UNL     1      12.984   7.308   8.542  0.00  0.00    +0.118 A 
ENDBRANCH  13  14
BRANCH  13  20
ATOM     20  C   UNL     1      11.935   5.319  11.223  0.00  0.00    +0.034 C 
ATOM     21  C   UNL     1      11.436   6.588  11.873  0.00  0.00    +0.008 C 
ATOM     22  C   UNL     1      12.209   5.586  12.686  0.00  0.00    +0.008 C 
ENDBRANCH  13  20
ENDBRANCH  12  13
ENDBRANCH   5  12
TORSDOF 5
ENDMDL
MODEL 7
REMARK VINA RESULT:      -6.8      2.381      5.840
REMARK  Name = ZINC001228612316
REMARK  5 active torsions:
REMARK  status: ('A' for Active; 'I' for Inactive)
REMARK    1  A    between atoms: C_2  and  C_4
REMARK    2  A    between atoms: C_8  and  O_9
REMARK    3  A    between atoms: O_9  and  C_10
REMARK    4  A    between atoms: C_10  and  C_11
REMARK    5  A    between atoms: C_10  and  C_17
REMARK                            x       y       z     vdW  Elec       q    Type
REMARK                         _______ _______ _______ _____ _____    ______ ____
ROOT
ATOM      1  C   UNL     1      17.332   4.446   8.814  0.00  0.00    +0.040 A 
ATOM      2  C   UNL     1      17.198   3.457   7.833  0.00  0.00    +0.013 A 
ATOM      3  C   UNL     1      16.064   3.425   7.022  0.00  0.00    +0.004 A 
ATOM      4  C   UNL     1      15.057   4.381   7.183  0.00  0.00    +0.046 A 
ATOM      5  C   UNL     1      15.177   5.369   8.159  0.00  0.00    +0.122 A 
ATOM      6  C   UNL     1      16.318   5.400   8.971  0.00  0.00    +0.058 A 
ENDROOT
BRANCH   1   8
ATOM      7  N   UNL     1      18.756   5.502  10.494  0.00  0.00    -0.325 N 
ATOM      8  C   UNL     1      18.568   4.448   9.641  0.00  0.00    +0.242 C 
ATOM      9  O   UNL     1      19.375   3.528   9.597  0.00  0.00    -0.270 OA
ATOM     10  H   UNL     1      19.547   5.431  11.122  0.00  0.00    +0.145 HD
ATOM     11  H   UNL     1      18.020   6.147  10.738  0.00  0.00    +0.145 HD
ENDBRANCH   1   8
BRANCH   5  12
ATOM     12  O   UNL     1      14.231   6.311   8.461  0.00  0.00    -0.484 OA
BRANCH  12  13
ATOM     13  C   UNL     1      12.902   5.877   8.792  0.00  0.00    +0.208 C 
BRANCH  13  14
ATOM     14  C   UNL     1      12.632   5.855  10.284  0.00  0.00    +0.011 A 
ATOM     15  C   UNL     1      11.635   6.620  10.895  0.00  0.00    +0.010 A 
ATOM     16  C   UNL     1      11.394   6.476  12.260  0.00  0.00    +0.020 A 
ATOM     17  C   UNL     1      12.159   5.566  12.972  0.00  0.00    +0.111 A 
ATOM     18  N   UNL     1      13.136   4.817  12.423  0.00  0.00    -0.263 NA
ATOM     19  C   UNL     1      13.347   4.976  11.099  0.00  0.00    +0.118 A 
ENDBRANCH  13  14
BRANCH  13  20
ATOM     20  C   UNL     1      11.889   6.827   8.163  0.00  0.00    +0.034 C 
ATOM     21  C   UNL     1      10.739   6.290   7.344  0.00  0.00    +0.008 C 
ATOM     22  C   UNL     1      11.820   7.095   6.675  0.00  0.00    +0.008 C 
ENDBRANCH  13  20
ENDBRANCH  12  13
ENDBRANCH   5  12
TORSDOF 5
ENDMDL
MODEL 8
REMARK VINA RESULT:      -6.8      3.936      5.671
REMARK  Name = ZINC001228612316
REMARK  5 active torsions:
REMARK  status: ('A' for Active; 'I' for Inactive)
REMARK    1  A    between atoms: C_2  and  C_4
REMARK    2  A    between atoms: C_8  and  O_9
REMARK    3  A    between atoms: O_9  and  C_10
REMARK    4  A    between atoms: C_10  and  C_11
REMARK    5  A    between atoms: C_10  and  C_17
REMARK                            x       y       z     vdW  Elec       q    Type
REMARK                         _______ _______ _______ _____ _____    ______ ____
ROOT
ATOM      1  C   UNL     1      17.526   3.624   9.040  0.00  0.00    +0.040 A 
ATOM      2  C   UNL     1      17.865   4.799   9.719  0.00  0.00    +0.013 A 
ATOM      3  C   UNL     1      16.890   5.761   9.983  0.00  0.00    +0.004 A 
ATOM      4  C   UNL     1      15.570   5.556   9.572  0.00  0.00    +0.046 A 
ATOM      5  C   UNL     1      15.221   4.390   8.891  0.00  0.00    +0.122 A 
ATOM      6  C   UNL     1      16.202   3.425   8.629  0.00  0.00    +0.058 A 
ENDROOT
BRANCH   1   8
ATOM      7  N   UNL     1      19.755   2.746   9.522  0.00  0.00    -0.325 N 
ATOM      8  C   UNL     1      18.599   2.621   8.799  0.00  0.00    +0.242 C 
ATOM      9  O   UNL     1      18.449   1.694   8.013  0.00  0.00    -0.270 OA
ATOM     10  H   UNL     1      20.426   1.995   9.420  0.00  0.00    +0.145 HD
ATOM     11  H   UNL     1      19.829   3.335  10.337  0.00  0.00    +0.145 HD
ENDBRANCH   1   8
BRANCH   5  12
ATOM     12  O   UNL     1      13.985   4.108   8.376  0.00  0.00    -0.484 OA
BRANCH  12  13
ATOM     13  C   UNL     1      13.295   5.125   7.632  0.00  0.00    +0.208 C 
BRANCH  13  14
ATOM     14  C   UNL     1      13.845   5.322   6.232  0.00  0.00    +0.011 A 
ATOM     15  C   UNL     1      13.503   4.504   5.151  0.00  0.00    +0.010 A 
ATOM     16  C   UNL     1      13.984   4.806   3.879  0.00  0.00    +0.020 A 
ATOM     17  C   UNL     1      14.791   5.922   3.726  0.00  0.00    +0.111 A 
ATOM     18  N   UNL     1      15.152   6.730   4.744  0.00  0.00    -0.263 NA
ATOM     19  C   UNL     1      14.671   6.414   5.966  0.00  0.00    +0.118 A 
ENDBRANCH  13  14
BRANCH  13  20
ATOM     20  C   UNL     1      11.826   4.740   7.491  0.00  0.00    +0.034 C 
ATOM     21  C   UNL     1      10.760   5.804   7.390  0.00  0.00    +0.008 C 
ATOM     22  C   UNL     1      10.816   4.916   8.603  0.00  0.00    +0.008 C 
ENDBRANCH  13  20
ENDBRANCH  12  13
ENDBRANCH   5  12
TORSDOF 5
ENDMDL
MODEL 9
REMARK VINA RESULT:      -6.8      2.510      3.419
REMARK  Name = ZINC001228612316
REMARK  5 active torsions:
REMARK  status: ('A' for Active; 'I' for Inactive)
REMARK    1  A    between atoms: C_2  and  C_4
REMARK    2  A    between atoms: C_8  and  O_9
REMARK    3  A    between atoms: O_9  and  C_10
REMARK    4  A    between atoms: C_10  and  C_11
REMARK    5  A    between atoms: C_10  and  C_17
REMARK                            x       y       z     vdW  Elec       q    Type
REMARK                         _______ _______ _______ _____ _____    ______ ____
ROOT
ATOM      1  C   UNL     1      12.301   5.176  12.882  0.00  0.00    +0.040 A 
ATOM      2  C   UNL     1      10.990   5.572  12.593  0.00  0.00    +0.013 A 
ATOM      3  C   UNL     1      10.637   5.921  11.290  0.00  0.00    +0.004 A 
ATOM      4  C   UNL     1      11.587   5.877  10.266  0.00  0.00    +0.046 A 
ATOM      5  C   UNL     1      12.898   5.488  10.543  0.00  0.00    +0.122 A 
ATOM      6  C   UNL     1      13.250   5.136  11.853  0.00  0.00    +0.058 A 
ENDROOT
BRANCH   1   8
ATOM      7  N   UNL     1      11.683   5.060  15.243  0.00  0.00    -0.325 N 
ATOM      8  C   UNL     1      12.624   4.797  14.284  0.00  0.00    +0.242 C 
ATOM      9  O   UNL     1      13.674   4.235  14.574  0.00  0.00    -0.270 OA
ATOM     10  H   UNL     1      11.878   4.699  16.168  0.00  0.00    +0.145 HD
ATOM     11  H   UNL     1      10.728   5.294  15.022  0.00  0.00    +0.145 HD
ENDBRANCH   1   8
BRANCH   5  12
ATOM     12  O   UNL     1      13.931   5.475   9.646  0.00  0.00    -0.484 OA
BRANCH  12  13
ATOM     13  C   UNL     1      14.892   4.408   9.712  0.00  0.00    +0.208 C 
BRANCH  13  14
ATOM     14  C   UNL     1      14.394   3.114   9.098  0.00  0.00    +0.011 A 
ATOM     15  C   UNL     1      14.272   1.921   9.817  0.00  0.00    +0.010 A 
ATOM     16  C   UNL     1      13.722   0.799   9.201  0.00  0.00    +0.020 A 
ATOM     17  C   UNL     1      13.308   0.905   7.883  0.00  0.00    +0.111 A 
ATOM     18  N   UNL     1      13.417   2.033   7.153  0.00  0.00    -0.263 NA
ATOM     19  C   UNL     1      13.952   3.106   7.775  0.00  0.00    +0.118 A 
ENDBRANCH  13  14
BRANCH  13  20
ATOM     20  C   UNL     1      16.150   4.815   8.951  0.00  0.00    +0.034 C 
ATOM     21  C   UNL     1      17.320   3.867   8.842  0.00  0.00    +0.008 C 
ATOM     22  C   UNL     1      17.460   5.138   9.634  0.00  0.00    +0.008 C 
ENDBRANCH  13  20
ENDBRANCH  12  13
ENDBRANCH   5  12
TORSDOF 5
ENDMDL
