MODEL 1
REMARK VINA RESULT:      -7.2      0.000      0.000
REMARK  Name = ZINC000543478179
REMARK  8 active torsions:
REMARK  status: ('A' for Active; 'I' for Inactive)
REMARK    1  A    between atoms: C_1  and  C_2
REMARK    2  A    between atoms: C_2  and  N_3
REMARK    3  A    between atoms: N_9  and  C_10
REMARK    4  A    between atoms: C_10  and  C_11
REMARK    5  A    between atoms: C_10  and  C_12
REMARK    6  A    between atoms: C_15  and  O_16
REMARK    7  A    between atoms: O_16  and  C_17
REMARK    8  A    between atoms: C_17  and  C_18
REMARK                            x       y       z     vdW  Elec       q    Type
REMARK                         _______ _______ _______ _____ _____    ______ ____
ROOT
ATOM      1  C   UNL     1      30.071  21.948  14.888  0.00  0.00    +0.102 C 
ATOM      2  C   UNL     1      29.861  22.592  13.515  0.00  0.00    +0.033 C 
ENDROOT
BRANCH   1   9
ATOM      3  N   UNL     1      31.056  24.150  19.764  0.00  0.00    -0.299 N 
ATOM      4  C   UNL     1      29.729  23.609  20.052  0.00  0.00    +0.127 C 
ATOM      5  C   UNL     1      28.755  23.845  18.894  0.00  0.00    +0.129 C 
ATOM      6  N   UNL     1      29.283  23.262  17.656  0.00  0.00    -0.275 N 
ATOM      7  C   UNL     1      28.453  22.524  16.860  0.00  0.00    +0.303 C 
ATOM      8  O   UNL     1      27.275  22.320  17.170  0.00  0.00    -0.253 OA
ATOM      9  N   UNL     1      28.858  21.959  15.702  0.00  0.00    -0.293 N 
ATOM     10  C   UNL     1      30.682  23.562  17.394  0.00  0.00    +0.205 C 
ATOM     11  C   UNL     1      31.522  24.252  18.468  0.00  0.00    +0.233 C 
ATOM     12  O   UNL     1      32.614  24.748  18.177  0.00  0.00    -0.274 OA
ATOM     13  H   UNL     1      28.078  21.449  15.306  0.00  0.00    +0.151 HD
BRANCH   3  15
ATOM     14  C   UNL     1      31.725  23.662  22.066  0.00  0.00    +0.024 C 
ATOM     15  C   UNL     1      31.917  24.559  20.857  0.00  0.00    +0.104 C 
ENDBRANCH   3  15
ENDBRANCH   1   9
BRANCH   1  16
ATOM     16  C   UNL     1      30.611  20.534  14.779  0.00  0.00    -0.024 A 
ATOM     17  C   UNL     1      31.713  20.108  15.531  0.00  0.00    +0.009 A 
ATOM     18  C   UNL     1      32.209  18.810  15.402  0.00  0.00    +0.049 A 
ATOM     19  C   UNL     1      31.636  17.919  14.485  0.00  0.00    +0.156 A 
ATOM     20  C   UNL     1      30.516  18.330  13.766  0.00  0.00    +0.165 A 
ATOM     21  F   UNL     1      29.914  17.491  12.908  0.00  0.00    -0.202 F 
ATOM     22  C   UNL     1      30.011  19.622  13.895  0.00  0.00    +0.047 A 
BRANCH  19  23
ATOM     23  O   UNL     1      32.106  16.659  14.237  0.00  0.00    -0.489 OA
BRANCH  23  24
ATOM     24  C   UNL     1      33.222  16.597  13.348  0.00  0.00    +0.232 C 
BRANCH  24  25
ATOM     25  C   UNL     1      32.827  15.861  12.107  0.00  0.00    +0.027 C 
ATOM     26  C   UNL     1      32.051  14.574  12.230  0.00  0.00    +0.007 C 
ATOM     27  C   UNL     1      33.480  14.546  11.763  0.00  0.00    +0.007 C 
ENDBRANCH  24  25
ENDBRANCH  23  24
ENDBRANCH  19  23
ENDBRANCH   1  16
TORSDOF 6
ENDMDL
MODEL 2
REMARK VINA RESULT:      -6.7      4.000      8.453
REMARK  Name = ZINC000543478179
REMARK  8 active torsions:
REMARK  status: ('A' for Active; 'I' for Inactive)
REMARK    1  A    between atoms: C_1  and  C_2
REMARK    2  A    between atoms: C_2  and  N_3
REMARK    3  A    between atoms: N_9  and  C_10
REMARK    4  A    between atoms: C_10  and  C_11
REMARK    5  A    between atoms: C_10  and  C_12
REMARK    6  A    between atoms: C_15  and  O_16
REMARK    7  A    between atoms: O_16  and  C_17
REMARK    8  A    between atoms: C_17  and  C_18
REMARK                            x       y       z     vdW  Elec       q    Type
REMARK                         _______ _______ _______ _____ _____    ______ ____
ROOT
ATOM      1  C   UNL     1      30.053  22.508  15.291  0.00  0.00    +0.102 C 
ATOM      2  C   UNL     1      28.864  21.578  15.035  0.00  0.00    +0.033 C 
ENDROOT
BRANCH   1   9
ATOM      3  N   UNL     1      33.551  22.128  11.142  0.00  0.00    -0.299 N 
ATOM      4  C   UNL     1      33.232  23.548  11.007  0.00  0.00    +0.127 C 
ATOM      5  C   UNL     1      31.735  23.815  11.187  0.00  0.00    +0.129 C 
ATOM      6  N   UNL     1      31.280  23.314  12.488  0.00  0.00    -0.275 N 
ATOM      7  C   UNL     1      30.474  24.101  13.261  0.00  0.00    +0.303 C 
ATOM      8  O   UNL     1      30.138  25.233  12.897  0.00  0.00    -0.253 OA
ATOM      9  N   UNL     1      30.007  23.713  14.467  0.00  0.00    -0.293 N 
ATOM     10  C   UNL     1      31.741  21.974  12.816  0.00  0.00    +0.205 C 
ATOM     11  C   UNL     1      32.782  21.293  11.927  0.00  0.00    +0.233 C 
ATOM     12  O   UNL     1      32.985  20.080  12.030  0.00  0.00    -0.274 OA
ATOM     13  H   UNL     1      29.455  24.469  14.854  0.00  0.00    +0.151 HD
BRANCH   3  15
ATOM     14  C   UNL     1      34.418  21.319   9.002  0.00  0.00    +0.024 C 
ATOM     15  C   UNL     1      34.714  21.586  10.466  0.00  0.00    +0.104 C 
ENDBRANCH   3  15
ENDBRANCH   1   9
BRANCH   1  16
ATOM     16  C   UNL     1      30.179  22.883  16.756  0.00  0.00    -0.024 A 
ATOM     17  C   UNL     1      31.412  22.850  17.419  0.00  0.00    +0.009 A 
ATOM     18  C   UNL     1      31.505  23.179  18.772  0.00  0.00    +0.049 A 
ATOM     19  C   UNL     1      30.357  23.510  19.504  0.00  0.00    +0.156 A 
ATOM     20  C   UNL     1      29.137  23.580  18.835  0.00  0.00    +0.165 A 
ATOM     21  F   UNL     1      28.021  23.934  19.491  0.00  0.00    -0.202 F 
ATOM     22  C   UNL     1      29.038  23.261  17.482  0.00  0.00    +0.047 A 
BRANCH  19  23
ATOM     23  O   UNL     1      30.344  23.767  20.846  0.00  0.00    -0.489 OA
BRANCH  23  24
ATOM     24  C   UNL     1      31.332  23.066  21.603  0.00  0.00    +0.232 C 
BRANCH  24  25
ATOM     25  C   UNL     1      32.167  24.050  22.360  0.00  0.00    +0.027 C 
ATOM     26  C   UNL     1      32.550  25.352  21.702  0.00  0.00    +0.007 C 
ATOM     27  C   UNL     1      33.598  24.303  21.957  0.00  0.00    +0.007 C 
ENDBRANCH  24  25
ENDBRANCH  23  24
ENDBRANCH  19  23
ENDBRANCH   1  16
TORSDOF 6
ENDMDL
MODEL 3
REMARK VINA RESULT:      -6.3      3.384      6.188
REMARK  Name = ZINC000543478179
REMARK  8 active torsions:
REMARK  status: ('A' for Active; 'I' for Inactive)
REMARK    1  A    between atoms: C_1  and  C_2
REMARK    2  A    between atoms: C_2  and  N_3
REMARK    3  A    between atoms: N_9  and  C_10
REMARK    4  A    between atoms: C_10  and  C_11
REMARK    5  A    between atoms: C_10  and  C_12
REMARK    6  A    between atoms: C_15  and  O_16
REMARK    7  A    between atoms: O_16  and  C_17
REMARK    8  A    between atoms: C_17  and  C_18
REMARK                            x       y       z     vdW  Elec       q    Type
REMARK                         _______ _______ _______ _____ _____    ______ ____
ROOT
ATOM      1  C   UNL     1      31.404  24.061  20.154  0.00  0.00    +0.102 C 
ATOM      2  C   UNL     1      30.468  23.615  21.280  0.00  0.00    +0.033 C 
ENDROOT
BRANCH   1   9
ATOM      3  N   UNL     1      34.915  28.158  20.841  0.00  0.00    -0.299 N 
ATOM      4  C   UNL     1      35.891  27.088  20.643  0.00  0.00    +0.127 C 
ATOM      5  C   UNL     1      35.498  25.813  21.395  0.00  0.00    +0.129 C 
ATOM      6  N   UNL     1      34.164  25.367  20.981  0.00  0.00    -0.275 N 
ATOM      7  C   UNL     1      33.960  24.045  20.702  0.00  0.00    +0.303 C 
ATOM      8  O   UNL     1      34.879  23.222  20.771  0.00  0.00    -0.253 OA
ATOM      9  N   UNL     1      32.762  23.552  20.321  0.00  0.00    -0.293 N 
ATOM     10  C   UNL     1      33.162  26.420  20.928  0.00  0.00    +0.205 C 
ATOM     11  C   UNL     1      33.588  27.879  21.097  0.00  0.00    +0.233 C 
ATOM     12  O   UNL     1      32.742  28.749  21.319  0.00  0.00    -0.274 OA
ATOM     13  H   UNL     1      32.865  22.559  20.151  0.00  0.00    +0.151 HD
BRANCH   3  15
ATOM     14  C   UNL     1      36.231  29.928  21.902  0.00  0.00    +0.024 C 
ATOM     15  C   UNL     1      35.337  29.542  20.738  0.00  0.00    +0.104 C 
ENDBRANCH   3  15
ENDBRANCH   1   9
BRANCH   1  16
ATOM     16  C   UNL     1      30.870  23.682  18.784  0.00  0.00    -0.024 A 
ATOM     17  C   UNL     1      29.498  23.566  18.536  0.00  0.00    +0.009 A 
ATOM     18  C   UNL     1      29.027  23.197  17.276  0.00  0.00    +0.049 A 
ATOM     19  C   UNL     1      29.924  22.893  16.243  0.00  0.00    +0.156 A 
ATOM     20  C   UNL     1      31.288  23.046  16.479  0.00  0.00    +0.165 A 
ATOM     21  F   UNL     1      32.178  22.805  15.503  0.00  0.00    -0.202 F 
ATOM     22  C   UNL     1      31.765  23.422  17.733  0.00  0.00    +0.047 A 
BRANCH  19  23
ATOM     23  O   UNL     1      29.554  22.447  15.005  0.00  0.00    -0.489 OA
BRANCH  23  24
ATOM     24  C   UNL     1      29.251  21.053  14.933  0.00  0.00    +0.232 C 
BRANCH  24  25
ATOM     25  C   UNL     1      30.321  20.352  14.158  0.00  0.00    +0.027 C 
ATOM     26  C   UNL     1      30.286  18.849  14.048  0.00  0.00    +0.007 C 
ATOM     27  C   UNL     1      31.353  19.515  14.872  0.00  0.00    +0.007 C 
ENDBRANCH  24  25
ENDBRANCH  23  24
ENDBRANCH  19  23
ENDBRANCH   1  16
TORSDOF 6
ENDMDL
MODEL 4
REMARK VINA RESULT:      -6.3      4.082      8.374
REMARK  Name = ZINC000543478179
REMARK  8 active torsions:
REMARK  status: ('A' for Active; 'I' for Inactive)
REMARK    1  A    between atoms: C_1  and  C_2
REMARK    2  A    between atoms: C_2  and  N_3
REMARK    3  A    between atoms: N_9  and  C_10
REMARK    4  A    between atoms: C_10  and  C_11
REMARK    5  A    between atoms: C_10  and  C_12
REMARK    6  A    between atoms: C_15  and  O_16
REMARK    7  A    between atoms: O_16  and  C_17
REMARK    8  A    between atoms: C_17  and  C_18
REMARK                            x       y       z     vdW  Elec       q    Type
REMARK                         _______ _______ _______ _____ _____    ______ ____
ROOT
ATOM      1  C   UNL     1      30.285  22.419  15.075  0.00  0.00    +0.102 C 
ATOM      2  C   UNL     1      29.057  21.521  14.915  0.00  0.00    +0.033 C 
ENDROOT
BRANCH   1   9
ATOM      3  N   UNL     1      33.409  22.750  10.634  0.00  0.00    -0.299 N 
ATOM      4  C   UNL     1      33.023  24.158  10.714  0.00  0.00    +0.127 C 
ATOM      5  C   UNL     1      31.539  24.322  11.053  0.00  0.00    +0.129 C 
ATOM      6  N   UNL     1      31.223  23.638  12.310  0.00  0.00    -0.275 N 
ATOM      7  C   UNL     1      30.459  24.278  13.244  0.00  0.00    +0.303 C 
ATOM      8  O   UNL     1      30.047  25.428  13.061  0.00  0.00    -0.253 OA
ATOM      9  N   UNL     1      30.118  23.716  14.424  0.00  0.00    -0.293 N 
ATOM     10  C   UNL     1      31.765  22.292  12.419  0.00  0.00    +0.205 C 
ATOM     11  C   UNL     1      32.748  21.783  11.365  0.00  0.00    +0.233 C 
ATOM     12  O   UNL     1      33.007  20.580  11.290  0.00  0.00    -0.274 OA
ATOM     13  H   UNL     1      29.573  24.387  14.952  0.00  0.00    +0.151 HD
BRANCH   3  15
ATOM     14  C   UNL     1      34.120  22.298   8.337  0.00  0.00    +0.024 C 
ATOM     15  C   UNL     1      34.528  22.358   9.798  0.00  0.00    +0.104 C 
ENDBRANCH   3  15
ENDBRANCH   1   9
BRANCH   1  16
ATOM     16  C   UNL     1      30.665  22.614  16.532  0.00  0.00    -0.024 A 
ATOM     17  C   UNL     1      29.809  23.256  17.435  0.00  0.00    +0.009 A 
ATOM     18  C   UNL     1      30.183  23.444  18.766  0.00  0.00    +0.049 A 
ATOM     19  C   UNL     1      31.444  23.028  19.214  0.00  0.00    +0.156 A 
ATOM     20  C   UNL     1      32.280  22.356  18.326  0.00  0.00    +0.165 A 
ATOM     21  F   UNL     1      33.479  21.906  18.728  0.00  0.00    -0.202 F 
ATOM     22  C   UNL     1      31.909  22.158  16.997  0.00  0.00    +0.047 A 
BRANCH  19  23
ATOM     23  O   UNL     1      31.924  23.244  20.476  0.00  0.00    -0.489 OA
BRANCH  23  24
ATOM     24  C   UNL     1      32.966  24.215  20.567  0.00  0.00    +0.232 C 
BRANCH  24  25
ATOM     25  C   UNL     1      32.471  25.525  20.039  0.00  0.00    +0.027 C 
ATOM     26  C   UNL     1      33.191  26.172  18.882  0.00  0.00    +0.007 C 
ATOM     27  C   UNL     1      33.273  26.784  20.254  0.00  0.00    +0.007 C 
ENDBRANCH  24  25
ENDBRANCH  23  24
ENDBRANCH  19  23
ENDBRANCH   1  16
TORSDOF 6
ENDMDL
MODEL 5
REMARK VINA RESULT:      -6.2      3.241      8.788
REMARK  Name = ZINC000543478179
REMARK  8 active torsions:
REMARK  status: ('A' for Active; 'I' for Inactive)
REMARK    1  A    between atoms: C_1  and  C_2
REMARK    2  A    between atoms: C_2  and  N_3
REMARK    3  A    between atoms: N_9  and  C_10
REMARK    4  A    between atoms: C_10  and  C_11
REMARK    5  A    between atoms: C_10  and  C_12
REMARK    6  A    between atoms: C_15  and  O_16
REMARK    7  A    between atoms: O_16  and  C_17
REMARK    8  A    between atoms: C_17  and  C_18
REMARK                            x       y       z     vdW  Elec       q    Type
REMARK                         _______ _______ _______ _____ _____    ______ ____
ROOT
ATOM      1  C   UNL     1      30.186  22.760  16.831  0.00  0.00    +0.102 C 
ATOM      2  C   UNL     1      28.671  22.965  16.762  0.00  0.00    +0.033 C 
ENDROOT
BRANCH   1   9
ATOM      3  N   UNL     1      32.066  19.609  12.816  0.00  0.00    -0.299 N 
ATOM      4  C   UNL     1      32.798  20.828  12.474  0.00  0.00    +0.127 C 
ATOM      5  C   UNL     1      31.917  22.074  12.600  0.00  0.00    +0.129 C 
ATOM      6  N   UNL     1      31.366  22.176  13.955  0.00  0.00    -0.275 N 
ATOM      7  C   UNL     1      31.396  23.380  14.598  0.00  0.00    +0.303 C 
ATOM      8  O   UNL     1      31.896  24.380  14.071  0.00  0.00    -0.253 OA
ATOM      9  N   UNL     1      30.904  23.560  15.843  0.00  0.00    -0.293 N 
ATOM     10  C   UNL     1      30.810  20.937  14.476  0.00  0.00    +0.205 C 
ATOM     11  C   UNL     1      31.011  19.632  13.705  0.00  0.00    +0.233 C 
ATOM     12  O   UNL     1      30.335  18.638  13.984  0.00  0.00    -0.274 OA
ATOM     13  H   UNL     1      31.061  24.524  16.111  0.00  0.00    +0.151 HD
BRANCH   3  15
ATOM     14  C   UNL     1      33.113  18.546  10.876  0.00  0.00    +0.024 C 
ATOM     15  C   UNL     1      32.471  18.342  12.236  0.00  0.00    +0.104 C 
ENDBRANCH   3  15
ENDBRANCH   1   9
BRANCH   1  16
ATOM     16  C   UNL     1      30.737  23.032  18.219  0.00  0.00    -0.024 A 
ATOM     17  C   UNL     1      32.093  22.858  18.520  0.00  0.00    +0.009 A 
ATOM     18  C   UNL     1      32.577  23.094  19.807  0.00  0.00    +0.049 A 
ATOM     19  C   UNL     1      31.704  23.471  20.837  0.00  0.00    +0.156 A 
ATOM     20  C   UNL     1      30.362  23.681  20.529  0.00  0.00    +0.165 A 
ATOM     21  F   UNL     1      29.502  24.082  21.478  0.00  0.00    -0.202 F 
ATOM     22  C   UNL     1      29.873  23.455  19.244  0.00  0.00    +0.047 A 
BRANCH  19  23
ATOM     23  O   UNL     1      32.077  23.643  22.140  0.00  0.00    -0.489 OA
BRANCH  23  24
ATOM     24  C   UNL     1      33.236  24.454  22.333  0.00  0.00    +0.232 C 
BRANCH  24  25
ATOM     25  C   UNL     1      32.839  25.896  22.327  0.00  0.00    +0.027 C 
ATOM     26  C   UNL     1      33.109  26.729  21.099  0.00  0.00    +0.007 C 
ATOM     27  C   UNL     1      33.892  26.976  22.359  0.00  0.00    +0.007 C 
ENDBRANCH  24  25
ENDBRANCH  23  24
ENDBRANCH  19  23
ENDBRANCH   1  16
TORSDOF 6
ENDMDL
MODEL 6
REMARK VINA RESULT:      -6.2      5.500      8.772
REMARK  Name = ZINC000543478179
REMARK  8 active torsions:
REMARK  status: ('A' for Active; 'I' for Inactive)
REMARK    1  A    between atoms: C_1  and  C_2
REMARK    2  A    between atoms: C_2  and  N_3
REMARK    3  A    between atoms: N_9  and  C_10
REMARK    4  A    between atoms: C_10  and  C_11
REMARK    5  A    between atoms: C_10  and  C_12
REMARK    6  A    between atoms: C_15  and  O_16
REMARK    7  A    between atoms: O_16  and  C_17
REMARK    8  A    between atoms: C_17  and  C_18
REMARK                            x       y       z     vdW  Elec       q    Type
REMARK                         _______ _______ _______ _____ _____    ______ ____
ROOT
ATOM      1  C   UNL     1      33.974  24.453  22.438  0.00  0.00    +0.102 C 
ATOM      2  C   UNL     1      35.267  23.878  21.856  0.00  0.00    +0.033 C 
ENDROOT
BRANCH   1   9
ATOM      3  N   UNL     1      31.342  25.178  27.143  0.00  0.00    -0.299 N 
ATOM      4  C   UNL     1      31.636  26.581  26.859  0.00  0.00    +0.127 C 
ATOM      5  C   UNL     1      33.062  26.769  26.334  0.00  0.00    +0.129 C 
ATOM      6  N   UNL     1      33.276  25.953  25.135  0.00  0.00    -0.275 N 
ATOM      7  C   UNL     1      33.895  26.509  24.052  0.00  0.00    +0.303 C 
ATOM      8  O   UNL     1      34.258  27.690  24.053  0.00  0.00    -0.253 OA
ATOM      9  N   UNL     1      34.136  25.825  22.912  0.00  0.00    -0.293 N 
ATOM     10  C   UNL     1      32.805  24.581  25.244  0.00  0.00    +0.205 C 
ATOM     11  C   UNL     1      31.974  24.160  26.457  0.00  0.00    +0.233 C 
ATOM     12  O   UNL     1      31.794  22.964  26.698  0.00  0.00    -0.274 OA
ATOM     13  H   UNL     1      34.580  26.452  22.252  0.00  0.00    +0.151 HD
BRANCH   3  15
ATOM     14  C   UNL     1      28.973  25.339  27.733  0.00  0.00    +0.024 C 
ATOM     15  C   UNL     1      30.346  24.840  28.143  0.00  0.00    +0.104 C 
ENDBRANCH   3  15
ENDBRANCH   1   9
BRANCH   1  16
ATOM     16  C   UNL     1      32.821  24.377  21.454  0.00  0.00    -0.024 A 
ATOM     17  C   UNL     1      31.734  23.518  21.661  0.00  0.00    +0.009 A 
ATOM     18  C   UNL     1      30.693  23.446  20.734  0.00  0.00    +0.049 A 
ATOM     19  C   UNL     1      30.735  24.205  19.557  0.00  0.00    +0.156 A 
ATOM     20  C   UNL     1      31.797  25.088  19.371  0.00  0.00    +0.165 A 
ATOM     21  F   UNL     1      31.853  25.862  18.276  0.00  0.00    -0.202 F 
ATOM     22  C   UNL     1      32.836  25.170  20.295  0.00  0.00    +0.047 A 
BRANCH  19  23
ATOM     23  O   UNL     1      29.802  24.137  18.561  0.00  0.00    -0.489 OA
BRANCH  23  24
ATOM     24  C   UNL     1      29.973  23.053  17.648  0.00  0.00    +0.232 C 
BRANCH  24  25
ATOM     25  C   UNL     1      28.860  23.066  16.648  0.00  0.00    +0.027 C 
ATOM     26  C   UNL     1      27.676  22.155  16.852  0.00  0.00    +0.007 C 
ATOM     27  C   UNL     1      28.645  21.887  15.733  0.00  0.00    +0.007 C 
ENDBRANCH  24  25
ENDBRANCH  23  24
ENDBRANCH  19  23
ENDBRANCH   1  16
TORSDOF 6
ENDMDL
MODEL 7
REMARK VINA RESULT:      -6.2      4.298      6.550
REMARK  Name = ZINC000543478179
REMARK  8 active torsions:
REMARK  status: ('A' for Active; 'I' for Inactive)
REMARK    1  A    between atoms: C_1  and  C_2
REMARK    2  A    between atoms: C_2  and  N_3
REMARK    3  A    between atoms: N_9  and  C_10
REMARK    4  A    between atoms: C_10  and  C_11
REMARK    5  A    between atoms: C_10  and  C_12
REMARK    6  A    between atoms: C_15  and  O_16
REMARK    7  A    between atoms: O_16  and  C_17
REMARK    8  A    between atoms: C_17  and  C_18
REMARK                            x       y       z     vdW  Elec       q    Type
REMARK                         _______ _______ _______ _____ _____    ______ ____
ROOT
ATOM      1  C   UNL     1      31.592  23.815  19.864  0.00  0.00    +0.102 C 
ATOM      2  C   UNL     1      30.655  23.442  21.015  0.00  0.00    +0.033 C 
ENDROOT
BRANCH   1   9
ATOM      3  N   UNL     1      35.029  28.000  20.371  0.00  0.00    -0.299 N 
ATOM      4  C   UNL     1      36.024  26.937  20.244  0.00  0.00    +0.127 C 
ATOM      5  C   UNL     1      35.641  25.699  21.059  0.00  0.00    +0.129 C 
ATOM      6  N   UNL     1      34.320  25.209  20.653  0.00  0.00    -0.275 N 
ATOM      7  C   UNL     1      34.141  23.871  20.444  0.00  0.00    +0.303 C 
ATOM      8  O   UNL     1      35.071  23.068  20.570  0.00  0.00    -0.253 OA
ATOM      9  N   UNL     1      32.955  23.338  20.075  0.00  0.00    -0.293 N 
ATOM     10  C   UNL     1      33.303  26.241  20.531  0.00  0.00    +0.205 C 
ATOM     11  C   UNL     1      33.703  27.714  20.625  0.00  0.00    +0.233 C 
ATOM     12  O   UNL     1      32.840  28.580  20.789  0.00  0.00    -0.274 OA
ATOM     13  H   UNL     1      33.077  22.339  19.961  0.00  0.00    +0.151 HD
BRANCH   3  15
ATOM     14  C   UNL     1      36.076  29.925  21.460  0.00  0.00    +0.024 C 
ATOM     15  C   UNL     1      35.430  29.384  20.198  0.00  0.00    +0.104 C 
ENDBRANCH   3  15
ENDBRANCH   1   9
BRANCH   1  16
ATOM     16  C   UNL     1      31.072  23.328  18.524  0.00  0.00    -0.024 A 
ATOM     17  C   UNL     1      31.938  22.889  17.515  0.00  0.00    +0.009 A 
ATOM     18  C   UNL     1      31.443  22.463  16.282  0.00  0.00    +0.049 A 
ATOM     19  C   UNL     1      30.068  22.506  16.015  0.00  0.00    +0.156 A 
ATOM     20  C   UNL     1      29.204  22.906  17.031  0.00  0.00    +0.165 A 
ATOM     21  F   UNL     1      27.877  22.922  16.828  0.00  0.00    -0.202 F 
ATOM     22  C   UNL     1      29.691  23.325  18.268  0.00  0.00    +0.047 A 
BRANCH  19  23
ATOM     23  O   UNL     1      29.505  22.186  14.811  0.00  0.00    -0.489 OA
BRANCH  23  24
ATOM     24  C   UNL     1      30.393  22.253  13.694  0.00  0.00    +0.232 C 
BRANCH  24  25
ATOM     25  C   UNL     1      30.144  23.519  12.938  0.00  0.00    +0.027 C 
ATOM     26  C   UNL     1      31.082  23.907  11.823  0.00  0.00    +0.007 C 
ATOM     27  C   UNL     1      31.071  24.698  13.102  0.00  0.00    +0.007 C 
ENDBRANCH  24  25
ENDBRANCH  23  24
ENDBRANCH  19  23
ENDBRANCH   1  16
TORSDOF 6
ENDMDL
MODEL 8
REMARK VINA RESULT:      -6.1      2.757      4.804
REMARK  Name = ZINC000543478179
REMARK  8 active torsions:
REMARK  status: ('A' for Active; 'I' for Inactive)
REMARK    1  A    between atoms: C_1  and  C_2
REMARK    2  A    between atoms: C_2  and  N_3
REMARK    3  A    between atoms: N_9  and  C_10
REMARK    4  A    between atoms: C_10  and  C_11
REMARK    5  A    between atoms: C_10  and  C_12
REMARK    6  A    between atoms: C_15  and  O_16
REMARK    7  A    between atoms: O_16  and  C_17
REMARK    8  A    between atoms: C_17  and  C_18
REMARK                            x       y       z     vdW  Elec       q    Type
REMARK                         _______ _______ _______ _____ _____    ______ ____
ROOT
ATOM      1  C   UNL     1      29.694  24.041  19.344  0.00  0.00    +0.102 C 
ATOM      2  C   UNL     1      28.212  24.341  19.578  0.00  0.00    +0.033 C 
ENDROOT
BRANCH   1   9
ATOM      3  N   UNL     1      34.593  26.062  20.571  0.00  0.00    -0.299 N 
ATOM      4  C   UNL     1      34.675  24.839  21.367  0.00  0.00    +0.127 C 
ATOM      5  C   UNL     1      33.365  24.554  22.107  0.00  0.00    +0.129 C 
ATOM      6  N   UNL     1      32.251  24.467  21.158  0.00  0.00    -0.275 N 
ATOM      7  C   UNL     1      31.352  23.445  21.276  0.00  0.00    +0.303 C 
ATOM      8  O   UNL     1      31.470  22.581  22.151  0.00  0.00    -0.253 OA
ATOM      9  N   UNL     1      30.296  23.298  20.448  0.00  0.00    -0.293 N 
ATOM     10  C   UNL     1      32.214  25.534  20.169  0.00  0.00    +0.205 C 
ATOM     11  C   UNL     1      33.390  26.504  20.058  0.00  0.00    +0.233 C 
ATOM     12  O   UNL     1      33.268  27.555  19.423  0.00  0.00    -0.274 OA
ATOM     13  H   UNL     1      29.793  22.461  20.718  0.00  0.00    +0.151 HD
BRANCH   3  15
ATOM     14  C   UNL     1      36.160  27.729  21.440  0.00  0.00    +0.024 C 
ATOM     15  C   UNL     1      35.801  26.814  20.283  0.00  0.00    +0.104 C 
ENDBRANCH   3  15
ENDBRANCH   1   9
BRANCH   1  16
ATOM     16  C   UNL     1      29.929  23.310  18.035  0.00  0.00    -0.024 A 
ATOM     17  C   UNL     1      31.215  23.145  17.506  0.00  0.00    +0.009 A 
ATOM     18  C   UNL     1      31.410  22.487  16.291  0.00  0.00    +0.049 A 
ATOM     19  C   UNL     1      30.315  22.015  15.555  0.00  0.00    +0.156 A 
ATOM     20  C   UNL     1      29.040  22.145  16.100  0.00  0.00    +0.165 A 
ATOM     21  F   UNL     1      27.969  21.669  15.445  0.00  0.00    -0.202 F 
ATOM     22  C   UNL     1      28.838  22.793  17.316  0.00  0.00    +0.047 A 
BRANCH  19  23
ATOM     23  O   UNL     1      30.407  21.433  14.322  0.00  0.00    -0.489 OA
BRANCH  23  24
ATOM     24  C   UNL     1      31.176  20.230  14.279  0.00  0.00    +0.232 C 
BRANCH  24  25
ATOM     25  C   UNL     1      30.255  19.056  14.186  0.00  0.00    +0.027 C 
ATOM     26  C   UNL     1      30.766  17.688  14.562  0.00  0.00    +0.007 C 
ATOM     27  C   UNL     1      30.464  18.007  13.123  0.00  0.00    +0.007 C 
ENDBRANCH  24  25
ENDBRANCH  23  24
ENDBRANCH  19  23
ENDBRANCH   1  16
TORSDOF 6
ENDMDL
MODEL 9
REMARK VINA RESULT:      -6.1     10.472     13.207
REMARK  Name = ZINC000543478179
REMARK  8 active torsions:
REMARK  status: ('A' for Active; 'I' for Inactive)
REMARK    1  A    between atoms: C_1  and  C_2
REMARK    2  A    between atoms: C_2  and  N_3
REMARK    3  A    between atoms: N_9  and  C_10
REMARK    4  A    between atoms: C_10  and  C_11
REMARK    5  A    between atoms: C_10  and  C_12
REMARK    6  A    between atoms: C_15  and  O_16
REMARK    7  A    between atoms: O_16  and  C_17
REMARK    8  A    between atoms: C_17  and  C_18
REMARK                            x       y       z     vdW  Elec       q    Type
REMARK                         _______ _______ _______ _____ _____    ______ ____
ROOT
ATOM      1  C   UNL     1      21.743  25.539  24.612  0.00  0.00    +0.102 C 
ATOM      2  C   UNL     1      22.094  26.801  25.403  0.00  0.00    +0.033 C 
ENDROOT
BRANCH   1   9
ATOM      3  N   UNL     1      22.241  20.456  26.485  0.00  0.00    -0.299 N 
ATOM      4  C   UNL     1      20.785  20.479  26.350  0.00  0.00    +0.127 C 
ATOM      5  C   UNL     1      20.189  21.800  26.844  0.00  0.00    +0.129 C 
ATOM      6  N   UNL     1      20.783  22.930  26.123  0.00  0.00    -0.275 N 
ATOM      7  C   UNL     1      19.970  23.918  25.646  0.00  0.00    +0.303 C 
ATOM      8  O   UNL     1      18.744  23.870  25.790  0.00  0.00    -0.253 OA
ATOM      9  N   UNL     1      20.438  24.995  24.977  0.00  0.00    -0.293 N 
ATOM     10  C   UNL     1      22.233  22.879  26.007  0.00  0.00    +0.205 C 
ATOM     11  C   UNL     1      22.983  21.619  26.438  0.00  0.00    +0.233 C 
ATOM     12  O   UNL     1      24.206  21.651  26.598  0.00  0.00    -0.274 OA
ATOM     13  H   UNL     1      19.649  25.570  24.708  0.00  0.00    +0.151 HD
BRANCH   3  15
ATOM     14  C   UNL     1      23.007  18.446  25.320  0.00  0.00    +0.024 C 
ATOM     15  C   UNL     1      22.928  19.188  26.641  0.00  0.00    +0.104 C 
ENDBRANCH   3  15
ENDBRANCH   1   9
BRANCH   1  16
ATOM     16  C   UNL     1      21.811  25.767  23.113  0.00  0.00    -0.024 A 
ATOM     17  C   UNL     1      23.010  26.103  22.474  0.00  0.00    +0.009 A 
ATOM     18  C   UNL     1      23.049  26.329  21.098  0.00  0.00    +0.049 A 
ATOM     19  C   UNL     1      21.876  26.263  20.334  0.00  0.00    +0.156 A 
ATOM     20  C   UNL     1      20.690  25.891  20.963  0.00  0.00    +0.165 A 
ATOM     21  F   UNL     1      19.553  25.776  20.258  0.00  0.00    -0.202 F 
ATOM     22  C   UNL     1      20.646  25.656  22.336  0.00  0.00    +0.047 A 
BRANCH  19  23
ATOM     23  O   UNL     1      21.807  26.548  18.998  0.00  0.00    -0.489 OA
BRANCH  23  24
ATOM     24  C   UNL     1      22.763  25.865  18.187  0.00  0.00    +0.232 C 
BRANCH  24  25
ATOM     25  C   UNL     1      22.272  24.481  17.900  0.00  0.00    +0.027 C 
ATOM     26  C   UNL     1      23.244  23.446  17.390  0.00  0.00    +0.007 C 
ATOM     27  C   UNL     1      22.177  23.988  16.478  0.00  0.00    +0.007 C 
ENDBRANCH  24  25
ENDBRANCH  23  24
ENDBRANCH  19  23
ENDBRANCH   1  16
TORSDOF 6
ENDMDL
