MODEL 1
REMARK VINA RESULT:      -6.6      0.000      0.000
REMARK  Name = ZINC000435351830
REMARK  5 active torsions:
REMARK  status: ('A' for Active; 'I' for Inactive)
REMARK    1  A    between atoms: C_2  and  C_3
REMARK    2  A    between atoms: C_7  and  C_8
REMARK    3  A    between atoms: C_8  and  C_9
REMARK    4  A    between atoms: N_11  and  C_12
REMARK    5  A    between atoms: C_12  and  C_13
REMARK                            x       y       z     vdW  Elec       q    Type
REMARK                         _______ _______ _______ _____ _____    ______ ____
ROOT
ATOM      1  C   UNL     1      31.198  23.509  15.367  0.00  0.00    +0.224 C 
ATOM      2  O   UNL     1      32.162  24.082  15.863  0.00  0.00    -0.275 OA
ATOM      3  N   UNL     1      30.579  23.895  14.207  0.00  0.00    -0.309 N 
ATOM      4  H   UNL     1      29.811  23.351  13.842  0.00  0.00    +0.149 HD
ENDROOT
BRANCH   1   5
ATOM      5  C   UNL     1      30.565  22.329  16.059  0.00  0.00    +0.072 C 
ATOM      6  C   UNL     1      29.968  22.535  17.447  0.00  0.00    +0.022 C 
ATOM      7  C   UNL     1      29.048  22.385  16.280  0.00  0.00    +0.022 C 
BRANCH   5  12
ATOM      8  C   UNL     1      32.349  18.936  16.200  0.00  0.00    +0.052 A 
ATOM      9  C   UNL     1      32.226  18.479  14.888  0.00  0.00    +0.019 A 
ATOM     10  C   UNL     1      31.516  19.234  13.955  0.00  0.00    +0.002 A 
ATOM     11  C   UNL     1      30.950  20.458  14.325  0.00  0.00    +0.005 A 
ATOM     12  C   UNL     1      31.086  20.958  15.632  0.00  0.00    -0.031 A 
ATOM     13  C   UNL     1      31.769  20.154  16.565  0.00  0.00    +0.023 A 
BRANCH   8  15
ATOM     14  N   UNL     1      33.685  17.564  17.949  0.00  0.00    -0.191 NA
ATOM     15  C   UNL     1      33.092  18.184  17.166  0.00  0.00    +0.099 C 
ENDBRANCH   8  15
ENDBRANCH   5  12
ENDBRANCH   1   5
BRANCH   3  16
ATOM     16  C   UNL     1      30.969  25.098  13.503  0.00  0.00    +0.159 C 
BRANCH  16  17
ATOM     17  C   UNL     1      31.763  24.823  12.246  0.00  0.00    +0.058 A 
ATOM     18  C   UNL     1      31.654  25.675  11.144  0.00  0.00    +0.028 A 
ATOM     19  C   UNL     1      32.376  25.386   9.988  0.00  0.00    +0.042 A 
ATOM     20  C   UNL     1      33.186  24.264   9.971  0.00  0.00    +0.141 A 
ATOM     21  F   UNL     1      33.889  23.952   8.875  0.00  0.00    -0.204 F 
ATOM     22  C   UNL     1      33.255  23.472  11.103  0.00  0.00    +0.149 A 
ATOM     23  N   UNL     1      32.568  23.726  12.244  0.00  0.00    -0.255 NA
ENDBRANCH  16  17
ENDBRANCH   3  16
TORSDOF 5
ENDMDL
MODEL 2
REMARK VINA RESULT:      -6.5      2.491      3.030
REMARK  Name = ZINC000435351830
REMARK  5 active torsions:
REMARK  status: ('A' for Active; 'I' for Inactive)
REMARK    1  A    between atoms: C_2  and  C_3
REMARK    2  A    between atoms: C_7  and  C_8
REMARK    3  A    between atoms: C_8  and  C_9
REMARK    4  A    between atoms: N_11  and  C_12
REMARK    5  A    between atoms: C_12  and  C_13
REMARK                            x       y       z     vdW  Elec       q    Type
REMARK                         _______ _______ _______ _____ _____    ______ ____
ROOT
ATOM      1  C   UNL     1      30.206  22.895  15.152  0.00  0.00    +0.224 C 
ATOM      2  O   UNL     1      29.932  22.070  14.288  0.00  0.00    -0.275 OA
ATOM      3  N   UNL     1      30.613  24.179  14.898  0.00  0.00    -0.309 N 
ATOM      4  H   UNL     1      30.787  24.812  15.665  0.00  0.00    +0.149 HD
ENDROOT
BRANCH   1   5
ATOM      5  C   UNL     1      30.169  22.520  16.611  0.00  0.00    +0.072 C 
ATOM      6  C   UNL     1      29.158  23.216  17.515  0.00  0.00    +0.022 C 
ATOM      7  C   UNL     1      28.910  21.800  17.111  0.00  0.00    +0.022 C 
BRANCH   5  12
ATOM      8  C   UNL     1      32.927  20.037  17.583  0.00  0.00    +0.052 A 
ATOM      9  C   UNL     1      33.786  20.828  18.346  0.00  0.00    +0.019 A 
ATOM     10  C   UNL     1      33.515  22.186  18.509  0.00  0.00    +0.002 A 
ATOM     11  C   UNL     1      32.374  22.750  17.931  0.00  0.00    +0.005 A 
ATOM     12  C   UNL     1      31.474  21.970  17.184  0.00  0.00    -0.031 A 
ATOM     13  C   UNL     1      31.795  20.612  16.998  0.00  0.00    +0.023 A 
BRANCH   8  15
ATOM     14  N   UNL     1      33.374  17.497  17.306  0.00  0.00    -0.191 NA
ATOM     15  C   UNL     1      33.177  18.637  17.423  0.00  0.00    +0.099 C 
ENDBRANCH   8  15
ENDBRANCH   5  12
ENDBRANCH   1   5
BRANCH   3  16
ATOM     16  C   UNL     1      30.846  24.648  13.550  0.00  0.00    +0.159 C 
BRANCH  16  17
ATOM     17  C   UNL     1      31.960  25.667  13.456  0.00  0.00    +0.058 A 
ATOM     18  C   UNL     1      31.811  26.799  12.651  0.00  0.00    +0.028 A 
ATOM     19  C   UNL     1      32.861  27.711  12.561  0.00  0.00    +0.042 A 
ATOM     20  C   UNL     1      34.019  27.468  13.280  0.00  0.00    +0.141 A 
ATOM     21  F   UNL     1      35.050  28.319  13.212  0.00  0.00    -0.204 F 
ATOM     22  C   UNL     1      34.091  26.333  14.066  0.00  0.00    +0.149 A 
ATOM     23  N   UNL     1      33.088  25.428  14.178  0.00  0.00    -0.255 NA
ENDBRANCH  16  17
ENDBRANCH   3  16
TORSDOF 5
ENDMDL
MODEL 3
REMARK VINA RESULT:      -6.5      2.527      2.829
REMARK  Name = ZINC000435351830
REMARK  5 active torsions:
REMARK  status: ('A' for Active; 'I' for Inactive)
REMARK    1  A    between atoms: C_2  and  C_3
REMARK    2  A    between atoms: C_7  and  C_8
REMARK    3  A    between atoms: C_8  and  C_9
REMARK    4  A    between atoms: N_11  and  C_12
REMARK    5  A    between atoms: C_12  and  C_13
REMARK                            x       y       z     vdW  Elec       q    Type
REMARK                         _______ _______ _______ _____ _____    ______ ____
ROOT
ATOM      1  C   UNL     1      30.206  23.086  15.071  0.00  0.00    +0.224 C 
ATOM      2  O   UNL     1      29.842  22.355  14.156  0.00  0.00    -0.275 OA
ATOM      3  N   UNL     1      30.657  24.369  14.907  0.00  0.00    -0.309 N 
ATOM      4  H   UNL     1      30.907  24.921  15.715  0.00  0.00    +0.149 HD
ENDROOT
BRANCH   1   5
ATOM      5  C   UNL     1      30.240  22.580  16.491  0.00  0.00    +0.072 C 
ATOM      6  C   UNL     1      29.915  23.555  17.617  0.00  0.00    +0.022 C 
ATOM      7  C   UNL     1      28.902  22.524  17.240  0.00  0.00    +0.022 C 
BRANCH   5  12
ATOM      8  C   UNL     1      33.255  20.505  17.639  0.00  0.00    +0.052 A 
ATOM      9  C   UNL     1      32.969  19.245  17.112  0.00  0.00    +0.019 A 
ATOM     10  C   UNL     1      31.770  19.036  16.429  0.00  0.00    +0.002 A 
ATOM     11  C   UNL     1      30.870  20.090  16.249  0.00  0.00    +0.005 A 
ATOM     12  C   UNL     1      31.148  21.377  16.741  0.00  0.00    -0.031 A 
ATOM     13  C   UNL     1      32.343  21.550  17.465  0.00  0.00    +0.023 A 
BRANCH   8  15
ATOM     14  N   UNL     1      35.495  20.923  18.877  0.00  0.00    -0.191 NA
ATOM     15  C   UNL     1      34.489  20.744  18.324  0.00  0.00    +0.099 C 
ENDBRANCH   8  15
ENDBRANCH   5  12
ENDBRANCH   1   5
BRANCH   3  16
ATOM     16  C   UNL     1      30.831  24.950  13.593  0.00  0.00    +0.159 C 
BRANCH  16  17
ATOM     17  C   UNL     1      32.026  25.872  13.501  0.00  0.00    +0.058 A 
ATOM     18  C   UNL     1      32.007  26.964  12.630  0.00  0.00    +0.028 A 
ATOM     19  C   UNL     1      33.131  27.784  12.543  0.00  0.00    +0.042 A 
ATOM     20  C   UNL     1      34.231  27.491  13.331  0.00  0.00    +0.141 A 
ATOM     21  F   UNL     1      35.330  28.253  13.269  0.00  0.00    -0.204 F 
ATOM     22  C   UNL     1      34.175  26.401  14.180  0.00  0.00    +0.149 A 
ATOM     23  N   UNL     1      33.097  25.586  14.289  0.00  0.00    -0.255 NA
ENDBRANCH  16  17
ENDBRANCH   3  16
TORSDOF 5
ENDMDL
MODEL 4
REMARK VINA RESULT:      -6.5      3.761      6.929
REMARK  Name = ZINC000435351830
REMARK  5 active torsions:
REMARK  status: ('A' for Active; 'I' for Inactive)
REMARK    1  A    between atoms: C_2  and  C_3
REMARK    2  A    between atoms: C_7  and  C_8
REMARK    3  A    between atoms: C_8  and  C_9
REMARK    4  A    between atoms: N_11  and  C_12
REMARK    5  A    between atoms: C_12  and  C_13
REMARK                            x       y       z     vdW  Elec       q    Type
REMARK                         _______ _______ _______ _____ _____    ______ ____
ROOT
ATOM      1  C   UNL     1      31.683  24.147  13.762  0.00  0.00    +0.224 C 
ATOM      2  O   UNL     1      32.720  23.935  14.380  0.00  0.00    -0.275 OA
ATOM      3  N   UNL     1      30.513  23.458  13.949  0.00  0.00    -0.309 N 
ATOM      4  H   UNL     1      29.689  23.714  13.424  0.00  0.00    +0.149 HD
ENDROOT
BRANCH   1   5
ATOM      5  C   UNL     1      31.639  25.183  12.667  0.00  0.00    +0.072 C 
ATOM      6  C   UNL     1      30.575  26.272  12.740  0.00  0.00    +0.022 C 
ATOM      7  C   UNL     1      31.991  26.623  13.060  0.00  0.00    +0.022 C 
BRANCH   5  12
ATOM      8  C   UNL     1      33.606  23.172  10.059  0.00  0.00    +0.052 A 
ATOM      9  C   UNL     1      33.445  23.941   8.906  0.00  0.00    +0.019 A 
ATOM     10  C   UNL     1      32.651  25.087   8.943  0.00  0.00    +0.002 A 
ATOM     11  C   UNL     1      32.039  25.481  10.136  0.00  0.00    +0.005 A 
ATOM     12  C   UNL     1      32.211  24.743  11.321  0.00  0.00    -0.031 A 
ATOM     13  C   UNL     1      32.980  23.567  11.245  0.00  0.00    +0.023 A 
BRANCH   8  15
ATOM     14  N   UNL     1      35.116  21.064  10.043  0.00  0.00    -0.191 NA
ATOM     15  C   UNL     1      34.434  22.005  10.045  0.00  0.00    +0.099 C 
ENDBRANCH   8  15
ENDBRANCH   5  12
ENDBRANCH   1   5
BRANCH   3  16
ATOM     16  C   UNL     1      30.433  22.331  14.853  0.00  0.00    +0.159 C 
BRANCH  16  17
ATOM     17  C   UNL     1      29.860  22.692  16.206  0.00  0.00    +0.058 A 
ATOM     18  C   UNL     1      28.728  22.031  16.689  0.00  0.00    +0.028 A 
ATOM     19  C   UNL     1      28.204  22.399  17.927  0.00  0.00    +0.042 A 
ATOM     20  C   UNL     1      28.828  23.407  18.642  0.00  0.00    +0.141 A 
ATOM     21  F   UNL     1      28.348  23.791  19.832  0.00  0.00    -0.204 F 
ATOM     22  C   UNL     1      29.952  24.009  18.107  0.00  0.00    +0.149 A 
ATOM     23  N   UNL     1      30.489  23.673  16.908  0.00  0.00    -0.255 NA
ENDBRANCH  16  17
ENDBRANCH   3  16
TORSDOF 5
ENDMDL
MODEL 5
REMARK VINA RESULT:      -6.5      2.465      4.267
REMARK  Name = ZINC000435351830
REMARK  5 active torsions:
REMARK  status: ('A' for Active; 'I' for Inactive)
REMARK    1  A    between atoms: C_2  and  C_3
REMARK    2  A    between atoms: C_7  and  C_8
REMARK    3  A    between atoms: C_8  and  C_9
REMARK    4  A    between atoms: N_11  and  C_12
REMARK    5  A    between atoms: C_12  and  C_13
REMARK                            x       y       z     vdW  Elec       q    Type
REMARK                         _______ _______ _______ _____ _____    ______ ____
ROOT
ATOM      1  C   UNL     1      32.991  21.348  14.722  0.00  0.00    +0.224 C 
ATOM      2  O   UNL     1      34.178  21.337  15.027  0.00  0.00    -0.275 OA
ATOM      3  N   UNL     1      32.484  21.948  13.599  0.00  0.00    -0.309 N 
ATOM      4  H   UNL     1      31.496  21.884  13.397  0.00  0.00    +0.149 HD
ENDROOT
BRANCH   1   5
ATOM      5  C   UNL     1      31.959  20.730  15.630  0.00  0.00    +0.072 C 
ATOM      6  C   UNL     1      31.369  19.378  15.245  0.00  0.00    +0.022 C 
ATOM      7  C   UNL     1      32.360  19.442  16.361  0.00  0.00    +0.022 C 
BRANCH   5  12
ATOM      8  C   UNL     1      28.988  22.408  17.383  0.00  0.00    +0.052 A 
ATOM      9  C   UNL     1      29.567  23.561  17.914  0.00  0.00    +0.019 A 
ATOM     10  C   UNL     1      30.936  23.782  17.762  0.00  0.00    +0.002 A 
ATOM     11  C   UNL     1      31.722  22.865  17.058  0.00  0.00    +0.005 A 
ATOM     12  C   UNL     1      31.159  21.712  16.484  0.00  0.00    -0.031 A 
ATOM     13  C   UNL     1      29.784  21.491  16.691  0.00  0.00    +0.023 A 
BRANCH   8  15
ATOM     14  N   UNL     1      26.437  22.002  17.614  0.00  0.00    -0.191 NA
ATOM     15  C   UNL     1      27.581  22.176  17.510  0.00  0.00    +0.099 C 
ENDBRANCH   8  15
ENDBRANCH   5  12
ENDBRANCH   1   5
BRANCH   3  16
ATOM     16  C   UNL     1      33.323  22.715  12.704  0.00  0.00    +0.159 C 
BRANCH  16  17
ATOM     17  C   UNL     1      33.003  24.193  12.707  0.00  0.00    +0.058 A 
ATOM     18  C   UNL     1      32.214  24.744  11.694  0.00  0.00    +0.028 A 
ATOM     19  C   UNL     1      31.955  26.114  11.703  0.00  0.00    +0.042 A 
ATOM     20  C   UNL     1      32.485  26.884  12.724  0.00  0.00    +0.141 A 
ATOM     21  F   UNL     1      32.262  28.205  12.761  0.00  0.00    -0.204 F 
ATOM     22  C   UNL     1      33.247  26.269  13.700  0.00  0.00    +0.149 A 
ATOM     23  N   UNL     1      33.515  24.941  13.721  0.00  0.00    -0.255 NA
ENDBRANCH  16  17
ENDBRANCH   3  16
TORSDOF 5
ENDMDL
MODEL 6
REMARK VINA RESULT:      -6.3      1.502      1.937
REMARK  Name = ZINC000435351830
REMARK  5 active torsions:
REMARK  status: ('A' for Active; 'I' for Inactive)
REMARK    1  A    between atoms: C_2  and  C_3
REMARK    2  A    between atoms: C_7  and  C_8
REMARK    3  A    between atoms: C_8  and  C_9
REMARK    4  A    between atoms: N_11  and  C_12
REMARK    5  A    between atoms: C_12  and  C_13
REMARK                            x       y       z     vdW  Elec       q    Type
REMARK                         _______ _______ _______ _____ _____    ______ ____
ROOT
ATOM      1  C   UNL     1      31.276  23.641  15.278  0.00  0.00    +0.224 C 
ATOM      2  O   UNL     1      32.275  24.199  15.720  0.00  0.00    -0.275 OA
ATOM      3  N   UNL     1      30.617  24.019  14.138  0.00  0.00    -0.309 N 
ATOM      4  H   UNL     1      29.820  23.488  13.818  0.00  0.00    +0.149 HD
ENDROOT
BRANCH   1   5
ATOM      5  C   UNL     1      30.645  22.492  16.022  0.00  0.00    +0.072 C 
ATOM      6  C   UNL     1      30.023  22.764  17.387  0.00  0.00    +0.022 C 
ATOM      7  C   UNL     1      29.125  22.541  16.215  0.00  0.00    +0.022 C 
BRANCH   5  12
ATOM      8  C   UNL     1      32.328  19.653  14.066  0.00  0.00    +0.052 A 
ATOM      9  C   UNL     1      32.088  18.546  14.881  0.00  0.00    +0.019 A 
ATOM     10  C   UNL     1      31.431  18.712  16.100  0.00  0.00    +0.002 A 
ATOM     11  C   UNL     1      30.990  19.979  16.494  0.00  0.00    +0.005 A 
ATOM     12  C   UNL     1      31.189  21.106  15.677  0.00  0.00    -0.031 A 
ATOM     13  C   UNL     1      31.894  20.917  14.474  0.00  0.00    +0.023 A 
BRANCH   8  15
ATOM     14  N   UNL     1      33.499  19.377  11.769  0.00  0.00    -0.191 NA
ATOM     15  C   UNL     1      32.981  19.498  12.802  0.00  0.00    +0.099 C 
ENDBRANCH   8  15
ENDBRANCH   5  12
ENDBRANCH   1   5
BRANCH   3  16
ATOM     16  C   UNL     1      31.005  25.197  13.392  0.00  0.00    +0.159 C 
BRANCH  16  17
ATOM     17  C   UNL     1      31.791  24.878  12.140  0.00  0.00    +0.058 A 
ATOM     18  C   UNL     1      31.693  25.706  11.019  0.00  0.00    +0.028 A 
ATOM     19  C   UNL     1      32.407  25.377   9.867  0.00  0.00    +0.042 A 
ATOM     20  C   UNL     1      33.197  24.241   9.876  0.00  0.00    +0.141 A 
ATOM     21  F   UNL     1      33.892  23.890   8.785  0.00  0.00    -0.204 F 
ATOM     22  C   UNL     1      33.255  23.474  11.025  0.00  0.00    +0.149 A 
ATOM     23  N   UNL     1      32.576  23.768  12.161  0.00  0.00    -0.255 NA
ENDBRANCH  16  17
ENDBRANCH   3  16
TORSDOF 5
ENDMDL
MODEL 7
REMARK VINA RESULT:      -6.3      2.470      4.221
REMARK  Name = ZINC000435351830
REMARK  5 active torsions:
REMARK  status: ('A' for Active; 'I' for Inactive)
REMARK    1  A    between atoms: C_2  and  C_3
REMARK    2  A    between atoms: C_7  and  C_8
REMARK    3  A    between atoms: C_8  and  C_9
REMARK    4  A    between atoms: N_11  and  C_12
REMARK    5  A    between atoms: C_12  and  C_13
REMARK                            x       y       z     vdW  Elec       q    Type
REMARK                         _______ _______ _______ _____ _____    ______ ____
ROOT
ATOM      1  C   UNL     1      32.912  21.351  14.881  0.00  0.00    +0.224 C 
ATOM      2  O   UNL     1      34.105  21.308  15.163  0.00  0.00    -0.275 OA
ATOM      3  N   UNL     1      32.400  21.961  13.766  0.00  0.00    -0.309 N 
ATOM      4  H   UNL     1      31.407  21.924  13.584  0.00  0.00    +0.149 HD
ENDROOT
BRANCH   1   5
ATOM      5  C   UNL     1      31.882  20.764  15.811  0.00  0.00    +0.072 C 
ATOM      6  C   UNL     1      31.367  19.357  15.530  0.00  0.00    +0.022 C 
ATOM      7  C   UNL     1      32.318  19.565  16.663  0.00  0.00    +0.022 C 
BRANCH   5  12
ATOM      8  C   UNL     1      30.879  23.731  18.027  0.00  0.00    +0.052 A 
ATOM      9  C   UNL     1      29.491  23.600  18.091  0.00  0.00    +0.019 A 
ATOM     10  C   UNL     1      28.857  22.587  17.372  0.00  0.00    +0.002 A 
ATOM     11  C   UNL     1      29.609  21.688  16.611  0.00  0.00    +0.005 A 
ATOM     12  C   UNL     1      31.011  21.776  16.554  0.00  0.00    -0.031 A 
ATOM     13  C   UNL     1      31.622  22.835  17.253  0.00  0.00    +0.023 A 
BRANCH   8  15
ATOM     14  N   UNL     1      32.091  25.571  19.394  0.00  0.00    -0.191 NA
ATOM     15  C   UNL     1      31.549  24.751  18.774  0.00  0.00    +0.099 C 
ENDBRANCH   8  15
ENDBRANCH   5  12
ENDBRANCH   1   5
BRANCH   3  16
ATOM     16  C   UNL     1      33.242  22.702  12.852  0.00  0.00    +0.159 C 
BRANCH  16  17
ATOM     17  C   UNL     1      32.920  24.179  12.809  0.00  0.00    +0.058 A 
ATOM     18  C   UNL     1      32.131  24.697  11.778  0.00  0.00    +0.028 A 
ATOM     19  C   UNL     1      31.869  26.066  11.745  0.00  0.00    +0.042 A 
ATOM     20  C   UNL     1      32.397  26.869  12.741  0.00  0.00    +0.141 A 
ATOM     21  F   UNL     1      32.173  28.189  12.737  0.00  0.00    -0.204 F 
ATOM     22  C   UNL     1      33.160  26.286  13.737  0.00  0.00    +0.149 A 
ATOM     23  N   UNL     1      33.430  24.959  13.799  0.00  0.00    -0.255 NA
ENDBRANCH  16  17
ENDBRANCH   3  16
TORSDOF 5
ENDMDL
MODEL 8
REMARK VINA RESULT:      -6.3      2.319      3.212
REMARK  Name = ZINC000435351830
REMARK  5 active torsions:
REMARK  status: ('A' for Active; 'I' for Inactive)
REMARK    1  A    between atoms: C_2  and  C_3
REMARK    2  A    between atoms: C_7  and  C_8
REMARK    3  A    between atoms: C_8  and  C_9
REMARK    4  A    between atoms: N_11  and  C_12
REMARK    5  A    between atoms: C_12  and  C_13
REMARK                            x       y       z     vdW  Elec       q    Type
REMARK                         _______ _______ _______ _____ _____    ______ ____
ROOT
ATOM      1  C   UNL     1      33.334  24.798  17.101  0.00  0.00    +0.224 C 
ATOM      2  O   UNL     1      34.531  24.770  17.365  0.00  0.00    -0.275 OA
ATOM      3  N   UNL     1      32.805  25.324  15.951  0.00  0.00    -0.309 N 
ATOM      4  H   UNL     1      31.809  25.278  15.789  0.00  0.00    +0.149 HD
ENDROOT
BRANCH   1   5
ATOM      5  C   UNL     1      32.317  24.289  18.090  0.00  0.00    +0.072 C 
ATOM      6  C   UNL     1      32.702  24.229  19.563  0.00  0.00    +0.022 C 
ATOM      7  C   UNL     1      31.768  25.300  19.104  0.00  0.00    +0.022 C 
BRANCH   5  12
ATOM      8  C   UNL     1      30.727  21.131  16.600  0.00  0.00    +0.052 A 
ATOM      9  C   UNL     1      29.428  21.555  16.317  0.00  0.00    +0.019 A 
ATOM     10  C   UNL     1      29.033  22.849  16.657  0.00  0.00    +0.002 A 
ATOM     11  C   UNL     1      29.941  23.728  17.255  0.00  0.00    +0.005 A 
ATOM     12  C   UNL     1      31.264  23.337  17.522  0.00  0.00    -0.031 A 
ATOM     13  C   UNL     1      31.624  22.012  17.210  0.00  0.00    +0.023 A 
BRANCH   8  15
ATOM     14  N   UNL     1      31.519  18.751  15.942  0.00  0.00    -0.191 NA
ATOM     15  C   UNL     1      31.157  19.814  16.240  0.00  0.00    +0.099 C 
ENDBRANCH   8  15
ENDBRANCH   5  12
ENDBRANCH   1   5
BRANCH   3  16
ATOM     16  C   UNL     1      33.635  25.989  14.970  0.00  0.00    +0.159 C 
BRANCH  16  17
ATOM     17  C   UNL     1      33.089  25.891  13.563  0.00  0.00    +0.058 A 
ATOM     18  C   UNL     1      31.806  26.361  13.271  0.00  0.00    +0.028 A 
ATOM     19  C   UNL     1      31.316  26.236  11.972  0.00  0.00    +0.042 A 
ATOM     20  C   UNL     1      32.122  25.653  11.009  0.00  0.00    +0.141 A 
ATOM     21  F   UNL     1      31.680  25.511   9.753  0.00  0.00    -0.204 F 
ATOM     22  C   UNL     1      33.386  25.221  11.367  0.00  0.00    +0.149 A 
ATOM     23  N   UNL     1      33.893  25.330  12.619  0.00  0.00    -0.255 NA
ENDBRANCH  16  17
ENDBRANCH   3  16
TORSDOF 5
ENDMDL
MODEL 9
REMARK VINA RESULT:      -6.3      2.277      4.120
REMARK  Name = ZINC000435351830
REMARK  5 active torsions:
REMARK  status: ('A' for Active; 'I' for Inactive)
REMARK    1  A    between atoms: C_2  and  C_3
REMARK    2  A    between atoms: C_7  and  C_8
REMARK    3  A    between atoms: C_8  and  C_9
REMARK    4  A    between atoms: N_11  and  C_12
REMARK    5  A    between atoms: C_12  and  C_13
REMARK                            x       y       z     vdW  Elec       q    Type
REMARK                         _______ _______ _______ _____ _____    ______ ____
ROOT
ATOM      1  C   UNL     1      32.452  20.126  14.201  0.00  0.00    +0.224 C 
ATOM      2  O   UNL     1      32.157  19.306  13.339  0.00  0.00    -0.275 OA
ATOM      3  N   UNL     1      33.328  21.164  14.016  0.00  0.00    -0.309 N 
ATOM      4  H   UNL     1      33.494  21.821  14.766  0.00  0.00    +0.149 HD
ENDROOT
BRANCH   1   5
ATOM      5  C   UNL     1      31.894  20.009  15.596  0.00  0.00    +0.072 C 
ATOM      6  C   UNL     1      31.615  18.617  16.152  0.00  0.00    +0.022 C 
ATOM      7  C   UNL     1      32.802  19.371  16.655  0.00  0.00    +0.022 C 
BRANCH   5  12
ATOM      8  C   UNL     1      29.016  22.113  17.012  0.00  0.00    +0.052 A 
ATOM      9  C   UNL     1      29.508  23.413  16.889  0.00  0.00    +0.019 A 
ATOM     10  C   UNL     1      30.798  23.623  16.401  0.00  0.00    +0.002 A 
ATOM     11  C   UNL     1      31.587  22.537  16.011  0.00  0.00    +0.005 A 
ATOM     12  C   UNL     1      31.105  21.219  16.094  0.00  0.00    -0.031 A 
ATOM     13  C   UNL     1      29.817  21.033  16.632  0.00  0.00    +0.023 A 
BRANCH   8  15
ATOM     14  N   UNL     1      26.614  21.692  17.894  0.00  0.00    -0.191 NA
ATOM     15  C   UNL     1      27.688  21.880  17.491  0.00  0.00    +0.099 C 
ENDBRANCH   8  15
ENDBRANCH   5  12
ENDBRANCH   1   5
BRANCH   3  16
ATOM     16  C   UNL     1      34.065  21.325  12.782  0.00  0.00    +0.159 C 
BRANCH  16  17
ATOM     17  C   UNL     1      33.549  22.457  11.922  0.00  0.00    +0.058 A 
ATOM     18  C   UNL     1      32.919  23.557  12.511  0.00  0.00    +0.028 A 
ATOM     19  C   UNL     1      32.428  24.576  11.696  0.00  0.00    +0.042 A 
ATOM     20  C   UNL     1      32.587  24.467  10.325  0.00  0.00    +0.141 A 
ATOM     21  F   UNL     1      32.123  25.423   9.511  0.00  0.00    -0.204 F 
ATOM     22  C   UNL     1      33.232  23.355   9.813  0.00  0.00    +0.149 A 
ATOM     23  N   UNL     1      33.722  22.349  10.577  0.00  0.00    -0.255 NA
ENDBRANCH  16  17
ENDBRANCH   3  16
TORSDOF 5
ENDMDL
