MODEL 1
REMARK VINA RESULT:      -7.6      0.000      0.000
REMARK  Name = ZINC000583127796
REMARK  2 active torsions:
REMARK  status: ('A' for Active; 'I' for Inactive)
REMARK    1  A    between atoms: C_2  and  C_4
REMARK    2  A    between atoms: C_7  and  C_8
REMARK                            x       y       z     vdW  Elec       q    Type
REMARK                         _______ _______ _______ _____ _____    ______ ____
ROOT
ATOM      1  C   UNL     1      30.950  19.346  16.513  0.00  0.00    +0.247 C 
ATOM      2  O   UNL     1      32.100  19.692  16.776  0.00  0.00    -0.270 OA
ATOM      3  N   UNL     1      29.823  20.044  16.976  0.00  0.00    -0.297 N 
ATOM      4  C   UNL     1      28.421  19.710  16.708  0.00  0.00    +0.108 C 
ATOM      5  C   UNL     1      27.653  20.876  16.111  0.00  0.00    +0.020 C 
ATOM      6  C   UNL     1      27.836  22.141  16.928  0.00  0.00    +0.011 C 
ATOM      7  C   UNL     1      29.324  22.485  17.183  0.00  0.00    -0.004 C 
ATOM      8  C   UNL     1      29.349  23.707  18.127  0.00  0.00    +0.020 C 
ATOM      9  C   UNL     1      30.657  24.452  17.967  0.00  0.00    +0.070 C 
ATOM     10  S   UNL     1      30.960  24.428  16.193  0.00  0.00    -0.160 S 
ATOM     11  C   UNL     1      30.038  22.898  15.875  0.00  0.00    +0.077 C 
ATOM     12  C   UNL     1      30.022  21.244  17.805  0.00  0.00    +0.115 C 
ENDROOT
BRANCH   1  16
ATOM     13  C   UNL     1      30.510  16.308  13.533  0.00  0.00    +0.037 A 
ATOM     14  C   UNL     1      29.396  16.690  14.289  0.00  0.00    +0.014 A 
ATOM     15  C   UNL     1      29.546  17.595  15.342  0.00  0.00    +0.014 A 
ATOM     16  C   UNL     1      30.786  18.198  15.577  0.00  0.00    +0.037 A 
ATOM     17  C   UNL     1      31.918  17.738  14.889  0.00  0.00    +0.014 A 
ATOM     18  C   UNL     1      31.780  16.785  13.876  0.00  0.00    +0.014 A 
BRANCH  13  20
ATOM     19  N   UNL     1      29.107  15.018  12.024  0.00  0.00    -0.325 N 
ATOM     20  C   UNL     1      30.373  15.404  12.363  0.00  0.00    +0.242 C 
ATOM     21  O   UNL     1      31.344  15.064  11.703  0.00  0.00    -0.270 OA
ATOM     22  H   UNL     1      29.020  14.509  11.151  0.00  0.00    +0.145 HD
ATOM     23  H   UNL     1      28.287  15.497  12.367  0.00  0.00    +0.145 HD
ENDBRANCH  13  20
ENDBRANCH   1  16
TORSDOF 2
ENDMDL
MODEL 2
REMARK VINA RESULT:      -7.2      2.976      6.975
REMARK  Name = ZINC000583127796
REMARK  2 active torsions:
REMARK  status: ('A' for Active; 'I' for Inactive)
REMARK    1  A    between atoms: C_2  and  C_4
REMARK    2  A    between atoms: C_7  and  C_8
REMARK                            x       y       z     vdW  Elec       q    Type
REMARK                         _______ _______ _______ _____ _____    ______ ____
ROOT
ATOM      1  C   UNL     1      30.102  19.293  15.412  0.00  0.00    +0.247 C 
ATOM      2  O   UNL     1      29.786  19.743  14.312  0.00  0.00    -0.270 OA
ATOM      3  N   UNL     1      31.053  18.271  15.568  0.00  0.00    -0.297 N 
ATOM      4  C   UNL     1      31.496  17.679  16.834  0.00  0.00    +0.108 C 
ATOM      5  C   UNL     1      33.004  17.735  17.001  0.00  0.00    +0.020 C 
ATOM      6  C   UNL     1      33.721  17.183  15.784  0.00  0.00    +0.011 C 
ATOM      7  C   UNL     1      33.251  17.834  14.459  0.00  0.00    -0.004 C 
ATOM      8  C   UNL     1      33.963  17.086  13.311  0.00  0.00    +0.020 C 
ATOM      9  C   UNL     1      34.040  17.977  12.090  0.00  0.00    +0.070 C 
ATOM     10  S   UNL     1      34.436  19.601  12.755  0.00  0.00    -0.160 S 
ATOM     11  C   UNL     1      33.679  19.317  14.380  0.00  0.00    +0.077 C 
ATOM     12  C   UNL     1      31.704  17.718  14.369  0.00  0.00    +0.115 C 
ENDROOT
BRANCH   1  16
ATOM     13  C   UNL     1      28.196  21.408  18.604  0.00  0.00    +0.037 A 
ATOM     14  C   UNL     1      29.540  21.669  18.319  0.00  0.00    +0.014 A 
ATOM     15  C   UNL     1      30.209  20.906  17.359  0.00  0.00    +0.014 A 
ATOM     16  C   UNL     1      29.512  19.954  16.609  0.00  0.00    +0.037 A 
ATOM     17  C   UNL     1      28.198  19.623  16.968  0.00  0.00    +0.014 A 
ATOM     18  C   UNL     1      27.545  20.342  17.973  0.00  0.00    +0.014 A 
BRANCH  13  20
ATOM     19  N   UNL     1      26.801  23.346  19.065  0.00  0.00    -0.325 N 
ATOM     20  C   UNL     1      27.436  22.245  19.568  0.00  0.00    +0.242 C 
ATOM     21  O   UNL     1      27.339  21.934  20.745  0.00  0.00    -0.270 OA
ATOM     22  H   UNL     1      26.185  23.831  19.706  0.00  0.00    +0.145 HD
ATOM     23  H   UNL     1      26.633  23.466  18.076  0.00  0.00    +0.145 HD
ENDBRANCH  13  20
ENDBRANCH   1  16
TORSDOF 2
ENDMDL
MODEL 3
REMARK VINA RESULT:      -7.1      4.926      7.187
REMARK  Name = ZINC000583127796
REMARK  2 active torsions:
REMARK  status: ('A' for Active; 'I' for Inactive)
REMARK    1  A    between atoms: C_2  and  C_4
REMARK    2  A    between atoms: C_7  and  C_8
REMARK                            x       y       z     vdW  Elec       q    Type
REMARK                         _______ _______ _______ _____ _____    ______ ____
ROOT
ATOM      1  C   UNL     1      32.573  23.804  14.104  0.00  0.00    +0.247 C 
ATOM      2  O   UNL     1      33.637  23.189  14.066  0.00  0.00    -0.270 OA
ATOM      3  N   UNL     1      32.382  25.030  13.445  0.00  0.00    -0.297 N 
ATOM      4  C   UNL     1      31.153  25.828  13.429  0.00  0.00    +0.108 C 
ATOM      5  C   UNL     1      30.686  26.142  12.019  0.00  0.00    +0.020 C 
ATOM      6  C   UNL     1      31.806  26.726  11.178  0.00  0.00    +0.011 C 
ATOM      7  C   UNL     1      33.088  25.858  11.194  0.00  0.00    -0.004 C 
ATOM      8  C   UNL     1      34.169  26.636  10.414  0.00  0.00    +0.020 C 
ATOM      9  C   UNL     1      35.211  25.675   9.882  0.00  0.00    +0.070 C 
ATOM     10  S   UNL     1      34.253  24.260   9.318  0.00  0.00    -0.160 S 
ATOM     11  C   UNL     1      32.867  24.515  10.462  0.00  0.00    +0.077 C 
ATOM     12  C   UNL     1      33.497  25.601  12.671  0.00  0.00    +0.115 C 
ENDROOT
BRANCH   1  16
ATOM     13  C   UNL     1      29.059  22.124  15.872  0.00  0.00    +0.037 A 
ATOM     14  C   UNL     1      29.842  23.010  16.620  0.00  0.00    +0.014 A 
ATOM     15  C   UNL     1      31.053  23.477  16.101  0.00  0.00    +0.014 A 
ATOM     16  C   UNL     1      31.432  23.143  14.797  0.00  0.00    +0.037 A 
ATOM     17  C   UNL     1      30.701  22.176  14.093  0.00  0.00    +0.014 A 
ATOM     18  C   UNL     1      29.522  21.658  14.636  0.00  0.00    +0.014 A 
BRANCH  13  20
ATOM     19  N   UNL     1      26.935  22.601  16.955  0.00  0.00    -0.325 N 
ATOM     20  C   UNL     1      27.735  21.664  16.364  0.00  0.00    +0.242 C 
ATOM     21  O   UNL     1      27.358  20.513  16.200  0.00  0.00    -0.270 OA
ATOM     22  H   UNL     1      25.989  22.304  17.166  0.00  0.00    +0.145 HD
ATOM     23  H   UNL     1      27.099  23.592  16.851  0.00  0.00    +0.145 HD
ENDBRANCH  13  20
ENDBRANCH   1  16
TORSDOF 2
ENDMDL
MODEL 4
REMARK VINA RESULT:      -6.9      3.165      6.929
REMARK  Name = ZINC000583127796
REMARK  2 active torsions:
REMARK  status: ('A' for Active; 'I' for Inactive)
REMARK    1  A    between atoms: C_2  and  C_4
REMARK    2  A    between atoms: C_7  and  C_8
REMARK                            x       y       z     vdW  Elec       q    Type
REMARK                         _______ _______ _______ _____ _____    ______ ____
ROOT
ATOM      1  C   UNL     1      31.171  21.061  15.768  0.00  0.00    +0.247 C 
ATOM      2  O   UNL     1      32.274  21.603  15.782  0.00  0.00    -0.270 OA
ATOM      3  N   UNL     1      30.909  19.891  15.037  0.00  0.00    -0.297 N 
ATOM      4  C   UNL     1      29.632  19.175  14.967  0.00  0.00    +0.108 C 
ATOM      5  C   UNL     1      29.770  17.710  15.343  0.00  0.00    +0.020 C 
ATOM      6  C   UNL     1      30.891  17.040  14.571  0.00  0.00    +0.011 C 
ATOM      7  C   UNL     1      32.235  17.803  14.673  0.00  0.00    -0.004 C 
ATOM      8  C   UNL     1      33.234  17.085  13.740  0.00  0.00    +0.020 C 
ATOM      9  C   UNL     1      34.651  17.362  14.195  0.00  0.00    +0.070 C 
ATOM     10  S   UNL     1      34.561  17.268  15.990  0.00  0.00    -0.160 S 
ATOM     11  C   UNL     1      32.811  17.737  16.106  0.00  0.00    +0.077 C 
ATOM     12  C   UNL     1      32.000  19.282  14.258  0.00  0.00    +0.115 C 
ENDROOT
BRANCH   1  16
ATOM     13  C   UNL     1      28.109  22.351  18.464  0.00  0.00    +0.037 A 
ATOM     14  C   UNL     1      27.833  22.296  17.093  0.00  0.00    +0.014 A 
ATOM     15  C   UNL     1      28.854  21.989  16.189  0.00  0.00    +0.014 A 
ATOM     16  C   UNL     1      30.123  21.636  16.658  0.00  0.00    +0.037 A 
ATOM     17  C   UNL     1      30.423  21.793  18.018  0.00  0.00    +0.014 A 
ATOM     18  C   UNL     1      29.419  22.162  18.918  0.00  0.00    +0.014 A 
BRANCH  13  20
ATOM     19  N   UNL     1      26.064  23.500  19.103  0.00  0.00    -0.325 N 
ATOM     20  C   UNL     1      27.033  22.604  19.456  0.00  0.00    +0.242 C 
ATOM     21  O   UNL     1      26.989  21.999  20.517  0.00  0.00    -0.270 OA
ATOM     22  H   UNL     1      25.272  23.564  19.732  0.00  0.00    +0.145 HD
ATOM     23  H   UNL     1      25.923  23.792  18.146  0.00  0.00    +0.145 HD
ENDBRANCH  13  20
ENDBRANCH   1  16
TORSDOF 2
ENDMDL
MODEL 5
REMARK VINA RESULT:      -6.9      4.378      6.802
REMARK  Name = ZINC000583127796
REMARK  2 active torsions:
REMARK  status: ('A' for Active; 'I' for Inactive)
REMARK    1  A    between atoms: C_2  and  C_4
REMARK    2  A    between atoms: C_7  and  C_8
REMARK                            x       y       z     vdW  Elec       q    Type
REMARK                         _______ _______ _______ _____ _____    ______ ____
ROOT
ATOM      1  C   UNL     1      30.853  22.648  14.749  0.00  0.00    +0.247 C 
ATOM      2  O   UNL     1      30.158  22.336  13.784  0.00  0.00    -0.270 OA
ATOM      3  N   UNL     1      32.088  23.302  14.615  0.00  0.00    -0.297 N 
ATOM      4  C   UNL     1      32.977  23.717  15.703  0.00  0.00    +0.108 C 
ATOM      5  C   UNL     1      33.323  25.194  15.637  0.00  0.00    +0.020 C 
ATOM      6  C   UNL     1      33.818  25.589  14.258  0.00  0.00    +0.011 C 
ATOM      7  C   UNL     1      32.855  25.157  13.124  0.00  0.00    -0.004 C 
ATOM      8  C   UNL     1      33.547  25.504  11.788  0.00  0.00    +0.020 C 
ATOM      9  C   UNL     1      32.508  25.671  10.701  0.00  0.00    +0.070 C 
ATOM     10  S   UNL     1      31.168  26.562  11.508  0.00  0.00    -0.160 S 
ATOM     11  C   UNL     1      31.531  25.954  13.178  0.00  0.00    +0.077 C 
ATOM     12  C   UNL     1      32.571  23.636  13.265  0.00  0.00    +0.115 C 
ENDROOT
BRANCH   1  16
ATOM     13  C   UNL     1      28.900  21.787  18.457  0.00  0.00    +0.037 A 
ATOM     14  C   UNL     1      29.004  23.116  18.033  0.00  0.00    +0.014 A 
ATOM     15  C   UNL     1      29.739  23.425  16.885  0.00  0.00    +0.014 A 
ATOM     16  C   UNL     1      30.282  22.401  16.103  0.00  0.00    +0.037 A 
ATOM     17  C   UNL     1      30.265  21.084  16.584  0.00  0.00    +0.014 A 
ATOM     18  C   UNL     1      29.585  20.780  17.767  0.00  0.00    +0.014 A 
BRANCH  13  20
ATOM     19  N   UNL     1      26.945  20.680  19.386  0.00  0.00    -0.325 N 
ATOM     20  C   UNL     1      28.069  21.417  19.631  0.00  0.00    +0.242 C 
ATOM     21  O   UNL     1      28.405  21.712  20.768  0.00  0.00    -0.270 OA
ATOM     22  H   UNL     1      26.462  20.327  20.204  0.00  0.00    +0.145 HD
ATOM     23  H   UNL     1      26.799  20.193  18.513  0.00  0.00    +0.145 HD
ENDBRANCH  13  20
ENDBRANCH   1  16
TORSDOF 2
ENDMDL
MODEL 6
REMARK VINA RESULT:      -6.8      4.789      6.883
REMARK  Name = ZINC000583127796
REMARK  2 active torsions:
REMARK  status: ('A' for Active; 'I' for Inactive)
REMARK    1  A    between atoms: C_2  and  C_4
REMARK    2  A    between atoms: C_7  and  C_8
REMARK                            x       y       z     vdW  Elec       q    Type
REMARK                         _______ _______ _______ _____ _____    ______ ____
ROOT
ATOM      1  C   UNL     1      31.583  23.716  15.054  0.00  0.00    +0.247 C 
ATOM      2  O   UNL     1      31.736  24.425  16.047  0.00  0.00    -0.270 OA
ATOM      3  N   UNL     1      31.120  22.393  15.131  0.00  0.00    -0.297 N 
ATOM      4  C   UNL     1      30.900  21.479  14.006  0.00  0.00    +0.108 C 
ATOM      5  C   UNL     1      29.492  20.912  13.988  0.00  0.00    +0.020 C 
ATOM      6  C   UNL     1      29.110  20.326  15.335  0.00  0.00    +0.011 C 
ATOM      7  C   UNL     1      29.333  21.313  16.507  0.00  0.00    -0.004 C 
ATOM      8  C   UNL     1      29.031  20.542  17.810  0.00  0.00    +0.020 C 
ATOM      9  C   UNL     1      28.653  21.515  18.906  0.00  0.00    +0.070 C 
ATOM     10  S   UNL     1      27.608  22.724  18.078  0.00  0.00    -0.160 S 
ATOM     11  C   UNL     1      28.346  22.502  16.435  0.00  0.00    +0.077 C 
ATOM     12  C   UNL     1      30.798  21.829  16.453  0.00  0.00    +0.115 C 
ENDROOT
BRANCH   1  16
ATOM     13  C   UNL     1      32.524  25.736  11.402  0.00  0.00    +0.037 A 
ATOM     14  C   UNL     1      31.380  26.111  12.114  0.00  0.00    +0.014 A 
ATOM     15  C   UNL     1      30.995  25.386  13.245  0.00  0.00    +0.014 A 
ATOM     16  C   UNL     1      31.806  24.353  13.726  0.00  0.00    +0.037 A 
ATOM     17  C   UNL     1      32.891  23.914  12.955  0.00  0.00    +0.014 A 
ATOM     18  C   UNL     1      33.242  24.598  11.787  0.00  0.00    +0.014 A 
BRANCH  13  20
ATOM     19  N   UNL     1      33.107  25.868   9.045  0.00  0.00    -0.325 N 
ATOM     20  C   UNL     1      33.000  26.527  10.238  0.00  0.00    +0.242 C 
ATOM     21  O   UNL     1      33.234  27.722  10.332  0.00  0.00    -0.270 OA
ATOM     22  H   UNL     1      33.307  26.448   8.238  0.00  0.00    +0.145 HD
ATOM     23  H   UNL     1      32.661  24.977   8.880  0.00  0.00    +0.145 HD
ENDBRANCH  13  20
ENDBRANCH   1  16
TORSDOF 2
ENDMDL
MODEL 7
REMARK VINA RESULT:      -6.8      2.368      3.675
REMARK  Name = ZINC000583127796
REMARK  2 active torsions:
REMARK  status: ('A' for Active; 'I' for Inactive)
REMARK    1  A    between atoms: C_2  and  C_4
REMARK    2  A    between atoms: C_7  and  C_8
REMARK                            x       y       z     vdW  Elec       q    Type
REMARK                         _______ _______ _______ _____ _____    ______ ____
ROOT
ATOM      1  C   UNL     1      30.138  21.839  17.637  0.00  0.00    +0.247 C 
ATOM      2  O   UNL     1      29.658  21.949  18.763  0.00  0.00    -0.270 OA
ATOM      3  N   UNL     1      30.840  22.880  17.007  0.00  0.00    -0.297 N 
ATOM      4  C   UNL     1      31.451  22.839  15.676  0.00  0.00    +0.108 C 
ATOM      5  C   UNL     1      32.923  23.210  15.703  0.00  0.00    +0.020 C 
ATOM      6  C   UNL     1      33.156  24.514  16.442  0.00  0.00    +0.011 C 
ATOM      7  C   UNL     1      32.518  24.530  17.853  0.00  0.00    -0.004 C 
ATOM      8  C   UNL     1      32.720  25.950  18.424  0.00  0.00    +0.020 C 
ATOM      9  C   UNL     1      32.677  25.907  19.936  0.00  0.00    +0.070 C 
ATOM     10  S   UNL     1      33.588  24.414  20.358  0.00  0.00    -0.160 S 
ATOM     11  C   UNL     1      33.235  23.544  18.805  0.00  0.00    +0.077 C 
ATOM     12  C   UNL     1      31.016  24.154  17.725  0.00  0.00    +0.115 C 
ENDROOT
BRANCH   1  16
ATOM     13  C   UNL     1      30.075  18.149  15.475  0.00  0.00    +0.037 A 
ATOM     14  C   UNL     1      28.902  18.904  15.570  0.00  0.00    +0.014 A 
ATOM     15  C   UNL     1      28.875  20.051  16.368  0.00  0.00    +0.014 A 
ATOM     16  C   UNL     1      30.044  20.502  16.987  0.00  0.00    +0.037 A 
ATOM     17  C   UNL     1      31.187  19.690  16.976  0.00  0.00    +0.014 A 
ATOM     18  C   UNL     1      31.198  18.509  16.229  0.00  0.00    +0.014 A 
BRANCH  13  20
ATOM     19  N   UNL     1      29.023  16.220  14.433  0.00  0.00    -0.325 N 
ATOM     20  C   UNL     1      30.159  16.965  14.581  0.00  0.00    +0.242 C 
ATOM     21  O   UNL     1      31.181  16.701  13.966  0.00  0.00    -0.270 OA
ATOM     22  H   UNL     1      29.059  15.497  13.724  0.00  0.00    +0.145 HD
ATOM     23  H   UNL     1      28.112  16.569  14.697  0.00  0.00    +0.145 HD
ENDBRANCH  13  20
ENDBRANCH   1  16
TORSDOF 2
ENDMDL
MODEL 8
REMARK VINA RESULT:      -6.6      1.593      2.008
REMARK  Name = ZINC000583127796
REMARK  2 active torsions:
REMARK  status: ('A' for Active; 'I' for Inactive)
REMARK    1  A    between atoms: C_2  and  C_4
REMARK    2  A    between atoms: C_7  and  C_8
REMARK                            x       y       z     vdW  Elec       q    Type
REMARK                         _______ _______ _______ _____ _____    ______ ____
ROOT
ATOM      1  C   UNL     1      31.409  19.586  16.576  0.00  0.00    +0.247 C 
ATOM      2  O   UNL     1      32.335  19.951  17.298  0.00  0.00    -0.270 OA
ATOM      3  N   UNL     1      30.080  19.990  16.785  0.00  0.00    -0.297 N 
ATOM      4  C   UNL     1      28.918  19.614  15.975  0.00  0.00    +0.108 C 
ATOM      5  C   UNL     1      28.151  20.821  15.468  0.00  0.00    +0.020 C 
ATOM      6  C   UNL     1      27.826  21.788  16.592  0.00  0.00    +0.011 C 
ATOM      7  C   UNL     1      29.071  22.187  17.423  0.00  0.00    -0.004 C 
ATOM      8  C   UNL     1      28.570  23.057  18.596  0.00  0.00    +0.020 C 
ATOM      9  C   UNL     1      29.692  23.945  19.091  0.00  0.00    +0.070 C 
ATOM     10  S   UNL     1      30.512  24.496  17.587  0.00  0.00    -0.160 S 
ATOM     11  C   UNL     1      30.048  23.051  16.592  0.00  0.00    +0.077 C 
ATOM     12  C   UNL     1      29.781  20.893  17.908  0.00  0.00    +0.115 C 
ENDROOT
BRANCH   1  16
ATOM     13  C   UNL     1      32.564  16.972  13.393  0.00  0.00    +0.037 A 
ATOM     14  C   UNL     1      33.296  18.143  13.614  0.00  0.00    +0.014 A 
ATOM     15  C   UNL     1      32.864  19.064  14.572  0.00  0.00    +0.014 A 
ATOM     16  C   UNL     1      31.763  18.769  15.382  0.00  0.00    +0.037 A 
ATOM     17  C   UNL     1      30.973  17.649  15.089  0.00  0.00    +0.014 A 
ATOM     18  C   UNL     1      31.368  16.757  14.087  0.00  0.00    +0.014 A 
BRANCH  13  20
ATOM     19  N   UNL     1      34.321  16.049  11.988  0.00  0.00    -0.325 N 
ATOM     20  C   UNL     1      33.034  15.940  12.433  0.00  0.00    +0.242 C 
ATOM     21  O   UNL     1      32.318  15.007  12.099  0.00  0.00    -0.270 OA
ATOM     22  H   UNL     1      34.665  15.270  11.438  0.00  0.00    +0.145 HD
ATOM     23  H   UNL     1      35.005  16.629  12.453  0.00  0.00    +0.145 HD
ENDBRANCH  13  20
ENDBRANCH   1  16
TORSDOF 2
ENDMDL
MODEL 9
REMARK VINA RESULT:      -6.5      2.621      3.408
REMARK  Name = ZINC000583127796
REMARK  2 active torsions:
REMARK  status: ('A' for Active; 'I' for Inactive)
REMARK    1  A    between atoms: C_2  and  C_4
REMARK    2  A    between atoms: C_7  and  C_8
REMARK                            x       y       z     vdW  Elec       q    Type
REMARK                         _______ _______ _______ _____ _____    ______ ____
ROOT
ATOM      1  C   UNL     1      33.026  18.143  15.466  0.00  0.00    +0.247 C 
ATOM      2  O   UNL     1      33.900  18.993  15.622  0.00  0.00    -0.270 OA
ATOM      3  N   UNL     1      31.732  18.278  15.997  0.00  0.00    -0.297 N 
ATOM      4  C   UNL     1      30.629  17.323  15.856  0.00  0.00    +0.108 C 
ATOM      5  C   UNL     1      29.378  17.966  15.285  0.00  0.00    +0.020 C 
ATOM      6  C   UNL     1      29.003  19.227  16.043  0.00  0.00    +0.011 C 
ATOM      7  C   UNL     1      30.178  20.229  16.164  0.00  0.00    -0.004 C 
ATOM      8  C   UNL     1      29.692  21.387  17.062  0.00  0.00    +0.020 C 
ATOM      9  C   UNL     1      30.497  22.635  16.771  0.00  0.00    +0.070 C 
ATOM     10  S   UNL     1      30.675  22.634  14.980  0.00  0.00    -0.160 S 
ATOM     11  C   UNL     1      30.544  20.834  14.789  0.00  0.00    +0.077 C 
ATOM     12  C   UNL     1      31.404  19.488  16.767  0.00  0.00    +0.115 C 
ENDROOT
BRANCH   1  16
ATOM     13  C   UNL     1      34.301  15.013  12.843  0.00  0.00    +0.037 A 
ATOM     14  C   UNL     1      33.241  15.839  12.455  0.00  0.00    +0.014 A 
ATOM     15  C   UNL     1      32.736  16.790  13.346  0.00  0.00    +0.014 A 
ATOM     16  C   UNL     1      33.355  16.987  14.585  0.00  0.00    +0.037 A 
ATOM     17  C   UNL     1      34.345  16.091  15.011  0.00  0.00    +0.014 A 
ATOM     18  C   UNL     1      34.809  15.098  14.144  0.00  0.00    +0.014 A 
BRANCH  13  20
ATOM     19  N   UNL     1      34.248  12.858  11.719  0.00  0.00    -0.325 N 
ATOM     20  C   UNL     1      34.906  14.042  11.896  0.00  0.00    +0.242 C 
ATOM     21  O   UNL     1      35.917  14.312  11.265  0.00  0.00    -0.270 OA
ATOM     22  H   UNL     1      34.601  12.263  10.978  0.00  0.00    +0.145 HD
ATOM     23  H   UNL     1      33.287  12.728  12.003  0.00  0.00    +0.145 HD
ENDBRANCH  13  20
ENDBRANCH   1  16
TORSDOF 2
ENDMDL
