MODEL 1
REMARK VINA RESULT:      -8.0      0.000      0.000
REMARK  Name = ZINC000870248439
REMARK  2 active torsions:
REMARK  status: ('A' for Active; 'I' for Inactive)
REMARK    1  A    between atoms: C_2  and  C_4
REMARK    2  A    between atoms: C_7  and  C_8
REMARK                            x       y       z     vdW  Elec       q    Type
REMARK                         _______ _______ _______ _____ _____    ______ ____
ROOT
ATOM      1  C   UNL     1      28.720  17.010  14.580  0.00  0.00    +0.247 C 
ATOM      2  O   UNL     1      27.927  16.114  14.292  0.00  0.00    -0.270 OA
ATOM      3  N   UNL     1      30.059  17.012  14.165  0.00  0.00    -0.297 N 
ATOM      4  C   UNL     1      31.055  18.030  14.507  0.00  0.00    +0.108 C 
ATOM      5  C   UNL     1      32.014  18.342  13.365  0.00  0.00    +0.026 C 
ATOM      6  C   UNL     1      32.650  17.087  12.730  0.00  0.00    -0.025 C 
ATOM      7  C   UNL     1      33.414  17.545  11.463  0.00  0.00    +0.017 C 
ATOM      8  C   UNL     1      34.144  16.438  10.715  0.00  0.00    +0.069 C 
ATOM      9  S   UNL     1      35.398  15.624  11.741  0.00  0.00    -0.161 S 
ATOM     10  C   UNL     1      34.384  15.221  13.189  0.00  0.00    +0.069 C 
ATOM     11  C   UNL     1      33.649  16.444  13.727  0.00  0.00    +0.017 C 
ATOM     12  C   UNL     1      31.489  16.131  12.350  0.00  0.00    +0.026 C 
ATOM     13  C   UNL     1      30.575  15.802  13.530  0.00  0.00    +0.108 C 
ENDROOT
BRANCH   1  17
ATOM     14  C   UNL     1      26.951  20.302  16.644  0.00  0.00    +0.037 A 
ATOM     15  C   UNL     1      27.985  20.542  15.732  0.00  0.00    +0.014 A 
ATOM     16  C   UNL     1      28.635  19.466  15.125  0.00  0.00    +0.014 A 
ATOM     17  C   UNL     1      28.191  18.159  15.354  0.00  0.00    +0.037 A 
ATOM     18  C   UNL     1      27.219  17.916  16.333  0.00  0.00    +0.014 A 
ATOM     19  C   UNL     1      26.606  18.989  16.987  0.00  0.00    +0.014 A 
BRANCH  14  21
ATOM     20  N   UNL     1      26.582  21.795  18.526  0.00  0.00    -0.325 N 
ATOM     21  C   UNL     1      26.206  21.425  17.265  0.00  0.00    +0.242 C 
ATOM     22  O   UNL     1      25.332  22.028  16.660  0.00  0.00    -0.270 OA
ATOM     23  H   UNL     1      26.153  22.636  18.890  0.00  0.00    +0.145 HD
ATOM     24  H   UNL     1      27.456  21.500  18.939  0.00  0.00    +0.145 HD
ENDBRANCH  14  21
ENDBRANCH   1  17
TORSDOF 2
ENDMDL
MODEL 2
REMARK VINA RESULT:      -7.6      4.793      7.480
REMARK  Name = ZINC000870248439
REMARK  2 active torsions:
REMARK  status: ('A' for Active; 'I' for Inactive)
REMARK    1  A    between atoms: C_2  and  C_4
REMARK    2  A    between atoms: C_7  and  C_8
REMARK                            x       y       z     vdW  Elec       q    Type
REMARK                         _______ _______ _______ _____ _____    ______ ____
ROOT
ATOM      1  C   UNL     1      28.341  21.367  17.192  0.00  0.00    +0.247 C 
ATOM      2  O   UNL     1      27.289  21.960  17.425  0.00  0.00    -0.270 OA
ATOM      3  N   UNL     1      29.573  21.740  17.747  0.00  0.00    -0.297 N 
ATOM      4  C   UNL     1      30.859  21.094  17.478  0.00  0.00    +0.108 C 
ATOM      5  C   UNL     1      31.759  21.009  18.704  0.00  0.00    +0.026 C 
ATOM      6  C   UNL     1      31.920  22.352  19.448  0.00  0.00    -0.025 C 
ATOM      7  C   UNL     1      32.668  22.061  20.774  0.00  0.00    +0.017 C 
ATOM      8  C   UNL     1      32.953  23.285  21.635  0.00  0.00    +0.069 C 
ATOM      9  S   UNL     1      33.985  24.506  20.779  0.00  0.00    -0.161 S 
ATOM     10  C   UNL     1      33.033  24.680  19.246  0.00  0.00    +0.069 C 
ATOM     11  C   UNL     1      32.760  23.332  18.589  0.00  0.00    +0.017 C 
ATOM     12  C   UNL     1      30.492  22.887  19.736  0.00  0.00    +0.026 C 
ATOM     13  C   UNL     1      29.633  23.004  18.477  0.00  0.00    +0.108 C 
ENDROOT
BRANCH   1  17
ATOM     14  C   UNL     1      28.322  17.787  14.865  0.00  0.00    +0.037 A 
ATOM     15  C   UNL     1      28.917  18.940  14.342  0.00  0.00    +0.014 A 
ATOM     16  C   UNL     1      28.844  20.139  15.051  0.00  0.00    +0.014 A 
ATOM     17  C   UNL     1      28.262  20.165  16.324  0.00  0.00    +0.037 A 
ATOM     18  C   UNL     1      27.589  19.035  16.805  0.00  0.00    +0.014 A 
ATOM     19  C   UNL     1      27.610  17.847  16.069  0.00  0.00    +0.014 A 
BRANCH  14  21
ATOM     20  N   UNL     1      29.671  16.118  13.724  0.00  0.00    -0.325 N 
ATOM     21  C   UNL     1      28.429  16.485  14.159  0.00  0.00    +0.242 C 
ATOM     22  O   UNL     1      27.463  15.750  14.021  0.00  0.00    -0.270 OA
ATOM     23  H   UNL     1      29.754  15.179  13.356  0.00  0.00    +0.145 HD
ATOM     24  H   UNL     1      30.514  16.568  14.051  0.00  0.00    +0.145 HD
ENDBRANCH  14  21
ENDBRANCH   1  17
TORSDOF 2
ENDMDL
MODEL 3
REMARK VINA RESULT:      -7.4      4.523      5.328
REMARK  Name = ZINC000870248439
REMARK  2 active torsions:
REMARK  status: ('A' for Active; 'I' for Inactive)
REMARK    1  A    between atoms: C_2  and  C_4
REMARK    2  A    between atoms: C_7  and  C_8
REMARK                            x       y       z     vdW  Elec       q    Type
REMARK                         _______ _______ _______ _____ _____    ______ ____
ROOT
ATOM      1  C   UNL     1      31.564  19.803  13.626  0.00  0.00    +0.247 C 
ATOM      2  O   UNL     1      32.170  18.745  13.463  0.00  0.00    -0.270 OA
ATOM      3  N   UNL     1      31.920  20.998  12.987  0.00  0.00    -0.297 N 
ATOM      4  C   UNL     1      31.259  22.292  13.170  0.00  0.00    +0.108 C 
ATOM      5  C   UNL     1      31.159  23.106  11.886  0.00  0.00    +0.026 C 
ATOM      6  C   UNL     1      32.498  23.231  11.127  0.00  0.00    -0.025 C 
ATOM      7  C   UNL     1      32.193  23.884   9.755  0.00  0.00    +0.017 C 
ATOM      8  C   UNL     1      33.409  24.124   8.871  0.00  0.00    +0.069 C 
ATOM      9  S   UNL     1      34.621  25.227   9.649  0.00  0.00    -0.161 S 
ATOM     10  C   UNL     1      34.812  24.384  11.243  0.00  0.00    +0.069 C 
ATOM     11  C   UNL     1      33.470  24.140  11.923  0.00  0.00    +0.017 C 
ATOM     12  C   UNL     1      33.049  21.794  10.935  0.00  0.00    +0.026 C 
ATOM     13  C   UNL     1      33.180  21.024  12.249  0.00  0.00    +0.108 C 
ENDROOT
BRANCH   1  17
ATOM     14  C   UNL     1      28.000  19.912  15.974  0.00  0.00    +0.037 A 
ATOM     15  C   UNL     1      29.169  20.492  16.478  0.00  0.00    +0.014 A 
ATOM     16  C   UNL     1      30.361  20.376  15.763  0.00  0.00    +0.014 A 
ATOM     17  C   UNL     1      30.367  19.769  14.502  0.00  0.00    +0.037 A 
ATOM     18  C   UNL     1      29.219  19.112  14.042  0.00  0.00    +0.014 A 
ATOM     19  C   UNL     1      28.036  19.175  14.784  0.00  0.00    +0.014 A 
BRANCH  14  21
ATOM     20  N   UNL     1      26.111  18.918  17.137  0.00  0.00    -0.325 N 
ATOM     21  C   UNL     1      26.705  20.063  16.685  0.00  0.00    +0.242 C 
ATOM     22  O   UNL     1      26.219  21.161  16.905  0.00  0.00    -0.270 OA
ATOM     23  H   UNL     1      25.296  19.041  17.724  0.00  0.00    +0.145 HD
ATOM     24  H   UNL     1      26.607  18.040  17.205  0.00  0.00    +0.145 HD
ENDBRANCH  14  21
ENDBRANCH   1  17
TORSDOF 2
ENDMDL
MODEL 4
REMARK VINA RESULT:      -7.0      1.802      2.526
REMARK  Name = ZINC000870248439
REMARK  2 active torsions:
REMARK  status: ('A' for Active; 'I' for Inactive)
REMARK    1  A    between atoms: C_2  and  C_4
REMARK    2  A    between atoms: C_7  and  C_8
REMARK                            x       y       z     vdW  Elec       q    Type
REMARK                         _______ _______ _______ _____ _____    ______ ____
ROOT
ATOM      1  C   UNL     1      30.116  16.105  13.743  0.00  0.00    +0.247 C 
ATOM      2  O   UNL     1      29.605  15.357  12.910  0.00  0.00    -0.270 OA
ATOM      3  N   UNL     1      31.474  16.056  14.089  0.00  0.00    -0.297 N 
ATOM      4  C   UNL     1      32.127  16.896  15.095  0.00  0.00    +0.108 C 
ATOM      5  C   UNL     1      33.537  17.320  14.704  0.00  0.00    +0.026 C 
ATOM      6  C   UNL     1      34.431  16.147  14.245  0.00  0.00    -0.025 C 
ATOM      7  C   UNL     1      35.739  16.756  13.678  0.00  0.00    +0.017 C 
ATOM      8  C   UNL     1      36.769  15.740  13.205  0.00  0.00    +0.069 C 
ATOM      9  S   UNL     1      37.313  14.636  14.538  0.00  0.00    -0.161 S 
ATOM     10  C   UNL     1      35.697  14.073  15.137  0.00  0.00    +0.069 C 
ATOM     11  C   UNL     1      34.770  15.241  15.457  0.00  0.00    +0.017 C 
ATOM     12  C   UNL     1      33.656  15.391  13.134  0.00  0.00    +0.026 C 
ATOM     13  C   UNL     1      32.265  14.940  13.577  0.00  0.00    +0.108 C 
ENDROOT
BRANCH   1  17
ATOM     14  C   UNL     1      27.831  19.162  15.655  0.00  0.00    +0.037 A 
ATOM     15  C   UNL     1      27.609  17.825  16.001  0.00  0.00    +0.014 A 
ATOM     16  C   UNL     1      28.280  16.813  15.314  0.00  0.00    +0.014 A 
ATOM     17  C   UNL     1      29.242  17.138  14.351  0.00  0.00    +0.037 A 
ATOM     18  C   UNL     1      29.396  18.470  13.944  0.00  0.00    +0.014 A 
ATOM     19  C   UNL     1      28.681  19.482  14.590  0.00  0.00    +0.014 A 
BRANCH  14  21
ATOM     20  N   UNL     1      26.219  19.907  17.315  0.00  0.00    -0.325 N 
ATOM     21  C   UNL     1      27.172  20.263  16.403  0.00  0.00    +0.242 C 
ATOM     22  O   UNL     1      27.503  21.429  16.250  0.00  0.00    -0.270 OA
ATOM     23  H   UNL     1      25.867  20.652  17.904  0.00  0.00    +0.145 HD
ATOM     24  H   UNL     1      26.115  18.959  17.648  0.00  0.00    +0.145 HD
ENDBRANCH  14  21
ENDBRANCH   1  17
TORSDOF 2
ENDMDL
MODEL 5
REMARK VINA RESULT:      -6.9      1.953      2.686
REMARK  Name = ZINC000870248439
REMARK  2 active torsions:
REMARK  status: ('A' for Active; 'I' for Inactive)
REMARK    1  A    between atoms: C_2  and  C_4
REMARK    2  A    between atoms: C_7  and  C_8
REMARK                            x       y       z     vdW  Elec       q    Type
REMARK                         _______ _______ _______ _____ _____    ______ ____
ROOT
ATOM      1  C   UNL     1      31.036  19.447  13.959  0.00  0.00    +0.247 C 
ATOM      2  O   UNL     1      31.636  20.354  13.383  0.00  0.00    -0.270 OA
ATOM      3  N   UNL     1      31.352  18.092  13.794  0.00  0.00    -0.297 N 
ATOM      4  C   UNL     1      30.651  16.971  14.425  0.00  0.00    +0.108 C 
ATOM      5  C   UNL     1      31.580  15.839  14.847  0.00  0.00    +0.026 C 
ATOM      6  C   UNL     1      32.541  15.379  13.730  0.00  0.00    -0.025 C 
ATOM      7  C   UNL     1      33.555  14.395  14.368  0.00  0.00    +0.017 C 
ATOM      8  C   UNL     1      34.571  13.801  13.402  0.00  0.00    +0.069 C 
ATOM      9  S   UNL     1      33.785  12.856  12.068  0.00  0.00    -0.161 S 
ATOM     10  C   UNL     1      32.597  14.095  11.483  0.00  0.00    +0.069 C 
ATOM     11  C   UNL     1      31.744  14.647  12.620  0.00  0.00    +0.017 C 
ATOM     12  C   UNL     1      33.269  16.644  13.205  0.00  0.00    +0.026 C 
ATOM     13  C   UNL     1      32.306  17.740  12.746  0.00  0.00    +0.108 C 
ENDROOT
BRANCH   1  17
ATOM     14  C   UNL     1      27.889  20.790  16.513  0.00  0.00    +0.037 A 
ATOM     15  C   UNL     1      29.215  21.082  16.849  0.00  0.00    +0.014 A 
ATOM     16  C   UNL     1      30.254  20.566  16.075  0.00  0.00    +0.014 A 
ATOM     17  C   UNL     1      29.969  19.841  14.913  0.00  0.00    +0.037 A 
ATOM     18  C   UNL     1      28.648  19.474  14.628  0.00  0.00    +0.014 A 
ATOM     19  C   UNL     1      27.607  19.940  15.436  0.00  0.00    +0.014 A 
BRANCH  14  21
ATOM     20  N   UNL     1      26.959  21.554  18.624  0.00  0.00    -0.325 N 
ATOM     21  C   UNL     1      26.760  21.368  17.285  0.00  0.00    +0.242 C 
ATOM     22  O   UNL     1      25.721  21.711  16.742  0.00  0.00    -0.270 OA
ATOM     23  H   UNL     1      26.232  22.060  19.115  0.00  0.00    +0.145 HD
ATOM     24  H   UNL     1      27.877  21.531  19.044  0.00  0.00    +0.145 HD
ENDBRANCH  14  21
ENDBRANCH   1  17
TORSDOF 2
ENDMDL
MODEL 6
REMARK VINA RESULT:      -6.8      6.398      8.332
REMARK  Name = ZINC000870248439
REMARK  2 active torsions:
REMARK  status: ('A' for Active; 'I' for Inactive)
REMARK    1  A    between atoms: C_2  and  C_4
REMARK    2  A    between atoms: C_7  and  C_8
REMARK                            x       y       z     vdW  Elec       q    Type
REMARK                         _______ _______ _______ _____ _____    ______ ____
ROOT
ATOM      1  C   UNL     1      30.588  22.215  13.464  0.00  0.00    +0.247 C 
ATOM      2  O   UNL     1      29.546  21.622  13.190  0.00  0.00    -0.270 OA
ATOM      3  N   UNL     1      31.140  22.244  14.752  0.00  0.00    -0.297 N 
ATOM      4  C   UNL     1      32.356  22.962  15.141  0.00  0.00    +0.108 C 
ATOM      5  C   UNL     1      33.200  22.208  16.162  0.00  0.00    +0.026 C 
ATOM      6  C   UNL     1      32.396  21.706  17.380  0.00  0.00    -0.025 C 
ATOM      7  C   UNL     1      33.330  20.783  18.204  0.00  0.00    +0.017 C 
ATOM      8  C   UNL     1      32.717  20.216  19.477  0.00  0.00    +0.069 C 
ATOM      9  S   UNL     1      32.211  21.516  20.637  0.00  0.00    -0.161 S 
ATOM     10  C   UNL     1      31.206  22.535  19.524  0.00  0.00    +0.069 C 
ATOM     11  C   UNL     1      31.963  22.911  18.256  0.00  0.00    +0.017 C 
ATOM     12  C   UNL     1      31.187  20.905  16.831  0.00  0.00    +0.026 C 
ATOM     13  C   UNL     1      30.336  21.708  15.847  0.00  0.00    +0.108 C 
ENDROOT
BRANCH   1  17
ATOM     14  C   UNL     1      32.416  24.057  10.073  0.00  0.00    +0.037 A 
ATOM     15  C   UNL     1      32.857  22.796  10.488  0.00  0.00    +0.014 A 
ATOM     16  C   UNL     1      32.335  22.229  11.651  0.00  0.00    +0.014 A 
ATOM     17  C   UNL     1      31.305  22.874  12.344  0.00  0.00    +0.037 A 
ATOM     18  C   UNL     1      30.929  24.173  11.980  0.00  0.00    +0.014 A 
ATOM     19  C   UNL     1      31.493  24.770  10.849  0.00  0.00    +0.014 A 
BRANCH  14  21
ATOM     20  N   UNL     1      32.418  24.156   7.644  0.00  0.00    -0.325 N 
ATOM     21  C   UNL     1      32.913  24.664   8.813  0.00  0.00    +0.242 C 
ATOM     22  O   UNL     1      33.687  25.609   8.818  0.00  0.00    -0.270 OA
ATOM     23  H   UNL     1      32.668  24.656   6.801  0.00  0.00    +0.145 HD
ATOM     24  H   UNL     1      31.596  23.570   7.614  0.00  0.00    +0.145 HD
ENDBRANCH  14  21
ENDBRANCH   1  17
TORSDOF 2
ENDMDL
MODEL 7
REMARK VINA RESULT:      -6.7      4.715      7.592
REMARK  Name = ZINC000870248439
REMARK  2 active torsions:
REMARK  status: ('A' for Active; 'I' for Inactive)
REMARK    1  A    between atoms: C_2  and  C_4
REMARK    2  A    between atoms: C_7  and  C_8
REMARK                            x       y       z     vdW  Elec       q    Type
REMARK                         _______ _______ _______ _____ _____    ______ ____
ROOT
ATOM      1  C   UNL     1      29.747  20.502  15.290  0.00  0.00    +0.247 C 
ATOM      2  O   UNL     1      28.657  21.015  15.037  0.00  0.00    -0.270 OA
ATOM      3  N   UNL     1      30.620  20.996  16.268  0.00  0.00    -0.297 N 
ATOM      4  C   UNL     1      31.941  20.448  16.586  0.00  0.00    +0.108 C 
ATOM      5  C   UNL     1      32.266  20.485  18.074  0.00  0.00    +0.026 C 
ATOM      6  C   UNL     1      32.028  21.864  18.726  0.00  0.00    -0.025 C 
ATOM      7  C   UNL     1      32.188  21.687  20.257  0.00  0.00    +0.017 C 
ATOM      8  C   UNL     1      32.023  22.961  21.074  0.00  0.00    +0.069 C 
ATOM      9  S   UNL     1      33.239  24.230  20.626  0.00  0.00    -0.161 S 
ATOM     10  C   UNL     1      32.987  24.267  18.831  0.00  0.00    +0.069 C 
ATOM     11  C   UNL     1      33.086  22.876  18.213  0.00  0.00    +0.017 C 
ATOM     12  C   UNL     1      30.579  22.290  18.375  0.00  0.00    +0.026 C 
ATOM     13  C   UNL     1      30.302  22.287  16.872  0.00  0.00    +0.108 C 
ENDROOT
BRANCH   1  17
ATOM     14  C   UNL     1      30.893  16.847  13.403  0.00  0.00    +0.037 A 
ATOM     15  C   UNL     1      31.575  18.026  13.082  0.00  0.00    +0.014 A 
ATOM     16  C   UNL     1      31.145  19.240  13.618  0.00  0.00    +0.014 A 
ATOM     17  C   UNL     1      30.100  19.266  14.548  0.00  0.00    +0.037 A 
ATOM     18  C   UNL     1      29.364  18.101  14.799  0.00  0.00    +0.014 A 
ATOM     19  C   UNL     1      29.754  16.892  14.217  0.00  0.00    +0.014 A 
BRANCH  14  21
ATOM     20  N   UNL     1      32.708  15.332  12.839  0.00  0.00    -0.325 N 
ATOM     21  C   UNL     1      31.358  15.533  12.891  0.00  0.00    +0.242 C 
ATOM     22  O   UNL     1      30.571  14.652  12.581  0.00  0.00    -0.270 OA
ATOM     23  H   UNL     1      33.010  14.394  12.607  0.00  0.00    +0.145 HD
ATOM     24  H   UNL     1      33.364  15.926  13.328  0.00  0.00    +0.145 HD
ENDBRANCH  14  21
ENDBRANCH   1  17
TORSDOF 2
ENDMDL
MODEL 8
REMARK VINA RESULT:      -6.7      6.023      7.657
REMARK  Name = ZINC000870248439
REMARK  2 active torsions:
REMARK  status: ('A' for Active; 'I' for Inactive)
REMARK    1  A    between atoms: C_2  and  C_4
REMARK    2  A    between atoms: C_7  and  C_8
REMARK                            x       y       z     vdW  Elec       q    Type
REMARK                         _______ _______ _______ _____ _____    ______ ____
ROOT
ATOM      1  C   UNL     1      31.416  22.024  16.483  0.00  0.00    +0.247 C 
ATOM      2  O   UNL     1      31.792  22.712  15.535  0.00  0.00    -0.270 OA
ATOM      3  N   UNL     1      32.015  22.068  17.749  0.00  0.00    -0.297 N 
ATOM      4  C   UNL     1      31.633  21.247  18.901  0.00  0.00    +0.108 C 
ATOM      5  C   UNL     1      31.712  21.995  20.226  0.00  0.00    +0.026 C 
ATOM      6  C   UNL     1      33.053  22.728  20.444  0.00  0.00    -0.025 C 
ATOM      7  C   UNL     1      32.900  23.609  21.710  0.00  0.00    +0.017 C 
ATOM      8  C   UNL     1      34.146  24.388  22.108  0.00  0.00    +0.069 C 
ATOM      9  S   UNL     1      35.552  23.301  22.469  0.00  0.00    -0.161 S 
ATOM     10  C   UNL     1      35.555  22.302  20.956  0.00  0.00    +0.069 C 
ATOM     11  C   UNL     1      34.186  21.694  20.673  0.00  0.00    +0.017 C 
ATOM     12  C   UNL     1      33.298  23.612  19.193  0.00  0.00    +0.026 C 
ATOM     13  C   UNL     1      33.259  22.821  17.886  0.00  0.00    +0.108 C 
ENDROOT
BRANCH   1  17
ATOM     14  C   UNL     1      28.049  19.424  16.119  0.00  0.00    +0.037 A 
ATOM     15  C   UNL     1      29.223  19.125  15.419  0.00  0.00    +0.014 A 
ATOM     16  C   UNL     1      30.294  20.018  15.454  0.00  0.00    +0.014 A 
ATOM     17  C   UNL     1      30.231  21.158  16.262  0.00  0.00    +0.037 A 
ATOM     18  C   UNL     1      29.026  21.501  16.888  0.00  0.00    +0.014 A 
ATOM     19  C   UNL     1      27.930  20.638  16.807  0.00  0.00    +0.014 A 
BRANCH  14  21
ATOM     20  N   UNL     1      25.848  18.798  16.937  0.00  0.00    -0.325 N 
ATOM     21  C   UNL     1      26.912  18.470  16.144  0.00  0.00    +0.242 C 
ATOM     22  O   UNL     1      26.901  17.466  15.449  0.00  0.00    -0.270 OA
ATOM     23  H   UNL     1      25.031  18.206  16.852  0.00  0.00    +0.145 HD
ATOM     24  H   UNL     1      25.714  19.728  17.307  0.00  0.00    +0.145 HD
ENDBRANCH  14  21
ENDBRANCH   1  17
TORSDOF 2
ENDMDL
MODEL 9
REMARK VINA RESULT:      -6.6     20.954     22.192
REMARK  Name = ZINC000870248439
REMARK  2 active torsions:
REMARK  status: ('A' for Active; 'I' for Inactive)
REMARK    1  A    between atoms: C_2  and  C_4
REMARK    2  A    between atoms: C_7  and  C_8
REMARK                            x       y       z     vdW  Elec       q    Type
REMARK                         _______ _______ _______ _____ _____    ______ ____
ROOT
ATOM      1  C   UNL     1      10.721  15.822   3.458  0.00  0.00    +0.247 C 
ATOM      2  O   UNL     1      10.093  14.868   3.003  0.00  0.00    -0.270 OA
ATOM      3  N   UNL     1      11.027  16.968   2.711  0.00  0.00    -0.297 N 
ATOM      4  C   UNL     1      11.801  18.115   3.190  0.00  0.00    +0.108 C 
ATOM      5  C   UNL     1      11.282  19.451   2.671  0.00  0.00    +0.026 C 
ATOM      6  C   UNL     1      11.069  19.481   1.143  0.00  0.00    -0.025 C 
ATOM      7  C   UNL     1      10.341  20.806   0.802  0.00  0.00    +0.017 C 
ATOM      8  C   UNL     1      10.074  21.032  -0.680  0.00  0.00    +0.069 C 
ATOM      9  S   UNL     1      11.602  21.080  -1.656  0.00  0.00    -0.161 S 
ATOM     10  C   UNL     1      12.361  19.530  -1.099  0.00  0.00    +0.069 C 
ATOM     11  C   UNL     1      12.441  19.449   0.421  0.00  0.00    +0.017 C 
ATOM     12  C   UNL     1      10.179  18.263   0.783  0.00  0.00    +0.026 C 
ATOM     13  C   UNL     1      10.754  16.935   1.277  0.00  0.00    +0.108 C 
ENDROOT
BRANCH   1  17
ATOM     14  C   UNL     1      11.783  15.339   7.566  0.00  0.00    +0.037 A 
ATOM     15  C   UNL     1      10.571  15.957   7.240  0.00  0.00    +0.014 A 
ATOM     16  C   UNL     1      10.260  16.208   5.904  0.00  0.00    +0.014 A 
ATOM     17  C   UNL     1      11.110  15.755   4.889  0.00  0.00    +0.037 A 
ATOM     18  C   UNL     1      12.361  15.218   5.218  0.00  0.00    +0.014 A 
ATOM     19  C   UNL     1      12.703  15.020   6.559  0.00  0.00    +0.014 A 
BRANCH  14  21
ATOM     20  N   UNL     1      13.370  15.354   9.407  0.00  0.00    -0.325 N 
ATOM     21  C   UNL     1      12.119  15.011   8.974  0.00  0.00    +0.242 C 
ATOM     22  O   UNL     1      11.301  14.508   9.728  0.00  0.00    -0.270 OA
ATOM     23  H   UNL     1      13.544  15.239  10.397  0.00  0.00    +0.145 HD
ATOM     24  H   UNL     1      13.961  15.996   8.899  0.00  0.00    +0.145 HD
ENDBRANCH  14  21
ENDBRANCH   1  17
TORSDOF 2
ENDMDL
