MODEL 1
REMARK VINA RESULT:      -6.3      0.000      0.000
REMARK  Name = ZINC000543478179
REMARK  8 active torsions:
REMARK  status: ('A' for Active; 'I' for Inactive)
REMARK    1  A    between atoms: C_1  and  C_2
REMARK    2  A    between atoms: C_2  and  N_3
REMARK    3  A    between atoms: N_9  and  C_10
REMARK    4  A    between atoms: C_10  and  C_11
REMARK    5  A    between atoms: C_10  and  C_12
REMARK    6  A    between atoms: C_15  and  O_16
REMARK    7  A    between atoms: O_16  and  C_17
REMARK    8  A    between atoms: C_17  and  C_18
REMARK                            x       y       z     vdW  Elec       q    Type
REMARK                         _______ _______ _______ _____ _____    ______ ____
ROOT
ATOM      1  C   UNL     1      35.575  18.759  15.806  0.00  0.00    +0.102 C 
ATOM      2  C   UNL     1      36.806  19.566  16.227  0.00  0.00    +0.033 C 
ENDROOT
BRANCH   1   9
ATOM      3  N   UNL     1      33.784  14.775  12.565  0.00  0.00    -0.299 N 
ATOM      4  C   UNL     1      33.624  14.082  13.843  0.00  0.00    +0.127 C 
ATOM      5  C   UNL     1      34.820  14.318  14.771  0.00  0.00    +0.129 C 
ATOM      6  N   UNL     1      35.018  15.753  14.993  0.00  0.00    -0.275 N 
ATOM      7  C   UNL     1      35.245  16.206  16.262  0.00  0.00    +0.303 C 
ATOM      8  O   UNL     1      35.266  15.435  17.227  0.00  0.00    -0.253 OA
ATOM      9  N   UNL     1      35.445  17.510  16.551  0.00  0.00    -0.293 N 
ATOM     10  C   UNL     1      34.967  16.565  13.787  0.00  0.00    +0.205 C 
ATOM     11  C   UNL     1      34.528  15.934  12.467  0.00  0.00    +0.233 C 
ATOM     12  O   UNL     1      34.730  16.522  11.402  0.00  0.00    -0.274 OA
ATOM     13  H   UNL     1      35.568  17.599  17.553  0.00  0.00    +0.151 HD
BRANCH   3  15
ATOM     14  C   UNL     1      31.989  13.323  11.754  0.00  0.00    +0.024 C 
ATOM     15  C   UNL     1      33.125  14.257  11.381  0.00  0.00    +0.104 C 
ENDBRANCH   3  15
ENDBRANCH   1   9
BRANCH   1  16
ATOM     16  C   UNL     1      34.296  19.568  15.919  0.00  0.00    -0.024 A 
ATOM     17  C   UNL     1      34.047  20.400  17.016  0.00  0.00    +0.009 A 
ATOM     18  C   UNL     1      32.855  21.121  17.113  0.00  0.00    +0.049 A 
ATOM     19  C   UNL     1      31.866  20.992  16.128  0.00  0.00    +0.156 A 
ATOM     20  C   UNL     1      32.130  20.194  15.018  0.00  0.00    +0.165 A 
ATOM     21  F   UNL     1      31.224  20.077  14.034  0.00  0.00    -0.202 F 
ATOM     22  C   UNL     1      33.321  19.478  14.912  0.00  0.00    +0.047 A 
BRANCH  19  23
ATOM     23  O   UNL     1      30.641  21.596  16.183  0.00  0.00    -0.489 OA
BRANCH  23  24
ATOM     24  C   UNL     1      30.641  22.989  15.871  0.00  0.00    +0.232 C 
BRANCH  24  25
ATOM     25  C   UNL     1      30.246  23.178  14.441  0.00  0.00    +0.027 C 
ATOM     26  C   UNL     1      31.319  23.389  13.402  0.00  0.00    +0.007 C 
ATOM     27  C   UNL     1      30.406  24.523  13.779  0.00  0.00    +0.007 C 
ENDBRANCH  24  25
ENDBRANCH  23  24
ENDBRANCH  19  23
ENDBRANCH   1  16
TORSDOF 6
ENDMDL
MODEL 2
REMARK VINA RESULT:      -6.3      6.062      7.791
REMARK  Name = ZINC000543478179
REMARK  8 active torsions:
REMARK  status: ('A' for Active; 'I' for Inactive)
REMARK    1  A    between atoms: C_1  and  C_2
REMARK    2  A    between atoms: C_2  and  N_3
REMARK    3  A    between atoms: N_9  and  C_10
REMARK    4  A    between atoms: C_10  and  C_11
REMARK    5  A    between atoms: C_10  and  C_12
REMARK    6  A    between atoms: C_15  and  O_16
REMARK    7  A    between atoms: O_16  and  C_17
REMARK    8  A    between atoms: C_17  and  C_18
REMARK                            x       y       z     vdW  Elec       q    Type
REMARK                         _______ _______ _______ _____ _____    ______ ____
ROOT
ATOM      1  C   UNL     1      33.356  23.804   9.478  0.00  0.00    +0.102 C 
ATOM      2  C   UNL     1      32.203  24.718   9.056  0.00  0.00    +0.033 C 
ENDROOT
BRANCH   1   9
ATOM      3  N   UNL     1      37.369  21.001   7.106  0.00  0.00    -0.299 N 
ATOM      4  C   UNL     1      38.195  21.992   7.792  0.00  0.00    +0.127 C 
ATOM      5  C   UNL     1      37.599  23.399   7.688  0.00  0.00    +0.129 C 
ATOM      6  N   UNL     1      36.235  23.417   8.224  0.00  0.00    -0.275 N 
ATOM      7  C   UNL     1      35.862  24.427   9.064  0.00  0.00    +0.303 C 
ATOM      8  O   UNL     1      36.655  25.313   9.399  0.00  0.00    -0.253 OA
ATOM      9  N   UNL     1      34.623  24.521   9.596  0.00  0.00    -0.293 N 
ATOM     10  C   UNL     1      35.391  22.323   7.767  0.00  0.00    +0.205 C 
ATOM     11  C   UNL     1      36.006  21.175   6.969  0.00  0.00    +0.233 C 
ATOM     12  O   UNL     1      35.280  20.389   6.355  0.00  0.00    -0.274 OA
ATOM     13  H   UNL     1      34.596  25.334  10.199  0.00  0.00    +0.151 HD
BRANCH   3  15
ATOM     14  C   UNL     1      38.729  20.077   5.294  0.00  0.00    +0.024 C 
ATOM     15  C   UNL     1      37.981  19.794   6.583  0.00  0.00    +0.104 C 
ENDBRANCH   3  15
ENDBRANCH   1   9
BRANCH   1  16
ATOM     16  C   UNL     1      33.056  23.064  10.768  0.00  0.00    -0.024 A 
ATOM     17  C   UNL     1      32.110  23.539  11.685  0.00  0.00    +0.009 A 
ATOM     18  C   UNL     1      31.862  22.856  12.876  0.00  0.00    +0.049 A 
ATOM     19  C   UNL     1      32.586  21.699  13.196  0.00  0.00    +0.156 A 
ATOM     20  C   UNL     1      33.498  21.206  12.267  0.00  0.00    +0.165 A 
ATOM     21  F   UNL     1      34.182  20.078  12.518  0.00  0.00    -0.202 F 
ATOM     22  C   UNL     1      33.746  21.879  11.072  0.00  0.00    +0.047 A 
BRANCH  19  23
ATOM     23  O   UNL     1      32.466  21.014  14.373  0.00  0.00    -0.489 OA
BRANCH  23  24
ATOM     24  C   UNL     1      31.128  20.670  14.736  0.00  0.00    +0.232 C 
BRANCH  24  25
ATOM     25  C   UNL     1      30.798  21.289  16.056  0.00  0.00    +0.027 C 
ATOM     26  C   UNL     1      29.352  21.513  16.424  0.00  0.00    +0.007 C 
ATOM     27  C   UNL     1      30.240  22.689  16.122  0.00  0.00    +0.007 C 
ENDBRANCH  24  25
ENDBRANCH  23  24
ENDBRANCH  19  23
ENDBRANCH   1  16
TORSDOF 6
ENDMDL
MODEL 3
REMARK VINA RESULT:      -6.2      5.967      7.895
REMARK  Name = ZINC000543478179
REMARK  8 active torsions:
REMARK  status: ('A' for Active; 'I' for Inactive)
REMARK    1  A    between atoms: C_1  and  C_2
REMARK    2  A    between atoms: C_2  and  N_3
REMARK    3  A    between atoms: N_9  and  C_10
REMARK    4  A    between atoms: C_10  and  C_11
REMARK    5  A    between atoms: C_10  and  C_12
REMARK    6  A    between atoms: C_15  and  O_16
REMARK    7  A    between atoms: O_16  and  C_17
REMARK    8  A    between atoms: C_17  and  C_18
REMARK                            x       y       z     vdW  Elec       q    Type
REMARK                         _______ _______ _______ _____ _____    ______ ____
ROOT
ATOM      1  C   UNL     1      33.309  23.834   9.649  0.00  0.00    +0.102 C 
ATOM      2  C   UNL     1      32.210  24.639   8.950  0.00  0.00    +0.033 C 
ENDROOT
BRANCH   1   9
ATOM      3  N   UNL     1      37.255  21.011   7.190  0.00  0.00    -0.299 N 
ATOM      4  C   UNL     1      38.098  22.016   7.834  0.00  0.00    +0.127 C 
ATOM      5  C   UNL     1      37.493  23.419   7.728  0.00  0.00    +0.129 C 
ATOM      6  N   UNL     1      36.147  23.440   8.308  0.00  0.00    -0.275 N 
ATOM      7  C   UNL     1      35.797  24.461   9.145  0.00  0.00    +0.303 C 
ATOM      8  O   UNL     1      36.596  25.355   9.440  0.00  0.00    -0.253 OA
ATOM      9  N   UNL     1      34.576  24.557   9.715  0.00  0.00    -0.293 N 
ATOM     10  C   UNL     1      35.293  22.336   7.896  0.00  0.00    +0.205 C 
ATOM     11  C   UNL     1      35.887  21.177   7.095  0.00  0.00    +0.233 C 
ATOM     12  O   UNL     1      35.145  20.379   6.517  0.00  0.00    -0.274 OA
ATOM     13  H   UNL     1      34.564  25.379  10.306  0.00  0.00    +0.151 HD
BRANCH   3  15
ATOM     14  C   UNL     1      38.468  20.041   5.299  0.00  0.00    +0.024 C 
ATOM     15  C   UNL     1      37.855  19.799   6.666  0.00  0.00    +0.104 C 
ENDBRANCH   3  15
ENDBRANCH   1   9
BRANCH   1  16
ATOM     16  C   UNL     1      32.893  23.387  11.039  0.00  0.00    -0.024 A 
ATOM     17  C   UNL     1      33.309  22.161  11.572  0.00  0.00    +0.009 A 
ATOM     18  C   UNL     1      32.899  21.758  12.844  0.00  0.00    +0.049 A 
ATOM     19  C   UNL     1      32.029  22.558  13.597  0.00  0.00    +0.156 A 
ATOM     20  C   UNL     1      31.646  23.794  13.082  0.00  0.00    +0.165 A 
ATOM     21  F   UNL     1      30.846  24.607  13.790  0.00  0.00    -0.202 F 
ATOM     22  C   UNL     1      32.057  24.207  11.816  0.00  0.00    +0.047 A 
BRANCH  19  23
ATOM     23  O   UNL     1      31.515  22.205  14.813  0.00  0.00    -0.489 OA
BRANCH  23  24
ATOM     24  C   UNL     1      32.444  22.250  15.896  0.00  0.00    +0.232 C 
BRANCH  24  25
ATOM     25  C   UNL     1      32.476  20.919  16.578  0.00  0.00    +0.027 C 
ATOM     26  C   UNL     1      33.437  20.699  17.719  0.00  0.00    +0.007 C 
ATOM     27  C   UNL     1      33.660  20.003  16.404  0.00  0.00    +0.007 C 
ENDBRANCH  24  25
ENDBRANCH  23  24
ENDBRANCH  19  23
ENDBRANCH   1  16
TORSDOF 6
ENDMDL
MODEL 4
REMARK VINA RESULT:      -6.0      4.879      7.396
REMARK  Name = ZINC000543478179
REMARK  8 active torsions:
REMARK  status: ('A' for Active; 'I' for Inactive)
REMARK    1  A    between atoms: C_1  and  C_2
REMARK    2  A    between atoms: C_2  and  N_3
REMARK    3  A    between atoms: N_9  and  C_10
REMARK    4  A    between atoms: C_10  and  C_11
REMARK    5  A    between atoms: C_10  and  C_12
REMARK    6  A    between atoms: C_15  and  O_16
REMARK    7  A    between atoms: O_16  and  C_17
REMARK    8  A    between atoms: C_17  and  C_18
REMARK                            x       y       z     vdW  Elec       q    Type
REMARK                         _______ _______ _______ _____ _____    ______ ____
ROOT
ATOM      1  C   UNL     1      33.839  20.969  17.128  0.00  0.00    +0.102 C 
ATOM      2  C   UNL     1      34.205  19.537  17.527  0.00  0.00    +0.033 C 
ENDROOT
BRANCH   1   9
ATOM      3  N   UNL     1      32.935  23.660  12.488  0.00  0.00    -0.299 N 
ATOM      4  C   UNL     1      31.575  23.716  13.021  0.00  0.00    +0.127 C 
ATOM      5  C   UNL     1      31.152  22.381  13.641  0.00  0.00    +0.129 C 
ATOM      6  N   UNL     1      32.094  21.985  14.693  0.00  0.00    -0.275 N 
ATOM      7  C   UNL     1      31.608  21.527  15.885  0.00  0.00    +0.303 C 
ATOM      8  O   UNL     1      30.394  21.459  16.102  0.00  0.00    -0.253 OA
ATOM      9  N   UNL     1      32.406  21.137  16.902  0.00  0.00    -0.293 N 
ATOM     10  C   UNL     1      33.497  22.112  14.329  0.00  0.00    +0.205 C 
ATOM     11  C   UNL     1      33.880  22.808  13.023  0.00  0.00    +0.233 C 
ATOM     12  O   UNL     1      35.023  22.693  12.573  0.00  0.00    -0.274 OA
ATOM     13  H   UNL     1      31.820  20.862  17.681  0.00  0.00    +0.151 HD
BRANCH   3  15
ATOM     14  C   UNL     1      32.566  24.182  10.126  0.00  0.00    +0.024 C 
ATOM     15  C   UNL     1      33.315  24.538  11.397  0.00  0.00    +0.104 C 
ENDBRANCH   3  15
ENDBRANCH   1   9
BRANCH   1  16
ATOM     16  C   UNL     1      34.329  21.987  18.142  0.00  0.00    -0.024 A 
ATOM     17  C   UNL     1      34.769  21.604  19.414  0.00  0.00    +0.009 A 
ATOM     18  C   UNL     1      35.196  22.556  20.341  0.00  0.00    +0.049 A 
ATOM     19  C   UNL     1      35.154  23.921  20.027  0.00  0.00    +0.156 A 
ATOM     20  C   UNL     1      34.753  24.299  18.748  0.00  0.00    +0.165 A 
ATOM     21  F   UNL     1      34.738  25.594  18.395  0.00  0.00    -0.202 F 
ATOM     22  C   UNL     1      34.332  23.353  17.815  0.00  0.00    +0.047 A 
BRANCH  19  23
ATOM     23  O   UNL     1      35.476  24.924  20.899  0.00  0.00    -0.489 OA
BRANCH  23  24
ATOM     24  C   UNL     1      34.373  25.470  21.623  0.00  0.00    +0.232 C 
BRANCH  24  25
ATOM     25  C   UNL     1      34.532  25.160  23.077  0.00  0.00    +0.027 C 
ATOM     26  C   UNL     1      33.992  23.859  23.616  0.00  0.00    +0.007 C 
ATOM     27  C   UNL     1      33.331  25.157  23.990  0.00  0.00    +0.007 C 
ENDBRANCH  24  25
ENDBRANCH  23  24
ENDBRANCH  19  23
ENDBRANCH   1  16
TORSDOF 6
ENDMDL
MODEL 5
REMARK VINA RESULT:      -5.9      6.092      9.055
REMARK  Name = ZINC000543478179
REMARK  8 active torsions:
REMARK  status: ('A' for Active; 'I' for Inactive)
REMARK    1  A    between atoms: C_1  and  C_2
REMARK    2  A    between atoms: C_2  and  N_3
REMARK    3  A    between atoms: N_9  and  C_10
REMARK    4  A    between atoms: C_10  and  C_11
REMARK    5  A    between atoms: C_10  and  C_12
REMARK    6  A    between atoms: C_15  and  O_16
REMARK    7  A    between atoms: O_16  and  C_17
REMARK    8  A    between atoms: C_17  and  C_18
REMARK                            x       y       z     vdW  Elec       q    Type
REMARK                         _______ _______ _______ _____ _____    ______ ____
ROOT
ATOM      1  C   UNL     1      35.477  23.813  10.564  0.00  0.00    +0.102 C 
ATOM      2  C   UNL     1      35.741  22.963   9.319  0.00  0.00    +0.033 C 
ENDROOT
BRANCH   1   9
ATOM      3  N   UNL     1      37.104  26.558  14.969  0.00  0.00    -0.299 N 
ATOM      4  C   UNL     1      36.675  27.702  14.166  0.00  0.00    +0.127 C 
ATOM      5  C   UNL     1      37.114  27.569  12.706  0.00  0.00    +0.129 C 
ATOM      6  N   UNL     1      36.599  26.323  12.129  0.00  0.00    -0.275 N 
ATOM      7  C   UNL     1      36.026  26.349  10.890  0.00  0.00    +0.303 C 
ATOM      8  O   UNL     1      35.913  27.401  10.253  0.00  0.00    -0.253 OA
ATOM      9  N   UNL     1      35.534  25.245  10.285  0.00  0.00    -0.293 N 
ATOM     10  C   UNL     1      36.781  25.148  12.968  0.00  0.00    +0.205 C 
ATOM     11  C   UNL     1      37.279  25.311  14.403  0.00  0.00    +0.233 C 
ATOM     12  O   UNL     1      37.688  24.331  15.032  0.00  0.00    -0.274 OA
ATOM     13  H   UNL     1      35.143  25.519   9.392  0.00  0.00    +0.151 HD
BRANCH   3  15
ATOM     14  C   UNL     1      38.587  27.513  16.665  0.00  0.00    +0.024 C 
ATOM     15  C   UNL     1      37.321  26.722  16.394  0.00  0.00    +0.104 C 
ENDBRANCH   3  15
ENDBRANCH   1   9
BRANCH   1  16
ATOM     16  C   UNL     1      34.156  23.464  11.224  0.00  0.00    -0.024 A 
ATOM     17  C   UNL     1      33.087  24.368  11.253  0.00  0.00    +0.009 A 
ATOM     18  C   UNL     1      31.886  24.037  11.883  0.00  0.00    +0.049 A 
ATOM     19  C   UNL     1      31.742  22.805  12.535  0.00  0.00    +0.156 A 
ATOM     20  C   UNL     1      32.791  21.891  12.473  0.00  0.00    +0.165 A 
ATOM     21  F   UNL     1      32.677  20.684  13.049  0.00  0.00    -0.202 F 
ATOM     22  C   UNL     1      33.990  22.211  11.839  0.00  0.00    +0.047 A 
BRANCH  19  23
ATOM     23  O   UNL     1      30.634  22.432  13.244  0.00  0.00    -0.489 OA
BRANCH  23  24
ATOM     24  C   UNL     1      30.284  23.304  14.318  0.00  0.00    +0.232 C 
BRANCH  24  25
ATOM     25  C   UNL     1      30.555  22.622  15.620  0.00  0.00    +0.027 C 
ATOM     26  C   UNL     1      30.739  21.125  15.643  0.00  0.00    +0.007 C 
ATOM     27  C   UNL     1      29.506  21.738  16.249  0.00  0.00    +0.007 C 
ENDBRANCH  24  25
ENDBRANCH  23  24
ENDBRANCH  19  23
ENDBRANCH   1  16
TORSDOF 6
ENDMDL
MODEL 6
REMARK VINA RESULT:      -5.9      7.501      9.176
REMARK  Name = ZINC000543478179
REMARK  8 active torsions:
REMARK  status: ('A' for Active; 'I' for Inactive)
REMARK    1  A    between atoms: C_1  and  C_2
REMARK    2  A    between atoms: C_2  and  N_3
REMARK    3  A    between atoms: N_9  and  C_10
REMARK    4  A    between atoms: C_10  and  C_11
REMARK    5  A    between atoms: C_10  and  C_12
REMARK    6  A    between atoms: C_15  and  O_16
REMARK    7  A    between atoms: O_16  and  C_17
REMARK    8  A    between atoms: C_17  and  C_18
REMARK                            x       y       z     vdW  Elec       q    Type
REMARK                         _______ _______ _______ _____ _____    ______ ____
ROOT
ATOM      1  C   UNL     1      35.997  22.243   9.534  0.00  0.00    +0.102 C 
ATOM      2  C   UNL     1      37.157  21.694  10.369  0.00  0.00    +0.033 C 
ENDROOT
BRANCH   1   9
ATOM      3  N   UNL     1      37.552  24.884   5.041  0.00  0.00    -0.299 N 
ATOM      4  C   UNL     1      36.811  23.803   4.393  0.00  0.00    +0.127 C 
ATOM      5  C   UNL     1      37.093  22.448   5.048  0.00  0.00    +0.129 C 
ATOM      6  N   UNL     1      36.772  22.496   6.478  0.00  0.00    -0.275 N 
ATOM      7  C   UNL     1      36.063  21.471   7.037  0.00  0.00    +0.303 C 
ATOM      8  O   UNL     1      35.668  20.516   6.360  0.00  0.00    -0.253 OA
ATOM      9  N   UNL     1      35.733  21.435   8.346  0.00  0.00    -0.293 N 
ATOM     10  C   UNL     1      37.283  23.668   7.173  0.00  0.00    +0.205 C 
ATOM     11  C   UNL     1      37.905  24.812   6.373  0.00  0.00    +0.233 C 
ATOM     12  O   UNL     1      38.572  25.677   6.947  0.00  0.00    -0.274 OA
ATOM     13  H   UNL     1      35.194  20.596   8.516  0.00  0.00    +0.151 HD
BRANCH   3  15
ATOM     14  C   UNL     1      38.422  25.706   2.907  0.00  0.00    +0.024 C 
ATOM     15  C   UNL     1      37.898  26.072   4.283  0.00  0.00    +0.104 C 
ENDBRANCH   3  15
ENDBRANCH   1   9
BRANCH   1  16
ATOM     16  C   UNL     1      34.727  22.396  10.351  0.00  0.00    -0.024 A 
ATOM     17  C   UNL     1      34.402  21.501  11.378  0.00  0.00    +0.009 A 
ATOM     18  C   UNL     1      33.219  21.646  12.105  0.00  0.00    +0.049 A 
ATOM     19  C   UNL     1      32.314  22.669  11.792  0.00  0.00    +0.156 A 
ATOM     20  C   UNL     1      32.656  23.581  10.797  0.00  0.00    +0.165 A 
ATOM     21  F   UNL     1      31.834  24.599  10.496  0.00  0.00    -0.202 F 
ATOM     22  C   UNL     1      33.839  23.447  10.072  0.00  0.00    +0.047 A 
BRANCH  19  23
ATOM     23  O   UNL     1      31.099  22.836  12.397  0.00  0.00    -0.489 OA
BRANCH  23  24
ATOM     24  C   UNL     1      31.130  22.829  13.824  0.00  0.00    +0.232 C 
BRANCH  24  25
ATOM     25  C   UNL     1      30.308  21.688  14.333  0.00  0.00    +0.027 C 
ATOM     26  C   UNL     1      30.165  21.489  15.821  0.00  0.00    +0.007 C 
ATOM     27  C   UNL     1      30.971  20.513  15.008  0.00  0.00    +0.007 C 
ENDBRANCH  24  25
ENDBRANCH  23  24
ENDBRANCH  19  23
ENDBRANCH   1  16
TORSDOF 6
ENDMDL
MODEL 7
REMARK VINA RESULT:      -5.9      5.173      8.431
REMARK  Name = ZINC000543478179
REMARK  8 active torsions:
REMARK  status: ('A' for Active; 'I' for Inactive)
REMARK    1  A    between atoms: C_1  and  C_2
REMARK    2  A    between atoms: C_2  and  N_3
REMARK    3  A    between atoms: N_9  and  C_10
REMARK    4  A    between atoms: C_10  and  C_11
REMARK    5  A    between atoms: C_10  and  C_12
REMARK    6  A    between atoms: C_15  and  O_16
REMARK    7  A    between atoms: O_16  and  C_17
REMARK    8  A    between atoms: C_17  and  C_18
REMARK                            x       y       z     vdW  Elec       q    Type
REMARK                         _______ _______ _______ _____ _____    ______ ____
ROOT
ATOM      1  C   UNL     1      33.691  23.597  11.640  0.00  0.00    +0.102 C 
ATOM      2  C   UNL     1      33.936  25.100  11.488  0.00  0.00    +0.033 C 
ENDROOT
BRANCH   1   9
ATOM      3  N   UNL     1      33.535  20.701  16.242  0.00  0.00    -0.299 N 
ATOM      4  C   UNL     1      32.136  20.535  15.852  0.00  0.00    +0.127 C 
ATOM      5  C   UNL     1      31.532  21.842  15.331  0.00  0.00    +0.129 C 
ATOM      6  N   UNL     1      32.316  22.353  14.203  0.00  0.00    -0.275 N 
ATOM      7  C   UNL     1      31.665  22.798  13.087  0.00  0.00    +0.303 C 
ATOM      8  O   UNL     1      30.434  22.759  13.000  0.00  0.00    -0.253 OA
ATOM      9  N   UNL     1      32.312  23.289  12.007  0.00  0.00    -0.293 N 
ATOM     10  C   UNL     1      33.755  22.346  14.413  0.00  0.00    +0.205 C 
ATOM     11  C   UNL     1      34.337  21.653  15.644  0.00  0.00    +0.233 C 
ATOM     12  O   UNL     1      35.507  21.860  15.977  0.00  0.00    -0.274 OA
ATOM     13  H   UNL     1      31.623  23.531  11.305  0.00  0.00    +0.151 HD
BRANCH   3  15
ATOM     14  C   UNL     1      33.851  20.375  18.646  0.00  0.00    +0.024 C 
ATOM     15  C   UNL     1      34.107  19.832  17.253  0.00  0.00    +0.104 C 
ENDBRANCH   3  15
ENDBRANCH   1   9
BRANCH   1  16
ATOM     16  C   UNL     1      34.081  22.825  10.392  0.00  0.00    -0.024 A 
ATOM     17  C   UNL     1      35.228  23.148   9.657  0.00  0.00    +0.009 A 
ATOM     18  C   UNL     1      35.559  22.440   8.500  0.00  0.00    +0.049 A 
ATOM     19  C   UNL     1      34.725  21.417   8.030  0.00  0.00    +0.156 A 
ATOM     20  C   UNL     1      33.605  21.071   8.782  0.00  0.00    +0.165 A 
ATOM     21  F   UNL     1      32.803  20.070   8.387  0.00  0.00    -0.202 F 
ATOM     22  C   UNL     1      33.272  21.768   9.942  0.00  0.00    +0.047 A 
BRANCH  19  23
ATOM     23  O   UNL     1      34.929  20.729   6.867  0.00  0.00    -0.489 OA
BRANCH  23  24
ATOM     24  C   UNL     1      35.936  19.719   6.933  0.00  0.00    +0.232 C 
BRANCH  24  25
ATOM     25  C   UNL     1      36.404  19.394   5.550  0.00  0.00    +0.027 C 
ATOM     26  C   UNL     1      37.099  18.079   5.298  0.00  0.00    +0.007 C 
ATOM     27  C   UNL     1      37.878  19.364   5.233  0.00  0.00    +0.007 C 
ENDBRANCH  24  25
ENDBRANCH  23  24
ENDBRANCH  19  23
ENDBRANCH   1  16
TORSDOF 6
ENDMDL
MODEL 8
REMARK VINA RESULT:      -5.9      5.012      7.295
REMARK  Name = ZINC000543478179
REMARK  8 active torsions:
REMARK  status: ('A' for Active; 'I' for Inactive)
REMARK    1  A    between atoms: C_1  and  C_2
REMARK    2  A    between atoms: C_2  and  N_3
REMARK    3  A    between atoms: N_9  and  C_10
REMARK    4  A    between atoms: C_10  and  C_11
REMARK    5  A    between atoms: C_10  and  C_12
REMARK    6  A    between atoms: C_15  and  O_16
REMARK    7  A    between atoms: O_16  and  C_17
REMARK    8  A    between atoms: C_17  and  C_18
REMARK                            x       y       z     vdW  Elec       q    Type
REMARK                         _______ _______ _______ _____ _____    ______ ____
ROOT
ATOM      1  C   UNL     1      33.756  20.926  17.204  0.00  0.00    +0.102 C 
ATOM      2  C   UNL     1      34.109  19.552  17.778  0.00  0.00    +0.033 C 
ENDROOT
BRANCH   1   9
ATOM      3  N   UNL     1      32.977  23.561  12.509  0.00  0.00    -0.299 N 
ATOM      4  C   UNL     1      31.597  23.594  12.990  0.00  0.00    +0.127 C 
ATOM      5  C   UNL     1      31.177  22.256  13.605  0.00  0.00    +0.129 C 
ATOM      6  N   UNL     1      32.085  21.888  14.696  0.00  0.00    -0.275 N 
ATOM      7  C   UNL     1      31.563  21.431  15.872  0.00  0.00    +0.303 C 
ATOM      8  O   UNL     1      30.343  21.340  16.044  0.00  0.00    -0.253 OA
ATOM      9  N   UNL     1      32.330  21.065  16.922  0.00  0.00    -0.293 N 
ATOM     10  C   UNL     1      33.498  22.040  14.384  0.00  0.00    +0.205 C 
ATOM     11  C   UNL     1      33.917  22.732  13.087  0.00  0.00    +0.233 C 
ATOM     12  O   UNL     1      35.078  22.635  12.682  0.00  0.00    -0.274 OA
ATOM     13  H   UNL     1      31.719  20.785  17.681  0.00  0.00    +0.151 HD
BRANCH   3  15
ATOM     14  C   UNL     1      32.508  24.227  10.202  0.00  0.00    +0.024 C 
ATOM     15  C   UNL     1      33.381  24.437  11.426  0.00  0.00    +0.104 C 
ENDBRANCH   3  15
ENDBRANCH   1   9
BRANCH   1  16
ATOM     16  C   UNL     1      34.221  22.057  18.103  0.00  0.00    -0.024 A 
ATOM     17  C   UNL     1      34.158  23.394  17.694  0.00  0.00    +0.009 A 
ATOM     18  C   UNL     1      34.610  24.420  18.526  0.00  0.00    +0.049 A 
ATOM     19  C   UNL     1      35.173  24.125  19.775  0.00  0.00    +0.156 A 
ATOM     20  C   UNL     1      35.199  22.798  20.198  0.00  0.00    +0.165 A 
ATOM     21  F   UNL     1      35.693  22.479  21.405  0.00  0.00    -0.202 F 
ATOM     22  C   UNL     1      34.743  21.770  19.375  0.00  0.00    +0.047 A 
BRANCH  19  23
ATOM     23  O   UNL     1      35.711  25.056  20.618  0.00  0.00    -0.489 OA
BRANCH  23  24
ATOM     24  C   UNL     1      34.772  25.713  21.470  0.00  0.00    +0.232 C 
BRANCH  24  25
ATOM     25  C   UNL     1      34.606  27.131  21.024  0.00  0.00    +0.027 C 
ATOM     26  C   UNL     1      35.723  27.800  20.263  0.00  0.00    +0.007 C 
ATOM     27  C   UNL     1      35.412  28.231  21.670  0.00  0.00    +0.007 C 
ENDBRANCH  24  25
ENDBRANCH  23  24
ENDBRANCH  19  23
ENDBRANCH   1  16
TORSDOF 6
ENDMDL
MODEL 9
REMARK VINA RESULT:      -5.8      4.793      7.031
REMARK  Name = ZINC000543478179
REMARK  8 active torsions:
REMARK  status: ('A' for Active; 'I' for Inactive)
REMARK    1  A    between atoms: C_1  and  C_2
REMARK    2  A    between atoms: C_2  and  N_3
REMARK    3  A    between atoms: N_9  and  C_10
REMARK    4  A    between atoms: C_10  and  C_11
REMARK    5  A    between atoms: C_10  and  C_12
REMARK    6  A    between atoms: C_15  and  O_16
REMARK    7  A    between atoms: O_16  and  C_17
REMARK    8  A    between atoms: C_17  and  C_18
REMARK                            x       y       z     vdW  Elec       q    Type
REMARK                         _______ _______ _______ _____ _____    ______ ____
ROOT
ATOM      1  C   UNL     1      32.137  21.283  14.607  0.00  0.00    +0.102 C 
ATOM      2  C   UNL     1      30.951  20.316  14.645  0.00  0.00    +0.033 C 
ENDROOT
BRANCH   1   9
ATOM      3  N   UNL     1      34.468  22.476   9.840  0.00  0.00    -0.299 N 
ATOM      4  C   UNL     1      33.975  23.814  10.163  0.00  0.00    +0.127 C 
ATOM      5  C   UNL     1      32.555  23.774  10.735  0.00  0.00    +0.129 C 
ATOM      6  N   UNL     1      32.507  22.915  11.923  0.00  0.00    -0.275 N 
ATOM      7  C   UNL     1      31.848  23.353  13.036  0.00  0.00    +0.303 C 
ATOM      8  O   UNL     1      31.310  24.465  13.071  0.00  0.00    -0.253 OA
ATOM      9  N   UNL     1      31.752  22.622  14.167  0.00  0.00    -0.293 N 
ATOM     10  C   UNL     1      33.178  21.633  11.770  0.00  0.00    +0.205 C 
ATOM     11  C   UNL     1      34.021  21.364  10.524  0.00  0.00    +0.233 C 
ATOM     12  O   UNL     1      34.373  20.213  10.252  0.00  0.00    -0.274 OA
ATOM     13  H   UNL     1      31.240  23.162  14.854  0.00  0.00    +0.151 HD
BRANCH   3  15
ATOM     14  C   UNL     1      34.820  22.068   7.453  0.00  0.00    +0.024 C 
ATOM     15  C   UNL     1      35.470  22.311   8.803  0.00  0.00    +0.104 C 
ENDBRANCH   3  15
ENDBRANCH   1   9
BRANCH   1  16
ATOM     16  C   UNL     1      32.853  21.361  15.943  0.00  0.00    -0.024 A 
ATOM     17  C   UNL     1      33.269  22.584  16.484  0.00  0.00    +0.009 A 
ATOM     18  C   UNL     1      33.944  22.634  17.704  0.00  0.00    +0.049 A 
ATOM     19  C   UNL     1      34.256  21.454  18.392  0.00  0.00    +0.156 A 
ATOM     20  C   UNL     1      33.809  20.241  17.874  0.00  0.00    +0.165 A 
ATOM     21  F   UNL     1      34.052  19.092  18.524  0.00  0.00    -0.202 F 
ATOM     22  C   UNL     1      33.127  20.184  16.660  0.00  0.00    +0.047 A 
BRANCH  19  23
ATOM     23  O   UNL     1      34.983  21.404  19.549  0.00  0.00    -0.489 OA
BRANCH  23  24
ATOM     24  C   UNL     1      36.077  22.319  19.613  0.00  0.00    +0.232 C 
BRANCH  24  25
ATOM     25  C   UNL     1      36.072  23.007  20.941  0.00  0.00    +0.027 C 
ATOM     26  C   UNL     1      34.810  23.003  21.767  0.00  0.00    +0.007 C 
ATOM     27  C   UNL     1      35.290  24.281  21.135  0.00  0.00    +0.007 C 
ENDBRANCH  24  25
ENDBRANCH  23  24
ENDBRANCH  19  23
ENDBRANCH   1  16
TORSDOF 6
ENDMDL
