MODEL 1
REMARK VINA RESULT:      -6.4      0.000      0.000
REMARK  Name = ZINC000329563636
REMARK  3 active torsions:
REMARK  status: ('A' for Active; 'I' for Inactive)
REMARK    1  A    between atoms: C_1  and  C_2
REMARK    2  A    between atoms: C_2  and  N_3
REMARK    3  A    between atoms: N_9  and  C_10
REMARK                            x       y       z     vdW  Elec       q    Type
REMARK                         _______ _______ _______ _____ _____    ______ ____
ROOT
ATOM      1  C   UNL     1      32.824  22.787  12.594  0.00  0.00    +0.112 C 
ATOM      2  C   UNL     1      31.540  22.178  13.165  0.00  0.00    +0.075 C 
ATOM      3  C   UNL     1      31.553  21.945  14.684  0.00  0.00    +0.113 C 
ATOM      4  C   UNL     1      31.168  23.183  15.535  0.00  0.00    +0.048 C 
ATOM      5  C   UNL     1      29.822  22.861  16.175  0.00  0.00    +0.004 C 
ATOM      6  C   UNL     1      29.835  21.353  16.323  0.00  0.00    +0.004 C 
ATOM      7  C   UNL     1      30.470  20.890  15.023  0.00  0.00    +0.048 C 
ATOM      8  O   UNL     1      32.815  21.418  15.133  0.00  0.00    -0.485 OA
ATOM      9  C   UNL     1      33.879  22.216  14.804  0.00  0.00    +0.126 A 
ATOM     10  C   UNL     1      34.931  22.297  15.714  0.00  0.00    +0.046 A 
ATOM     11  C   UNL     1      36.021  23.126  15.449  0.00  0.00    +0.004 A 
ATOM     12  C   UNL     1      36.069  23.859  14.265  0.00  0.00    +0.001 A 
ATOM     13  C   UNL     1      35.029  23.751  13.342  0.00  0.00    +0.009 A 
ATOM     14  C   UNL     1      33.923  22.926  13.607  0.00  0.00    +0.015 A 
ENDROOT
BRANCH   1  21
ATOM     15  N   UNL     1      35.792  20.512   7.532  0.00  0.00    -0.299 N 
ATOM     16  C   UNL     1      35.278  21.872   7.375  0.00  0.00    +0.127 C 
ATOM     17  C   UNL     1      33.835  22.002   7.853  0.00  0.00    +0.129 C 
ATOM     18  N   UNL     1      33.754  21.557   9.237  0.00  0.00    -0.275 N 
ATOM     19  C   UNL     1      33.319  22.439  10.200  0.00  0.00    +0.303 C 
ATOM     20  O   UNL     1      32.990  23.595   9.937  0.00  0.00    -0.253 OA
ATOM     21  N   UNL     1      33.307  21.969  11.481  0.00  0.00    -0.292 N 
ATOM     22  C   UNL     1      34.210  20.182   9.458  0.00  0.00    +0.205 C 
ATOM     23  C   UNL     1      35.283  19.642   8.490  0.00  0.00    +0.233 C 
ATOM     24  O   UNL     1      35.671  18.476   8.590  0.00  0.00    -0.274 OA
ATOM     25  H   UNL     1      33.227  20.975  11.620  0.00  0.00    +0.151 HD
BRANCH  15  27
ATOM     26  C   UNL     1      36.552  19.635   5.352  0.00  0.00    +0.024 C 
ATOM     27  C   UNL     1      36.949  20.115   6.737  0.00  0.00    +0.104 C 
ENDBRANCH  15  27
ENDBRANCH   1  21
TORSDOF 2
ENDMDL
MODEL 2
REMARK VINA RESULT:      -6.4      4.382      6.275
REMARK  Name = ZINC000329563636
REMARK  3 active torsions:
REMARK  status: ('A' for Active; 'I' for Inactive)
REMARK    1  A    between atoms: C_1  and  C_2
REMARK    2  A    between atoms: C_2  and  N_3
REMARK    3  A    between atoms: N_9  and  C_10
REMARK                            x       y       z     vdW  Elec       q    Type
REMARK                         _______ _______ _______ _____ _____    ______ ____
ROOT
ATOM      1  C   UNL     1      34.075  20.757  13.284  0.00  0.00    +0.112 C 
ATOM      2  C   UNL     1      34.236  21.542  11.978  0.00  0.00    +0.075 C 
ATOM      3  C   UNL     1      33.159  22.608  11.726  0.00  0.00    +0.113 C 
ATOM      4  C   UNL     1      33.425  23.976  12.406  0.00  0.00    +0.048 C 
ATOM      5  C   UNL     1      33.712  24.965  11.282  0.00  0.00    +0.004 C 
ATOM      6  C   UNL     1      32.920  24.427  10.107  0.00  0.00    +0.004 C 
ATOM      7  C   UNL     1      33.136  22.927  10.209  0.00  0.00    +0.048 C 
ATOM      8  O   UNL     1      31.845  22.136  12.080  0.00  0.00    -0.485 OA
ATOM      9  C   UNL     1      31.756  21.723  13.383  0.00  0.00    +0.126 A 
ATOM     10  C   UNL     1      30.560  21.966  14.056  0.00  0.00    +0.046 A 
ATOM     11  C   UNL     1      30.428  21.603  15.397  0.00  0.00    +0.004 A 
ATOM     12  C   UNL     1      31.483  20.980  16.059  0.00  0.00    +0.001 A 
ATOM     13  C   UNL     1      32.667  20.711  15.373  0.00  0.00    +0.009 A 
ATOM     14  C   UNL     1      32.812  21.083  14.026  0.00  0.00    +0.015 A 
ENDROOT
BRANCH   1  21
ATOM     15  N   UNL     1      33.840  14.476  13.594  0.00  0.00    -0.299 N 
ATOM     16  C   UNL     1      34.604  15.109  14.668  0.00  0.00    +0.127 C 
ATOM     17  C   UNL     1      35.576  16.162  14.142  0.00  0.00    +0.129 C 
ATOM     18  N   UNL     1      34.835  17.143  13.364  0.00  0.00    -0.275 N 
ATOM     19  C   UNL     1      34.855  18.462  13.755  0.00  0.00    +0.303 C 
ATOM     20  O   UNL     1      35.483  18.850  14.739  0.00  0.00    -0.253 OA
ATOM     21  N   UNL     1      34.105  19.322  13.005  0.00  0.00    -0.292 N 
ATOM     22  C   UNL     1      34.082  16.581  12.239  0.00  0.00    +0.205 C 
ATOM     23  C   UNL     1      33.598  15.123  12.387  0.00  0.00    +0.233 C 
ATOM     24  O   UNL     1      33.004  14.575  11.456  0.00  0.00    -0.274 OA
ATOM     25  H   UNL     1      33.912  19.071  12.050  0.00  0.00    +0.151 HD
BRANCH  15  27
ATOM     26  C   UNL     1      34.160  12.028  13.547  0.00  0.00    +0.024 C 
ATOM     27  C   UNL     1      33.222  13.181  13.857  0.00  0.00    +0.104 C 
ENDBRANCH  15  27
ENDBRANCH   1  21
TORSDOF 2
ENDMDL
MODEL 3
REMARK VINA RESULT:      -6.3      3.937      5.910
REMARK  Name = ZINC000329563636
REMARK  3 active torsions:
REMARK  status: ('A' for Active; 'I' for Inactive)
REMARK    1  A    between atoms: C_1  and  C_2
REMARK    2  A    between atoms: C_2  and  N_3
REMARK    3  A    between atoms: N_9  and  C_10
REMARK                            x       y       z     vdW  Elec       q    Type
REMARK                         _______ _______ _______ _____ _____    ______ ____
ROOT
ATOM      1  C   UNL     1      34.625  22.374  14.452  0.00  0.00    +0.112 C 
ATOM      2  C   UNL     1      35.106  21.953  15.844  0.00  0.00    +0.075 C 
ATOM      3  C   UNL     1      33.987  21.684  16.862  0.00  0.00    +0.113 C 
ATOM      4  C   UNL     1      33.382  20.258  16.803  0.00  0.00    +0.048 C 
ATOM      5  C   UNL     1      33.803  19.560  18.092  0.00  0.00    +0.004 C 
ATOM      6  C   UNL     1      33.931  20.688  19.096  0.00  0.00    +0.004 C 
ATOM      7  C   UNL     1      34.589  21.791  18.286  0.00  0.00    +0.048 C 
ATOM      8  O   UNL     1      32.935  22.663  16.772  0.00  0.00    -0.485 OA
ATOM      9  C   UNL     1      32.379  22.741  15.522  0.00  0.00    +0.126 A 
ATOM     10  C   UNL     1      31.012  22.995  15.438  0.00  0.00    +0.046 A 
ATOM     11  C   UNL     1      30.386  23.045  14.192  0.00  0.00    +0.004 A 
ATOM     12  C   UNL     1      31.131  22.862  13.029  0.00  0.00    +0.001 A 
ATOM     13  C   UNL     1      32.505  22.640  13.116  0.00  0.00    +0.009 A 
ATOM     14  C   UNL     1      33.141  22.577  14.367  0.00  0.00    +0.015 A 
ENDROOT
BRANCH   1  21
ATOM     15  N   UNL     1      36.714  27.469  11.405  0.00  0.00    -0.299 N 
ATOM     16  C   UNL     1      36.750  26.235  10.621  0.00  0.00    +0.127 C 
ATOM     17  C   UNL     1      37.363  25.075  11.399  0.00  0.00    +0.129 C 
ATOM     18  N   UNL     1      36.627  24.897  12.642  0.00  0.00    -0.275 N 
ATOM     19  C   UNL     1      36.004  23.694  12.885  0.00  0.00    +0.303 C 
ATOM     20  O   UNL     1      36.048  22.755  12.092  0.00  0.00    -0.253 OA
ATOM     21  N   UNL     1      35.297  23.610  14.050  0.00  0.00    -0.292 N 
ATOM     22  C   UNL     1      36.591  26.085  13.500  0.00  0.00    +0.205 C 
ATOM     23  C   UNL     1      36.682  27.454  12.795  0.00  0.00    +0.233 C 
ATOM     24  O   UNL     1      36.709  28.490  13.464  0.00  0.00    -0.274 OA
ATOM     25  H   UNL     1      35.561  24.215  14.809  0.00  0.00    +0.151 HD
BRANCH  15  27
ATOM     26  C   UNL     1      37.939  29.315  10.313  0.00  0.00    +0.024 C 
ATOM     27  C   UNL     1      36.587  28.736  10.693  0.00  0.00    +0.104 C 
ENDBRANCH  15  27
ENDBRANCH   1  21
TORSDOF 2
ENDMDL
MODEL 4
REMARK VINA RESULT:      -6.3      2.249      4.249
REMARK  Name = ZINC000329563636
REMARK  3 active torsions:
REMARK  status: ('A' for Active; 'I' for Inactive)
REMARK    1  A    between atoms: C_1  and  C_2
REMARK    2  A    between atoms: C_2  and  N_3
REMARK    3  A    between atoms: N_9  and  C_10
REMARK                            x       y       z     vdW  Elec       q    Type
REMARK                         _______ _______ _______ _____ _____    ______ ____
ROOT
ATOM      1  C   UNL     1      33.929  20.458  15.065  0.00  0.00    +0.112 C 
ATOM      2  C   UNL     1      34.962  20.983  16.067  0.00  0.00    +0.075 C 
ATOM      3  C   UNL     1      34.396  21.896  17.165  0.00  0.00    +0.113 C 
ATOM      4  C   UNL     1      33.806  21.152  18.390  0.00  0.00    +0.048 C 
ATOM      5  C   UNL     1      34.737  21.449  19.561  0.00  0.00    +0.004 C 
ATOM      6  C   UNL     1      35.306  22.816  19.241  0.00  0.00    +0.004 C 
ATOM      7  C   UNL     1      35.560  22.738  17.746  0.00  0.00    +0.048 C 
ATOM      8  O   UNL     1      33.423  22.821  16.642  0.00  0.00    -0.485 OA
ATOM      9  C   UNL     1      32.380  22.201  16.006  0.00  0.00    +0.126 A 
ATOM     10  C   UNL     1      31.116  22.775  16.131  0.00  0.00    +0.046 A 
ATOM     11  C   UNL     1      30.011  22.164  15.538  0.00  0.00    +0.004 A 
ATOM     12  C   UNL     1      30.171  20.991  14.805  0.00  0.00    +0.001 A 
ATOM     13  C   UNL     1      31.443  20.437  14.656  0.00  0.00    +0.009 A 
ATOM     14  C   UNL     1      32.559  21.040  15.259  0.00  0.00    +0.015 A 
ENDROOT
BRANCH   1  21
ATOM     15  N   UNL     1      35.035  20.385   8.870  0.00  0.00    -0.299 N 
ATOM     16  C   UNL     1      35.232  19.099   9.537  0.00  0.00    +0.127 C 
ATOM     17  C   UNL     1      36.058  19.232  10.813  0.00  0.00    +0.129 C 
ATOM     18  N   UNL     1      35.417  20.198  11.694  0.00  0.00    -0.275 N 
ATOM     19  C   UNL     1      35.005  19.795  12.944  0.00  0.00    +0.303 C 
ATOM     20  O   UNL     1      35.164  18.646  13.353  0.00  0.00    -0.253 OA
ATOM     21  N   UNL     1      34.375  20.740  13.700  0.00  0.00    -0.292 N 
ATOM     22  C   UNL     1      35.231  21.526  11.102  0.00  0.00    +0.205 C 
ATOM     23  C   UNL     1      35.069  21.587   9.569  0.00  0.00    +0.233 C 
ATOM     24  O   UNL     1      34.960  22.678   9.005  0.00  0.00    -0.274 OA
ATOM     25  H   UNL     1      34.574  21.708  13.511  0.00  0.00    +0.151 HD
BRANCH  15  27
ATOM     26  C   UNL     1      35.857  20.037   6.568  0.00  0.00    +0.024 C 
ATOM     27  C   UNL     1      34.675  20.382   7.456  0.00  0.00    +0.104 C 
ENDBRANCH  15  27
ENDBRANCH   1  21
TORSDOF 2
ENDMDL
MODEL 5
REMARK VINA RESULT:      -6.2      3.747      7.350
REMARK  Name = ZINC000329563636
REMARK  3 active torsions:
REMARK  status: ('A' for Active; 'I' for Inactive)
REMARK    1  A    between atoms: C_1  and  C_2
REMARK    2  A    between atoms: C_2  and  N_3
REMARK    3  A    between atoms: N_9  and  C_10
REMARK                            x       y       z     vdW  Elec       q    Type
REMARK                         _______ _______ _______ _____ _____    ______ ____
ROOT
ATOM      1  C   UNL     1      34.043  22.534  14.587  0.00  0.00    +0.112 C 
ATOM      2  C   UNL     1      34.369  22.643  13.094  0.00  0.00    +0.075 C 
ATOM      3  C   UNL     1      33.148  22.644  12.162  0.00  0.00    +0.113 C 
ATOM      4  C   UNL     1      32.480  24.030  11.965  0.00  0.00    +0.048 C 
ATOM      5  C   UNL     1      32.743  24.430  10.518  0.00  0.00    +0.004 C 
ATOM      6  C   UNL     1      32.834  23.109   9.781  0.00  0.00    +0.004 C 
ATOM      7  C   UNL     1      33.619  22.236  10.743  0.00  0.00    +0.048 C 
ATOM      8  O   UNL     1      32.160  21.681  12.575  0.00  0.00    -0.485 OA
ATOM      9  C   UNL     1      31.728  21.872  13.861  0.00  0.00    +0.126 A 
ATOM     10  C   UNL     1      30.389  21.605  14.138  0.00  0.00    +0.046 A 
ATOM     11  C   UNL     1      29.886  21.820  15.422  0.00  0.00    +0.004 A 
ATOM     12  C   UNL     1      30.726  22.282  16.433  0.00  0.00    +0.001 A 
ATOM     13  C   UNL     1      32.073  22.517  16.159  0.00  0.00    +0.009 A 
ATOM     14  C   UNL     1      32.585  22.313  14.866  0.00  0.00    +0.015 A 
ENDROOT
BRANCH   1  21
ATOM     15  N   UNL     1      37.430  18.802  18.357  0.00  0.00    -0.299 N 
ATOM     16  C   UNL     1      37.916  20.178  18.268  0.00  0.00    +0.127 C 
ATOM     17  C   UNL     1      37.996  20.670  16.826  0.00  0.00    +0.129 C 
ATOM     18  N   UNL     1      36.688  20.524  16.203  0.00  0.00    -0.275 N 
ATOM     19  C   UNL     1      36.050  21.642  15.715  0.00  0.00    +0.303 C 
ATOM     20  O   UNL     1      36.545  22.767  15.779  0.00  0.00    -0.253 OA
ATOM     21  N   UNL     1      34.810  21.440  15.182  0.00  0.00    -0.292 N 
ATOM     22  C   UNL     1      36.161  19.157  16.215  0.00  0.00    +0.205 C 
ATOM     23  C   UNL     1      36.618  18.246  17.374  0.00  0.00    +0.233 C 
ATOM     24  O   UNL     1      36.251  17.070  17.413  0.00  0.00    -0.274 OA
ATOM     25  H   UNL     1      34.593  20.525  14.823  0.00  0.00    +0.151 HD
BRANCH  15  27
ATOM     26  C   UNL     1      39.013  17.268  19.470  0.00  0.00    +0.024 C 
ATOM     27  C   UNL     1      37.713  18.047  19.572  0.00  0.00    +0.104 C 
ENDBRANCH  15  27
ENDBRANCH   1  21
TORSDOF 2
ENDMDL
MODEL 6
REMARK VINA RESULT:      -6.1      4.881      5.713
REMARK  Name = ZINC000329563636
REMARK  3 active torsions:
REMARK  status: ('A' for Active; 'I' for Inactive)
REMARK    1  A    between atoms: C_1  and  C_2
REMARK    2  A    between atoms: C_2  and  N_3
REMARK    3  A    between atoms: N_9  and  C_10
REMARK                            x       y       z     vdW  Elec       q    Type
REMARK                         _______ _______ _______ _____ _____    ______ ____
ROOT
ATOM      1  C   UNL     1      33.832  19.301  13.852  0.00  0.00    +0.112 C 
ATOM      2  C   UNL     1      32.559  20.056  13.457  0.00  0.00    +0.075 C 
ATOM      3  C   UNL     1      31.963  20.945  14.559  0.00  0.00    +0.113 C 
ATOM      4  C   UNL     1      32.590  22.359  14.664  0.00  0.00    +0.048 C 
ATOM      5  C   UNL     1      31.510  23.341  14.222  0.00  0.00    +0.004 C 
ATOM      6  C   UNL     1      30.213  22.654  14.598  0.00  0.00    +0.004 C 
ATOM      7  C   UNL     1      30.473  21.206  14.222  0.00  0.00    +0.048 C 
ATOM      8  O   UNL     1      32.001  20.300  15.846  0.00  0.00    -0.485 OA
ATOM      9  C   UNL     1      33.264  19.923  16.221  0.00  0.00    +0.126 A 
ATOM     10  C   UNL     1      33.588  20.012  17.574  0.00  0.00    +0.046 A 
ATOM     11  C   UNL     1      34.872  19.680  18.007  0.00  0.00    +0.004 A 
ATOM     12  C   UNL     1      35.825  19.240  17.091  0.00  0.00    +0.001 A 
ATOM     13  C   UNL     1      35.487  19.122  15.743  0.00  0.00    +0.009 A 
ATOM     14  C   UNL     1      34.200  19.465  15.298  0.00  0.00    +0.015 A 
ENDROOT
BRANCH   1  21
ATOM     15  N   UNL     1      34.628  13.298  12.140  0.00  0.00    -0.299 N 
ATOM     16  C   UNL     1      35.102  14.276  11.162  0.00  0.00    +0.127 C 
ATOM     17  C   UNL     1      34.079  15.379  10.908  0.00  0.00    +0.129 C 
ATOM     18  N   UNL     1      33.739  16.011  12.175  0.00  0.00    -0.275 N 
ATOM     19  C   UNL     1      33.976  17.357  12.336  0.00  0.00    +0.303 C 
ATOM     20  O   UNL     1      34.460  18.055  11.446  0.00  0.00    -0.253 OA
ATOM     21  N   UNL     1      33.673  17.876  13.561  0.00  0.00    -0.292 N 
ATOM     22  C   UNL     1      33.212  15.093  13.187  0.00  0.00    +0.205 C 
ATOM     23  C   UNL     1      33.686  13.626  13.109  0.00  0.00    +0.233 C 
ATOM     24  O   UNL     1      33.239  12.793  13.900  0.00  0.00    -0.274 OA
ATOM     25  H   UNL     1      32.977  17.406  14.116  0.00  0.00    +0.151 HD
BRANCH  15  27
ATOM     26  C   UNL     1      34.835  11.127  10.982  0.00  0.00    +0.024 C 
ATOM     27  C   UNL     1      35.259  11.982  12.163  0.00  0.00    +0.104 C 
ENDBRANCH  15  27
ENDBRANCH   1  21
TORSDOF 2
ENDMDL
MODEL 7
REMARK VINA RESULT:      -6.0     23.186     24.550
REMARK  Name = ZINC000329563636
REMARK  3 active torsions:
REMARK  status: ('A' for Active; 'I' for Inactive)
REMARK    1  A    between atoms: C_1  and  C_2
REMARK    2  A    between atoms: C_2  and  N_3
REMARK    3  A    between atoms: N_9  and  C_10
REMARK                            x       y       z     vdW  Elec       q    Type
REMARK                         _______ _______ _______ _____ _____    ______ ____
ROOT
ATOM      1  C   UNL     1      11.655  17.172   5.776  0.00  0.00    +0.112 C 
ATOM      2  C   UNL     1      11.243  18.080   6.939  0.00  0.00    +0.075 C 
ATOM      3  C   UNL     1      10.427  17.390   8.043  0.00  0.00    +0.113 C 
ATOM      4  C   UNL     1      11.273  16.653   9.113  0.00  0.00    +0.048 C 
ATOM      5  C   UNL     1      11.103  17.438  10.409  0.00  0.00    +0.004 C 
ATOM      6  C   UNL     1       9.721  18.049  10.291  0.00  0.00    +0.004 C 
ATOM      7  C   UNL     1       9.663  18.481   8.836  0.00  0.00    +0.048 C 
ATOM      8  O   UNL     1       9.442  16.492   7.498  0.00  0.00    -0.485 OA
ATOM      9  C   UNL     1       9.983  15.530   6.687  0.00  0.00    +0.126 A 
ATOM     10  C   UNL     1       9.402  14.263   6.714  0.00  0.00    +0.046 A 
ATOM     11  C   UNL     1       9.937  13.234   5.938  0.00  0.00    +0.004 A 
ATOM     12  C   UNL     1      11.039  13.476   5.121  0.00  0.00    +0.001 A 
ATOM     13  C   UNL     1      11.597  14.753   5.073  0.00  0.00    +0.009 A 
ATOM     14  C   UNL     1      11.072  15.792   5.859  0.00  0.00    +0.015 A 
ENDROOT
BRANCH   1  21
ATOM     15  N   UNL     1      11.465  19.836   0.077  0.00  0.00    -0.299 N 
ATOM     16  C   UNL     1      12.423  20.443   1.000  0.00  0.00    +0.127 C 
ATOM     17  C   UNL     1      11.813  20.709   2.373  0.00  0.00    +0.129 C 
ATOM     18  N   UNL     1      11.278  19.462   2.902  0.00  0.00    -0.275 N 
ATOM     19  C   UNL     1      11.770  18.973   4.091  0.00  0.00    +0.303 C 
ATOM     20  O   UNL     1      12.645  19.553   4.732  0.00  0.00    -0.253 OA
ATOM     21  N   UNL     1      11.254  17.781   4.507  0.00  0.00    -0.292 N 
ATOM     22  C   UNL     1      10.275  18.823   2.046  0.00  0.00    +0.205 C 
ATOM     23  C   UNL     1      10.387  19.083   0.529  0.00  0.00    +0.233 C 
ATOM     24  O   UNL     1       9.544  18.615  -0.239  0.00  0.00    -0.274 OA
ATOM     25  H   UNL     1      10.335  17.524   4.186  0.00  0.00    +0.151 HD
BRANCH  15  27
ATOM     26  C   UNL     1      12.316  21.278  -1.738  0.00  0.00    +0.024 C 
ATOM     27  C   UNL     1      11.730  19.930  -1.354  0.00  0.00    +0.104 C 
ENDBRANCH  15  27
ENDBRANCH   1  21
TORSDOF 2
ENDMDL
MODEL 8
REMARK VINA RESULT:      -6.0      3.979      6.331
REMARK  Name = ZINC000329563636
REMARK  3 active torsions:
REMARK  status: ('A' for Active; 'I' for Inactive)
REMARK    1  A    between atoms: C_1  and  C_2
REMARK    2  A    between atoms: C_2  and  N_3
REMARK    3  A    between atoms: N_9  and  C_10
REMARK                            x       y       z     vdW  Elec       q    Type
REMARK                         _______ _______ _______ _____ _____    ______ ____
ROOT
ATOM      1  C   UNL     1      35.010  23.183  12.452  0.00  0.00    +0.112 C 
ATOM      2  C   UNL     1      33.834  23.156  13.433  0.00  0.00    +0.075 C 
ATOM      3  C   UNL     1      32.632  22.313  12.982  0.00  0.00    +0.113 C 
ATOM      4  C   UNL     1      32.741  20.800  13.304  0.00  0.00    +0.048 C 
ATOM      5  C   UNL     1      31.688  20.511  14.368  0.00  0.00    +0.004 C 
ATOM      6  C   UNL     1      30.598  21.528  14.094  0.00  0.00    +0.004 C 
ATOM      7  C   UNL     1      31.382  22.787  13.767  0.00  0.00    +0.048 C 
ATOM      8  O   UNL     1      32.347  22.493  11.582  0.00  0.00    -0.485 OA
ATOM      9  C   UNL     1      33.415  22.201  10.774  0.00  0.00    +0.126 A 
ATOM     10  C   UNL     1      33.147  21.609   9.542  0.00  0.00    +0.046 A 
ATOM     11  C   UNL     1      34.199  21.253   8.696  0.00  0.00    +0.004 A 
ATOM     12  C   UNL     1      35.515  21.508   9.074  0.00  0.00    +0.001 A 
ATOM     13  C   UNL     1      35.776  22.130  10.294  0.00  0.00    +0.009 A 
ATOM     14  C   UNL     1      34.724  22.481  11.156  0.00  0.00    +0.015 A 
ENDROOT
BRANCH   1  21
ATOM     15  N   UNL     1      38.072  28.563  11.318  0.00  0.00    -0.299 N 
ATOM     16  C   UNL     1      38.584  27.801  12.456  0.00  0.00    +0.127 C 
ATOM     17  C   UNL     1      37.468  27.330  13.384  0.00  0.00    +0.129 C 
ATOM     18  N   UNL     1      36.505  26.557  12.612  0.00  0.00    -0.275 N 
ATOM     19  C   UNL     1      36.269  25.246  12.958  0.00  0.00    +0.303 C 
ATOM     20  O   UNL     1      36.836  24.698  13.903  0.00  0.00    -0.253 OA
ATOM     21  N   UNL     1      35.386  24.568  12.168  0.00  0.00    -0.292 N 
ATOM     22  C   UNL     1      35.917  27.278  11.481  0.00  0.00    +0.205 C 
ATOM     23  C   UNL     1      36.780  28.382  10.836  0.00  0.00    +0.233 C 
ATOM     24  O   UNL     1      36.322  29.061   9.913  0.00  0.00    -0.274 OA
ATOM     25  H   UNL     1      34.697  25.100  11.664  0.00  0.00    +0.151 HD
BRANCH  15  27
ATOM     26  C   UNL     1      39.868  28.680   9.627  0.00  0.00    +0.024 C 
ATOM     27  C   UNL     1      38.992  29.443  10.606  0.00  0.00    +0.104 C 
ENDBRANCH  15  27
ENDBRANCH   1  21
TORSDOF 2
ENDMDL
MODEL 9
REMARK VINA RESULT:      -5.9      4.059      5.760
REMARK  Name = ZINC000329563636
REMARK  3 active torsions:
REMARK  status: ('A' for Active; 'I' for Inactive)
REMARK    1  A    between atoms: C_1  and  C_2
REMARK    2  A    between atoms: C_2  and  N_3
REMARK    3  A    between atoms: N_9  and  C_10
REMARK                            x       y       z     vdW  Elec       q    Type
REMARK                         _______ _______ _______ _____ _____    ______ ____
ROOT
ATOM      1  C   UNL     1      34.459  18.624  14.827  0.00  0.00    +0.112 C 
ATOM      2  C   UNL     1      35.494  17.496  14.776  0.00  0.00    +0.075 C 
ATOM      3  C   UNL     1      36.174  17.179  16.117  0.00  0.00    +0.113 C 
ATOM      4  C   UNL     1      35.383  16.210  17.034  0.00  0.00    +0.048 C 
ATOM      5  C   UNL     1      36.189  14.917  17.087  0.00  0.00    +0.004 C 
ATOM      6  C   UNL     1      37.623  15.368  16.896  0.00  0.00    +0.004 C 
ATOM      7  C   UNL     1      37.503  16.438  15.825  0.00  0.00    +0.048 C 
ATOM      8  O   UNL     1      36.506  18.376  16.845  0.00  0.00    -0.485 OA
ATOM      9  C   UNL     1      35.421  19.178  17.083  0.00  0.00    +0.126 A 
ATOM     10  C   UNL     1      35.383  19.869  18.293  0.00  0.00    +0.046 A 
ATOM     11  C   UNL     1      34.283  20.669  18.605  0.00  0.00    +0.004 A 
ATOM     12  C   UNL     1      33.232  20.794  17.700  0.00  0.00    +0.001 A 
ATOM     13  C   UNL     1      33.288  20.126  16.477  0.00  0.00    +0.009 A 
ATOM     14  C   UNL     1      34.387  19.310  16.160  0.00  0.00    +0.015 A 
ENDROOT
BRANCH   1  21
ATOM     15  N   UNL     1      34.207  23.093  10.404  0.00  0.00    -0.299 N 
ATOM     16  C   UNL     1      33.243  22.008  10.226  0.00  0.00    +0.127 C 
ATOM     17  C   UNL     1      33.887  20.634  10.383  0.00  0.00    +0.129 C 
ATOM     18  N   UNL     1      34.538  20.562  11.683  0.00  0.00    -0.275 N 
ATOM     19  C   UNL     1      34.135  19.602  12.583  0.00  0.00    +0.303 C 
ATOM     20  O   UNL     1      33.245  18.791  12.330  0.00  0.00    -0.253 OA
ATOM     21  N   UNL     1      34.759  19.618  13.797  0.00  0.00    -0.292 N 
ATOM     22  C   UNL     1      35.552  21.596  11.910  0.00  0.00    +0.205 C 
ATOM     23  C   UNL     1      35.358  22.935  11.168  0.00  0.00    +0.233 C 
ATOM     24  O   UNL     1      36.203  23.826  11.276  0.00  0.00    -0.274 OA
ATOM     25  H   UNL     1      35.681  20.019  13.850  0.00  0.00    +0.151 HD
BRANCH  15  27
ATOM     26  C   UNL     1      32.399  24.533   9.533  0.00  0.00    +0.024 C 
ATOM     27  C   UNL     1      33.877  24.406   9.859  0.00  0.00    +0.104 C 
ENDBRANCH  15  27
ENDBRANCH   1  21
TORSDOF 2
ENDMDL
