MODEL 1
REMARK VINA RESULT:      -7.1      0.000      0.000
REMARK  Name = ZINC000560333501
REMARK  5 active torsions:
REMARK  status: ('A' for Active; 'I' for Inactive)
REMARK    1  A    between atoms: C_2  and  C_3
REMARK    2  A    between atoms: C_7  and  C_8
REMARK    3  A    between atoms: C_8  and  C_9
REMARK    4  A    between atoms: N_11  and  C_12
REMARK    5  A    between atoms: C_12  and  C_13
REMARK                            x       y       z     vdW  Elec       q    Type
REMARK                         _______ _______ _______ _____ _____    ______ ____
ROOT
ATOM      1  C   UNL     1      14.077   6.701   6.940  0.00  0.00    +0.217 C 
ATOM      2  O   UNL     1      14.850   7.168   6.100  0.00  0.00    -0.275 OA
ATOM      3  N   UNL     1      13.485   5.456   6.815  0.00  0.00    -0.315 N 
ATOM      4  H   UNL     1      13.123   5.051   7.670  0.00  0.00    +0.149 HD
ENDROOT
BRANCH   1   5
ATOM      5  C   UNL     1      13.720   7.482   8.183  0.00  0.00    +0.131 C 
BRANCH   5  10
ATOM      6  C   UNL     1      12.056   5.787  11.192  0.00  0.00    +0.052 A 
ATOM      7  C   UNL     1      13.091   4.957  11.638  0.00  0.00    +0.019 A 
ATOM      8  C   UNL     1      14.321   4.968  10.982  0.00  0.00    +0.002 A 
ATOM      9  C   UNL     1      14.524   5.808   9.885  0.00  0.00    +0.004 A 
ATOM     10  C   UNL     1      13.501   6.652   9.429  0.00  0.00    -0.037 A 
ATOM     11  C   UNL     1      12.261   6.627  10.089  0.00  0.00    +0.023 A 
BRANCH   6  13
ATOM     12  N   UNL     1       9.754   5.732  12.388  0.00  0.00    -0.191 NA
ATOM     13  C   UNL     1      10.785   5.760  11.856  0.00  0.00    +0.099 C 
ENDBRANCH   6  13
ENDBRANCH   5  10
ENDBRANCH   1   5
BRANCH   3  14
ATOM     14  C   UNL     1      14.030   4.533   5.836  0.00  0.00    +0.108 C 
BRANCH  14  15
ATOM     15  C   UNL     1      15.463   4.030   6.090  0.00  0.00    +0.011 C 
ATOM     16  C   UNL     1      15.894   2.913   5.143  0.00  0.00    +0.033 C 
ATOM     17  C   UNL     1      14.987   1.701   5.294  0.00  0.00    +0.161 C 
ATOM     18  O   UNL     1      14.785   1.302   6.648  0.00  0.00    -0.373 OA
ATOM     19  C   UNL     1      14.652   2.278   7.722  0.00  0.00    +0.070 C 
ATOM     20  C   UNL     1      13.209   2.696   8.172  0.00  0.00    +0.035 C 
ATOM     21  C   UNL     1      13.216   1.522   9.151  0.00  0.00    +0.006 C 
ATOM     22  C   UNL     1      14.755   1.591   9.126  0.00  0.00    +0.035 C 
ATOM     23  C   UNL     1      15.601   3.466   7.520  0.00  0.00    +0.040 C 
ENDBRANCH  14  15
ENDBRANCH   3  14
TORSDOF 5
ENDMDL
MODEL 2
REMARK VINA RESULT:      -6.9      1.160      2.768
REMARK  Name = ZINC000560333501
REMARK  5 active torsions:
REMARK  status: ('A' for Active; 'I' for Inactive)
REMARK    1  A    between atoms: C_2  and  C_3
REMARK    2  A    between atoms: C_7  and  C_8
REMARK    3  A    between atoms: C_8  and  C_9
REMARK    4  A    between atoms: N_11  and  C_12
REMARK    5  A    between atoms: C_12  and  C_13
REMARK                            x       y       z     vdW  Elec       q    Type
REMARK                         _______ _______ _______ _____ _____    ______ ____
ROOT
ATOM      1  C   UNL     1      14.016   6.704   6.836  0.00  0.00    +0.217 C 
ATOM      2  O   UNL     1      14.997   7.024   6.161  0.00  0.00    -0.275 OA
ATOM      3  N   UNL     1      13.203   5.626   6.528  0.00  0.00    -0.315 N 
ATOM      4  H   UNL     1      12.629   5.275   7.284  0.00  0.00    +0.149 HD
ENDROOT
BRANCH   1   5
ATOM      5  C   UNL     1      13.631   7.491   8.067  0.00  0.00    +0.131 C 
BRANCH   5  10
ATOM      6  C   UNL     1      12.072   5.809  11.139  0.00  0.00    +0.052 A 
ATOM      7  C   UNL     1      13.133   5.005  11.571  0.00  0.00    +0.019 A 
ATOM      8  C   UNL     1      14.347   5.030  10.886  0.00  0.00    +0.002 A 
ATOM      9  C   UNL     1      14.508   5.857   9.773  0.00  0.00    +0.004 A 
ATOM     10  C   UNL     1      13.458   6.675   9.330  0.00  0.00    -0.037 A 
ATOM     11  C   UNL     1      12.235   6.636  10.019  0.00  0.00    +0.023 A 
BRANCH   6  13
ATOM     12  N   UNL     1       9.806   5.738  12.402  0.00  0.00    -0.191 NA
ATOM     13  C   UNL     1      10.818   5.768  11.833  0.00  0.00    +0.099 C 
ENDBRANCH   6  13
ENDBRANCH   5  10
ENDBRANCH   1   5
BRANCH   3  14
ATOM     14  C   UNL     1      13.695   4.648   5.574  0.00  0.00    +0.108 C 
BRANCH  14  15
ATOM     15  C   UNL     1      13.842   3.203   6.086  0.00  0.00    +0.011 C 
ATOM     16  C   UNL     1      14.797   3.069   7.269  0.00  0.00    +0.033 C 
ATOM     17  C   UNL     1      16.196   3.526   6.884  0.00  0.00    +0.161 C 
ATOM     18  O   UNL     1      16.667   2.964   5.661  0.00  0.00    -0.373 OA
ATOM     19  C   UNL     1      15.779   2.755   4.524  0.00  0.00    +0.070 C 
ATOM     20  C   UNL     1      15.736   3.850   3.403  0.00  0.00    +0.035 C 
ATOM     21  C   UNL     1      16.897   3.135   2.713  0.00  0.00    +0.006 C 
ATOM     22  C   UNL     1      16.456   1.850   3.439  0.00  0.00    +0.035 C 
ATOM     23  C   UNL     1      14.392   2.282   4.977  0.00  0.00    +0.040 C 
ENDBRANCH  14  15
ENDBRANCH   3  14
TORSDOF 5
ENDMDL
MODEL 3
REMARK VINA RESULT:      -6.9      2.413      5.630
REMARK  Name = ZINC000560333501
REMARK  5 active torsions:
REMARK  status: ('A' for Active; 'I' for Inactive)
REMARK    1  A    between atoms: C_2  and  C_3
REMARK    2  A    between atoms: C_7  and  C_8
REMARK    3  A    between atoms: C_8  and  C_9
REMARK    4  A    between atoms: N_11  and  C_12
REMARK    5  A    between atoms: C_12  and  C_13
REMARK                            x       y       z     vdW  Elec       q    Type
REMARK                         _______ _______ _______ _____ _____    ______ ____
ROOT
ATOM      1  C   UNL     1      13.502   3.678   6.148  0.00  0.00    +0.217 C 
ATOM      2  O   UNL     1      12.810   2.656   6.134  0.00  0.00    -0.275 OA
ATOM      3  N   UNL     1      13.053   4.889   6.646  0.00  0.00    -0.315 N 
ATOM      4  H   UNL     1      13.771   5.562   6.886  0.00  0.00    +0.149 HD
ENDROOT
BRANCH   1   5
ATOM      5  C   UNL     1      14.911   3.667   5.605  0.00  0.00    +0.131 C 
BRANCH   5  10
ATOM      6  C   UNL     1      17.387   3.897   8.523  0.00  0.00    +0.052 A 
ATOM      7  C   UNL     1      17.868   2.583   8.569  0.00  0.00    +0.019 A 
ATOM      8  C   UNL     1      17.410   1.643   7.647  0.00  0.00    +0.002 A 
ATOM      9  C   UNL     1      16.477   2.010   6.675  0.00  0.00    +0.004 A 
ATOM     10  C   UNL     1      15.990   3.322   6.609  0.00  0.00    -0.037 A 
ATOM     11  C   UNL     1      16.448   4.261   7.549  0.00  0.00    +0.023 A 
BRANCH   6  13
ATOM     12  N   UNL     1      18.222   5.635  10.258  0.00  0.00    -0.191 NA
ATOM     13  C   UNL     1      17.844   4.857   9.484  0.00  0.00    +0.099 C 
ENDBRANCH   6  13
ENDBRANCH   5  10
ENDBRANCH   1   5
BRANCH   3  14
ATOM     14  C   UNL     1      11.858   4.890   7.470  0.00  0.00    +0.108 C 
BRANCH  14  15
ATOM     15  C   UNL     1      11.129   6.239   7.621  0.00  0.00    +0.011 C 
ATOM     16  C   UNL     1      12.009   7.446   7.309  0.00  0.00    +0.033 C 
ATOM     17  C   UNL     1      13.200   7.501   8.254  0.00  0.00    +0.161 C 
ATOM     18  O   UNL     1      12.850   7.347   9.627  0.00  0.00    -0.373 OA
ATOM     19  C   UNL     1      11.800   6.429  10.051  0.00  0.00    +0.070 C 
ATOM     20  C   UNL     1      12.216   4.995  10.531  0.00  0.00    +0.035 C 
ATOM     21  C   UNL     1      12.384   5.559  11.942  0.00  0.00    +0.006 C 
ATOM     22  C   UNL     1      11.401   6.677  11.546  0.00  0.00    +0.035 C 
ATOM     23  C   UNL     1      10.624   6.431   9.067  0.00  0.00    +0.040 C 
ENDBRANCH  14  15
ENDBRANCH   3  14
TORSDOF 5
ENDMDL
MODEL 4
REMARK VINA RESULT:      -6.8      1.750      3.941
REMARK  Name = ZINC000560333501
REMARK  5 active torsions:
REMARK  status: ('A' for Active; 'I' for Inactive)
REMARK    1  A    between atoms: C_2  and  C_3
REMARK    2  A    between atoms: C_7  and  C_8
REMARK    3  A    between atoms: C_8  and  C_9
REMARK    4  A    between atoms: N_11  and  C_12
REMARK    5  A    between atoms: C_12  and  C_13
REMARK                            x       y       z     vdW  Elec       q    Type
REMARK                         _______ _______ _______ _____ _____    ______ ____
ROOT
ATOM      1  C   UNL     1      14.977   2.390   8.042  0.00  0.00    +0.217 C 
ATOM      2  O   UNL     1      15.216   1.393   7.356  0.00  0.00    -0.275 OA
ATOM      3  N   UNL     1      15.409   3.661   7.707  0.00  0.00    -0.315 N 
ATOM      4  H   UNL     1      14.920   4.427   8.153  0.00  0.00    +0.149 HD
ENDROOT
BRANCH   1   5
ATOM      5  C   UNL     1      14.182   2.277   9.321  0.00  0.00    +0.131 C 
BRANCH   5  10
ATOM      6  C   UNL     1      11.440   4.957   9.366  0.00  0.00    +0.052 A 
ATOM      7  C   UNL     1      11.789   5.676  10.515  0.00  0.00    +0.019 A 
ATOM      8  C   UNL     1      12.915   5.309  11.250  0.00  0.00    +0.002 A 
ATOM      9  C   UNL     1      13.698   4.228  10.840  0.00  0.00    +0.004 A 
ATOM     10  C   UNL     1      13.369   3.500   9.688  0.00  0.00    -0.037 A 
ATOM     11  C   UNL     1      12.226   3.870   8.959  0.00  0.00    +0.023 A 
BRANCH   6  13
ATOM     12  N   UNL     1       9.328   5.619   8.013  0.00  0.00    -0.191 NA
ATOM     13  C   UNL     1      10.271   5.323   8.623  0.00  0.00    +0.099 C 
ENDBRANCH   6  13
ENDBRANCH   5  10
ENDBRANCH   1   5
BRANCH   3  14
ATOM     14  C   UNL     1      15.879   3.890   6.352  0.00  0.00    +0.108 C 
BRANCH  14  15
ATOM     15  C   UNL     1      14.805   3.915   5.248  0.00  0.00    +0.011 C 
ATOM     16  C   UNL     1      15.271   4.587   3.959  0.00  0.00    +0.033 C 
ATOM     17  C   UNL     1      15.647   6.038   4.215  0.00  0.00    +0.161 C 
ATOM     18  O   UNL     1      14.667   6.762   4.954  0.00  0.00    -0.373 OA
ATOM     19  C   UNL     1      13.917   6.145   6.040  0.00  0.00    +0.070 C 
ATOM     20  C   UNL     1      14.428   6.353   7.509  0.00  0.00    +0.035 C 
ATOM     21  C   UNL     1      13.596   7.634   7.575  0.00  0.00    +0.006 C 
ATOM     22  C   UNL     1      12.704   7.038   6.470  0.00  0.00    +0.035 C 
ATOM     23  C   UNL     1      13.555   4.690   5.715  0.00  0.00    +0.040 C 
ENDBRANCH  14  15
ENDBRANCH   3  14
TORSDOF 5
ENDMDL
MODEL 5
REMARK VINA RESULT:      -6.8      2.192      3.908
REMARK  Name = ZINC000560333501
REMARK  5 active torsions:
REMARK  status: ('A' for Active; 'I' for Inactive)
REMARK    1  A    between atoms: C_2  and  C_3
REMARK    2  A    between atoms: C_7  and  C_8
REMARK    3  A    between atoms: C_8  and  C_9
REMARK    4  A    between atoms: N_11  and  C_12
REMARK    5  A    between atoms: C_12  and  C_13
REMARK                            x       y       z     vdW  Elec       q    Type
REMARK                         _______ _______ _______ _____ _____    ______ ____
ROOT
ATOM      1  C   UNL     1      14.867   4.289   9.918  0.00  0.00    +0.217 C 
ATOM      2  O   UNL     1      14.792   3.190   9.362  0.00  0.00    -0.275 OA
ATOM      3  N   UNL     1      15.355   5.423   9.292  0.00  0.00    -0.315 N 
ATOM      4  H   UNL     1      15.100   6.307   9.714  0.00  0.00    +0.149 HD
ENDROOT
BRANCH   1   5
ATOM      5  C   UNL     1      14.424   4.465  11.351  0.00  0.00    +0.131 C 
BRANCH   5  10
ATOM      6  C   UNL     1      10.919   5.840  10.626  0.00  0.00    +0.052 A 
ATOM      7  C   UNL     1      10.398   5.942  11.921  0.00  0.00    +0.019 A 
ATOM      8  C   UNL     1      11.187   5.590  13.016  0.00  0.00    +0.002 A 
ATOM      9  C   UNL     1      12.495   5.142  12.824  0.00  0.00    +0.004 A 
ATOM     10  C   UNL     1      13.036   5.041  11.534  0.00  0.00    -0.037 A 
ATOM     11  C   UNL     1      12.231   5.386  10.435  0.00  0.00    +0.023 A 
BRANCH   6  13
ATOM     12  N   UNL     1       9.434   6.466   8.592  0.00  0.00    -0.191 NA
ATOM     13  C   UNL     1      10.101   6.183   9.500  0.00  0.00    +0.099 C 
ENDBRANCH   6  13
ENDBRANCH   5  10
ENDBRANCH   1   5
BRANCH   3  14
ATOM     14  C   UNL     1      15.483   5.405   7.845  0.00  0.00    +0.108 C 
BRANCH  14  15
ATOM     15  C   UNL     1      14.714   6.495   7.074  0.00  0.00    +0.011 C 
ATOM     16  C   UNL     1      13.199   6.395   7.225  0.00  0.00    +0.033 C 
ATOM     17  C   UNL     1      12.693   5.063   6.693  0.00  0.00    +0.161 C 
ATOM     18  O   UNL     1      13.194   4.736   5.399  0.00  0.00    -0.373 OA
ATOM     19  C   UNL     1      14.562   5.048   5.007  0.00  0.00    +0.070 C 
ATOM     20  C   UNL     1      15.649   3.926   5.144  0.00  0.00    +0.035 C 
ATOM     21  C   UNL     1      15.284   3.454   3.737  0.00  0.00    +0.006 C 
ATOM     22  C   UNL     1      14.761   4.877   3.462  0.00  0.00    +0.035 C 
ATOM     23  C   UNL     1      15.008   6.407   5.562  0.00  0.00    +0.040 C 
ENDBRANCH  14  15
ENDBRANCH   3  14
TORSDOF 5
ENDMDL
MODEL 6
REMARK VINA RESULT:      -6.6      2.064      2.849
REMARK  Name = ZINC000560333501
REMARK  5 active torsions:
REMARK  status: ('A' for Active; 'I' for Inactive)
REMARK    1  A    between atoms: C_2  and  C_3
REMARK    2  A    between atoms: C_7  and  C_8
REMARK    3  A    between atoms: C_8  and  C_9
REMARK    4  A    between atoms: N_11  and  C_12
REMARK    5  A    between atoms: C_12  and  C_13
REMARK                            x       y       z     vdW  Elec       q    Type
REMARK                         _______ _______ _______ _____ _____    ______ ____
ROOT
ATOM      1  C   UNL     1      13.576   6.169   5.727  0.00  0.00    +0.217 C 
ATOM      2  O   UNL     1      13.938   6.760   4.706  0.00  0.00    -0.275 OA
ATOM      3  N   UNL     1      13.362   4.802   5.775  0.00  0.00    -0.315 N 
ATOM      4  H   UNL     1      13.365   4.385   6.698  0.00  0.00    +0.149 HD
ENDROOT
BRANCH   1   5
ATOM      5  C   UNL     1      13.336   6.921   7.014  0.00  0.00    +0.131 C 
BRANCH   5  10
ATOM      6  C   UNL     1      15.669   5.647   9.778  0.00  0.00    +0.052 A 
ATOM      7  C   UNL     1      14.744   5.129  10.691  0.00  0.00    +0.019 A 
ATOM      8  C   UNL     1      13.381   5.173  10.399  0.00  0.00    +0.002 A 
ATOM      9  C   UNL     1      12.938   5.727   9.197  0.00  0.00    +0.004 A 
ATOM     10  C   UNL     1      13.851   6.244   8.266  0.00  0.00    -0.037 A 
ATOM     11  C   UNL     1      15.221   6.206   8.573  0.00  0.00    +0.023 A 
BRANCH   6  13
ATOM     12  N   UNL     1      18.201   5.606  10.340  0.00  0.00    -0.191 NA
ATOM     13  C   UNL     1      17.068   5.620  10.087  0.00  0.00    +0.099 C 
ENDBRANCH   6  13
ENDBRANCH   5  10
ENDBRANCH   1   5
BRANCH   3  14
ATOM     14  C   UNL     1      13.884   3.989   4.691  0.00  0.00    +0.108 C 
BRANCH  14  15
ATOM     15  C   UNL     1      15.409   3.776   4.665  0.00  0.00    +0.011 C 
ATOM     16  C   UNL     1      15.841   2.547   3.869  0.00  0.00    +0.033 C 
ATOM     17  C   UNL     1      15.247   1.282   4.470  0.00  0.00    +0.161 C 
ATOM     18  O   UNL     1      15.424   1.181   5.881  0.00  0.00    -0.373 OA
ATOM     19  C   UNL     1      15.333   2.347   6.750  0.00  0.00    +0.070 C 
ATOM     20  C   UNL     1      13.967   2.639   7.462  0.00  0.00    +0.035 C 
ATOM     21  C   UNL     1      14.418   1.737   8.611  0.00  0.00    +0.006 C 
ATOM     22  C   UNL     1      15.870   2.027   8.186  0.00  0.00    +0.035 C 
ATOM     23  C   UNL     1      15.960   3.584   6.094  0.00  0.00    +0.040 C 
ENDBRANCH  14  15
ENDBRANCH   3  14
TORSDOF 5
ENDMDL
MODEL 7
REMARK VINA RESULT:      -6.6      2.275      3.694
REMARK  Name = ZINC000560333501
REMARK  5 active torsions:
REMARK  status: ('A' for Active; 'I' for Inactive)
REMARK    1  A    between atoms: C_2  and  C_3
REMARK    2  A    between atoms: C_7  and  C_8
REMARK    3  A    between atoms: C_8  and  C_9
REMARK    4  A    between atoms: N_11  and  C_12
REMARK    5  A    between atoms: C_12  and  C_13
REMARK                            x       y       z     vdW  Elec       q    Type
REMARK                         _______ _______ _______ _____ _____    ______ ____
ROOT
ATOM      1  C   UNL     1      13.926   4.156   8.900  0.00  0.00    +0.217 C 
ATOM      2  O   UNL     1      13.327   4.748   7.998  0.00  0.00    -0.275 OA
ATOM      3  N   UNL     1      14.115   2.785   8.910  0.00  0.00    -0.315 N 
ATOM      4  H   UNL     1      14.855   2.444   9.512  0.00  0.00    +0.149 HD
ENDROOT
BRANCH   1   5
ATOM      5  C   UNL     1      14.499   4.911  10.076  0.00  0.00    +0.131 C 
BRANCH   5  10
ATOM      6  C   UNL     1      13.216   4.546  13.670  0.00  0.00    +0.052 A 
ATOM      7  C   UNL     1      12.012   5.257  13.597  0.00  0.00    +0.019 A 
ATOM      8  C   UNL     1      11.613   5.826  12.388  0.00  0.00    +0.002 A 
ATOM      9  C   UNL     1      12.409   5.684  11.250  0.00  0.00    +0.004 A 
ATOM     10  C   UNL     1      13.614   4.969  11.302  0.00  0.00    -0.037 A 
ATOM     11  C   UNL     1      14.014   4.408  12.526  0.00  0.00    +0.023 A 
BRANCH   6  13
ATOM     12  N   UNL     1      13.980   3.515  15.925  0.00  0.00    -0.191 NA
ATOM     13  C   UNL     1      13.634   3.979  14.918  0.00  0.00    +0.099 C 
ENDBRANCH   6  13
ENDBRANCH   5  10
ENDBRANCH   1   5
BRANCH   3  14
ATOM     14  C   UNL     1      13.889   2.053   7.676  0.00  0.00    +0.108 C 
BRANCH  14  15
ATOM     15  C   UNL     1      14.865   0.900   7.374  0.00  0.00    +0.011 C 
ATOM     16  C   UNL     1      16.219   1.050   8.062  0.00  0.00    +0.033 C 
ATOM     17  C   UNL     1      16.915   2.323   7.605  0.00  0.00    +0.161 C 
ATOM     18  O   UNL     1      16.934   2.489   6.189  0.00  0.00    -0.373 OA
ATOM     19  C   UNL     1      15.801   2.104   5.358  0.00  0.00    +0.070 C 
ATOM     20  C   UNL     1      14.765   3.210   4.955  0.00  0.00    +0.035 C 
ATOM     21  C   UNL     1      15.634   3.526   3.738  0.00  0.00    +0.006 C 
ATOM     22  C   UNL     1      16.190   2.093   3.841  0.00  0.00    +0.035 C 
ATOM     23  C   UNL     1      15.153   0.807   5.861  0.00  0.00    +0.040 C 
ENDBRANCH  14  15
ENDBRANCH   3  14
TORSDOF 5
ENDMDL
MODEL 8
REMARK VINA RESULT:      -6.5      2.133      5.504
REMARK  Name = ZINC000560333501
REMARK  5 active torsions:
REMARK  status: ('A' for Active; 'I' for Inactive)
REMARK    1  A    between atoms: C_2  and  C_3
REMARK    2  A    between atoms: C_7  and  C_8
REMARK    3  A    between atoms: C_8  and  C_9
REMARK    4  A    between atoms: N_11  and  C_12
REMARK    5  A    between atoms: C_12  and  C_13
REMARK                            x       y       z     vdW  Elec       q    Type
REMARK                         _______ _______ _______ _____ _____    ______ ____
ROOT
ATOM      1  C   UNL     1      14.051   7.062   7.604  0.00  0.00    +0.217 C 
ATOM      2  O   UNL     1      13.289   7.963   7.963  0.00  0.00    -0.275 OA
ATOM      3  N   UNL     1      14.776   6.284   8.491  0.00  0.00    -0.315 N 
ATOM      4  H   UNL     1      15.123   5.405   8.128  0.00  0.00    +0.149 HD
ENDROOT
BRANCH   1   5
ATOM      5  C   UNL     1      14.246   6.749   6.139  0.00  0.00    +0.131 C 
BRANCH   5  10
ATOM      6  C   UNL     1      15.232   3.190   5.107  0.00  0.00    +0.052 A 
ATOM      7  C   UNL     1      14.016   2.517   5.276  0.00  0.00    +0.019 A 
ATOM      8  C   UNL     1      12.886   3.218   5.696  0.00  0.00    +0.002 A 
ATOM      9  C   UNL     1      12.964   4.590   5.945  0.00  0.00    +0.004 A 
ATOM     10  C   UNL     1      14.171   5.282   5.774  0.00  0.00    -0.037 A 
ATOM     11  C   UNL     1      15.307   4.567   5.360  0.00  0.00    +0.023 A 
BRANCH   6  13
ATOM     12  N   UNL     1      17.338   1.878   4.351  0.00  0.00    -0.191 NA
ATOM     13  C   UNL     1      16.397   2.465   4.694  0.00  0.00    +0.099 C 
ENDBRANCH   6  13
ENDBRANCH   5  10
ENDBRANCH   1   5
BRANCH   3  14
ATOM     14  C   UNL     1      14.393   6.305   9.891  0.00  0.00    +0.108 C 
BRANCH  14  15
ATOM     15  C   UNL     1      13.027   5.683  10.239  0.00  0.00    +0.011 C 
ATOM     16  C   UNL     1      12.873   5.337  11.717  0.00  0.00    +0.033 C 
ATOM     17  C   UNL     1      13.922   4.321  12.143  0.00  0.00    +0.161 C 
ATOM     18  O   UNL     1      14.023   3.200  11.268  0.00  0.00    -0.373 OA
ATOM     19  C   UNL     1      13.890   3.343   9.824  0.00  0.00    +0.070 C 
ATOM     20  C   UNL     1      15.197   3.475   8.967  0.00  0.00    +0.035 C 
ATOM     21  C   UNL     1      15.246   1.950   8.878  0.00  0.00    +0.006 C 
ATOM     22  C   UNL     1      13.727   1.948   9.130  0.00  0.00    +0.035 C 
ATOM     23  C   UNL     1      12.809   4.369   9.459  0.00  0.00    +0.040 C 
ENDBRANCH  14  15
ENDBRANCH   3  14
TORSDOF 5
ENDMDL
MODEL 9
REMARK VINA RESULT:      -6.5      2.277      5.345
REMARK  Name = ZINC000560333501
REMARK  5 active torsions:
REMARK  status: ('A' for Active; 'I' for Inactive)
REMARK    1  A    between atoms: C_2  and  C_3
REMARK    2  A    between atoms: C_7  and  C_8
REMARK    3  A    between atoms: C_8  and  C_9
REMARK    4  A    between atoms: N_11  and  C_12
REMARK    5  A    between atoms: C_12  and  C_13
REMARK                            x       y       z     vdW  Elec       q    Type
REMARK                         _______ _______ _______ _____ _____    ______ ____
ROOT
ATOM      1  C   UNL     1      14.597   5.893   9.829  0.00  0.00    +0.217 C 
ATOM      2  O   UNL     1      15.602   6.604   9.740  0.00  0.00    -0.275 OA
ATOM      3  N   UNL     1      13.365   6.256   9.314  0.00  0.00    -0.315 N 
ATOM      4  H   UNL     1      12.704   5.502   9.174  0.00  0.00    +0.149 HD
ENDROOT
BRANCH   1   5
ATOM      5  C   UNL     1      14.654   4.555  10.527  0.00  0.00    +0.131 C 
BRANCH   5  10
ATOM      6  C   UNL     1      15.489   2.174   7.640  0.00  0.00    +0.052 A 
ATOM      7  C   UNL     1      14.805   1.020   8.040  0.00  0.00    +0.019 A 
ATOM      8  C   UNL     1      14.063   1.026   9.220  0.00  0.00    +0.002 A 
ATOM      9  C   UNL     1      13.996   2.181  10.001  0.00  0.00    +0.004 A 
ATOM     10  C   UNL     1      14.669   3.348   9.613  0.00  0.00    -0.037 A 
ATOM     11  C   UNL     1      15.423   3.331   8.428  0.00  0.00    +0.023 A 
BRANCH   6  13
ATOM     12  N   UNL     1      16.899   2.142   5.463  0.00  0.00    -0.191 NA
ATOM     13  C   UNL     1      16.267   2.160   6.436  0.00  0.00    +0.099 C 
ENDBRANCH   6  13
ENDBRANCH   5  10
ENDBRANCH   1   5
BRANCH   3  14
ATOM     14  C   UNL     1      13.316   7.351   8.361  0.00  0.00    +0.108 C 
BRANCH  14  15
ATOM     15  C   UNL     1      12.171   7.314   7.331  0.00  0.00    +0.011 C 
ATOM     16  C   UNL     1      11.280   6.082   7.454  0.00  0.00    +0.033 C 
ATOM     17  C   UNL     1      12.086   4.811   7.235  0.00  0.00    +0.161 C 
ATOM     18  O   UNL     1      12.909   4.848   6.071  0.00  0.00    -0.373 OA
ATOM     19  C   UNL     1      13.598   6.065   5.659  0.00  0.00    +0.070 C 
ATOM     20  C   UNL     1      15.093   6.254   6.092  0.00  0.00    +0.035 C 
ATOM     21  C   UNL     1      15.513   5.509   4.825  0.00  0.00    +0.006 C 
ATOM     22  C   UNL     1      14.166   5.928   4.206  0.00  0.00    +0.035 C 
ATOM     23  C   UNL     1      12.728   7.307   5.892  0.00  0.00    +0.040 C 
ENDBRANCH  14  15
ENDBRANCH   3  14
TORSDOF 5
ENDMDL
