MODEL 1
REMARK VINA RESULT:      -6.1      0.000      0.000
REMARK  Name = ZINC001228612316
REMARK  5 active torsions:
REMARK  status: ('A' for Active; 'I' for Inactive)
REMARK    1  A    between atoms: C_2  and  C_4
REMARK    2  A    between atoms: C_8  and  O_9
REMARK    3  A    between atoms: O_9  and  C_10
REMARK    4  A    between atoms: C_10  and  C_11
REMARK    5  A    between atoms: C_10  and  C_17
REMARK                            x       y       z     vdW  Elec       q    Type
REMARK                         _______ _______ _______ _____ _____    ______ ____
ROOT
ATOM      1  C   UNL     1      33.400  21.903  10.799  0.00  0.00    +0.040 A 
ATOM      2  C   UNL     1      32.834  23.065  10.262  0.00  0.00    +0.013 A 
ATOM      3  C   UNL     1      32.437  24.103  11.105  0.00  0.00    +0.004 A 
ATOM      4  C   UNL     1      32.603  23.989  12.488  0.00  0.00    +0.046 A 
ATOM      5  C   UNL     1      33.163  22.835  13.035  0.00  0.00    +0.122 A 
ATOM      6  C   UNL     1      33.562  21.795  12.186  0.00  0.00    +0.058 A 
ENDROOT
BRANCH   1   8
ATOM      7  N   UNL     1      32.874  20.318   9.016  0.00  0.00    -0.325 N 
ATOM      8  C   UNL     1      33.824  20.832   9.857  0.00  0.00    +0.242 C 
ATOM      9  O   UNL     1      34.984  20.443   9.802  0.00  0.00    -0.270 OA
ATOM     10  H   UNL     1      33.206  19.669   8.314  0.00  0.00    +0.145 HD
ATOM     11  H   UNL     1      31.983  20.765   8.859  0.00  0.00    +0.145 HD
ENDBRANCH   1   8
BRANCH   5  12
ATOM     12  O   UNL     1      33.310  22.576  14.371  0.00  0.00    -0.484 OA
BRANCH  12  13
ATOM     13  C   UNL     1      32.506  21.546  14.969  0.00  0.00    +0.208 C 
BRANCH  13  14
ATOM     14  C   UNL     1      33.234  20.770  16.050  0.00  0.00    +0.011 A 
ATOM     15  C   UNL     1      33.212  21.129  17.400  0.00  0.00    +0.010 A 
ATOM     16  C   UNL     1      33.834  20.312  18.342  0.00  0.00    +0.020 A 
ATOM     17  C   UNL     1      34.459  19.156  17.902  0.00  0.00    +0.111 A 
ATOM     18  N   UNL     1      34.511  18.779  16.609  0.00  0.00    -0.263 NA
ATOM     19  C   UNL     1      33.898  19.589  15.718  0.00  0.00    +0.118 A 
ENDBRANCH  13  14
BRANCH  13  20
ATOM     20  C   UNL     1      31.277  22.176  15.615  0.00  0.00    +0.034 C 
ATOM     21  C   UNL     1      30.048  21.345  15.898  0.00  0.00    +0.008 C 
ATOM     22  C   UNL     1      29.990  22.435  14.863  0.00  0.00    +0.008 C 
ENDBRANCH  13  20
ENDBRANCH  12  13
ENDBRANCH   5  12
TORSDOF 5
ENDMDL
MODEL 2
REMARK VINA RESULT:      -5.9      1.965      6.256
REMARK  Name = ZINC001228612316
REMARK  5 active torsions:
REMARK  status: ('A' for Active; 'I' for Inactive)
REMARK    1  A    between atoms: C_2  and  C_4
REMARK    2  A    between atoms: C_8  and  O_9
REMARK    3  A    between atoms: O_9  and  C_10
REMARK    4  A    between atoms: C_10  and  C_11
REMARK    5  A    between atoms: C_10  and  C_17
REMARK                            x       y       z     vdW  Elec       q    Type
REMARK                         _______ _______ _______ _____ _____    ______ ____
ROOT
ATOM      1  C   UNL     1      34.633  18.775  17.395  0.00  0.00    +0.040 A 
ATOM      2  C   UNL     1      34.431  19.647  18.471  0.00  0.00    +0.013 A 
ATOM      3  C   UNL     1      33.828  20.887  18.262  0.00  0.00    +0.004 A 
ATOM      4  C   UNL     1      33.423  21.266  16.979  0.00  0.00    +0.046 A 
ATOM      5  C   UNL     1      33.622  20.407  15.898  0.00  0.00    +0.122 A 
ATOM      6  C   UNL     1      34.226  19.161  16.112  0.00  0.00    +0.058 A 
ENDROOT
BRANCH   1   8
ATOM      7  N   UNL     1      36.372  17.442  18.476  0.00  0.00    -0.325 N 
ATOM      8  C   UNL     1      35.263  17.456  17.672  0.00  0.00    +0.242 C 
ATOM      9  O   UNL     1      34.794  16.412  17.235  0.00  0.00    -0.270 OA
ATOM     10  H   UNL     1      36.720  16.528  18.737  0.00  0.00    +0.145 HD
ATOM     11  H   UNL     1      36.645  18.229  19.044  0.00  0.00    +0.145 HD
ENDBRANCH   1   8
BRANCH   5  12
ATOM     12  O   UNL     1      33.336  20.692  14.591  0.00  0.00    -0.484 OA
BRANCH  12  13
ATOM     13  C   UNL     1      32.426  21.764  14.298  0.00  0.00    +0.208 C 
BRANCH  13  14
ATOM     14  C   UNL     1      32.601  22.336  12.905  0.00  0.00    +0.011 A 
ATOM     15  C   UNL     1      32.203  23.628  12.550  0.00  0.00    +0.010 A 
ATOM     16  C   UNL     1      32.480  24.109  11.272  0.00  0.00    +0.020 A 
ATOM     17  C   UNL     1      33.151  23.280  10.387  0.00  0.00    +0.111 A 
ATOM     18  N   UNL     1      33.543  22.026  10.687  0.00  0.00    -0.263 NA
ATOM     19  C   UNL     1      33.263  21.586  11.933  0.00  0.00    +0.118 A 
ENDBRANCH  13  14
BRANCH  13  20
ATOM     20  C   UNL     1      30.993  21.252  14.401  0.00  0.00    +0.034 C 
ATOM     21  C   UNL     1      29.845  22.215  14.579  0.00  0.00    +0.008 C 
ATOM     22  C   UNL     1      30.201  21.265  15.689  0.00  0.00    +0.008 C 
ENDBRANCH  13  20
ENDBRANCH  12  13
ENDBRANCH   5  12
TORSDOF 5
ENDMDL
MODEL 3
REMARK VINA RESULT:      -5.9      2.327      2.620
REMARK  Name = ZINC001228612316
REMARK  5 active torsions:
REMARK  status: ('A' for Active; 'I' for Inactive)
REMARK    1  A    between atoms: C_2  and  C_4
REMARK    2  A    between atoms: C_8  and  O_9
REMARK    3  A    between atoms: O_9  and  C_10
REMARK    4  A    between atoms: C_10  and  C_11
REMARK    5  A    between atoms: C_10  and  C_17
REMARK                            x       y       z     vdW  Elec       q    Type
REMARK                         _______ _______ _______ _____ _____    ______ ____
ROOT
ATOM      1  C   UNL     1      34.226  24.740  11.215  0.00  0.00    +0.040 A 
ATOM      2  C   UNL     1      33.434  24.097  10.257  0.00  0.00    +0.013 A 
ATOM      3  C   UNL     1      32.608  23.037  10.630  0.00  0.00    +0.004 A 
ATOM      4  C   UNL     1      32.566  22.611  11.961  0.00  0.00    +0.046 A 
ATOM      5  C   UNL     1      33.354  23.242  12.924  0.00  0.00    +0.122 A 
ATOM      6  C   UNL     1      34.180  24.308  12.547  0.00  0.00    +0.058 A 
ENDROOT
BRANCH   1   8
ATOM      7  N   UNL     1      35.403  26.824  11.704  0.00  0.00    -0.325 N 
ATOM      8  C   UNL     1      35.076  25.877  10.771  0.00  0.00    +0.242 C 
ATOM      9  O   UNL     1      35.505  25.953   9.626  0.00  0.00    -0.270 OA
ATOM     10  H   UNL     1      36.067  27.528  11.409  0.00  0.00    +0.145 HD
ATOM     11  H   UNL     1      35.280  26.681  12.694  0.00  0.00    +0.145 HD
ENDBRANCH   1   8
BRANCH   5  12
ATOM     12  O   UNL     1      33.454  22.872  14.238  0.00  0.00    -0.484 OA
BRANCH  12  13
ATOM     13  C   UNL     1      32.580  21.847  14.738  0.00  0.00    +0.208 C 
BRANCH  13  14
ATOM     14  C   UNL     1      33.243  20.936  15.753  0.00  0.00    +0.011 A 
ATOM     15  C   UNL     1      33.230  21.182  17.128  0.00  0.00    +0.010 A 
ATOM     16  C   UNL     1      33.787  20.249  18.001  0.00  0.00    +0.020 A 
ATOM     17  C   UNL     1      34.337  19.094  17.468  0.00  0.00    +0.111 A 
ATOM     18  N   UNL     1      34.378  18.824  16.148  0.00  0.00    -0.263 NA
ATOM     19  C   UNL     1      33.830  19.745  15.326  0.00  0.00    +0.118 A 
ENDBRANCH  13  14
BRANCH  13  20
ATOM     20  C   UNL     1      31.383  22.496  15.426  0.00  0.00    +0.034 C 
ATOM     21  C   UNL     1      30.090  21.735  15.595  0.00  0.00    +0.008 C 
ATOM     22  C   UNL     1      30.139  22.931  14.683  0.00  0.00    +0.008 C 
ENDBRANCH  13  20
ENDBRANCH  12  13
ENDBRANCH   5  12
TORSDOF 5
ENDMDL
MODEL 4
REMARK VINA RESULT:      -5.9      3.067      6.646
REMARK  Name = ZINC001228612316
REMARK  5 active torsions:
REMARK  status: ('A' for Active; 'I' for Inactive)
REMARK    1  A    between atoms: C_2  and  C_4
REMARK    2  A    between atoms: C_8  and  O_9
REMARK    3  A    between atoms: O_9  and  C_10
REMARK    4  A    between atoms: C_10  and  C_11
REMARK    5  A    between atoms: C_10  and  C_17
REMARK                            x       y       z     vdW  Elec       q    Type
REMARK                         _______ _______ _______ _____ _____    ______ ____
ROOT
ATOM      1  C   UNL     1      31.275  22.298  14.169  0.00  0.00    +0.040 A 
ATOM      2  C   UNL     1      31.121  20.940  14.467  0.00  0.00    +0.013 A 
ATOM      3  C   UNL     1      32.038  20.009  13.979  0.00  0.00    +0.004 A 
ATOM      4  C   UNL     1      33.114  20.426  13.191  0.00  0.00    +0.046 A 
ATOM      5  C   UNL     1      33.276  21.777  12.884  0.00  0.00    +0.122 A 
ATOM      6  C   UNL     1      32.355  22.710  13.378  0.00  0.00    +0.058 A 
ENDROOT
BRANCH   1   8
ATOM      7  N   UNL     1      29.811  23.011  15.990  0.00  0.00    -0.325 N 
ATOM      8  C   UNL     1      30.281  23.254  14.728  0.00  0.00    +0.242 C 
ATOM      9  O   UNL     1      29.919  24.245  14.105  0.00  0.00    -0.270 OA
ATOM     10  H   UNL     1      29.219  23.728  16.390  0.00  0.00    +0.145 HD
ATOM     11  H   UNL     1      30.250  22.359  16.621  0.00  0.00    +0.145 HD
ENDBRANCH   1   8
BRANCH   5  12
ATOM     12  O   UNL     1      34.242  22.299  12.068  0.00  0.00    -0.484 OA
BRANCH  12  13
ATOM     13  C   UNL     1      33.842  23.115  10.955  0.00  0.00    +0.208 C 
BRANCH  13  14
ATOM     14  C   UNL     1      34.501  24.481  10.945  0.00  0.00    +0.011 A 
ATOM     15  C   UNL     1      34.456  25.362  12.029  0.00  0.00    +0.010 A 
ATOM     16  C   UNL     1      35.162  26.562  11.972  0.00  0.00    +0.020 A 
ATOM     17  C   UNL     1      35.895  26.842  10.831  0.00  0.00    +0.111 A 
ATOM     18  N   UNL     1      35.957  26.024   9.761  0.00  0.00    -0.263 NA
ATOM     19  C   UNL     1      35.264  24.868   9.844  0.00  0.00    +0.118 A 
ENDBRANCH  13  14
BRANCH  13  20
ATOM     20  C   UNL     1      34.228  22.417   9.654  0.00  0.00    +0.034 C 
ATOM     21  C   UNL     1      33.294  22.436   8.468  0.00  0.00    +0.008 C 
ATOM     22  C   UNL     1      33.574  21.140   9.177  0.00  0.00    +0.008 C 
ENDBRANCH  13  20
ENDBRANCH  12  13
ENDBRANCH   5  12
TORSDOF 5
ENDMDL
MODEL 5
REMARK VINA RESULT:      -5.8      1.454      2.012
REMARK  Name = ZINC001228612316
REMARK  5 active torsions:
REMARK  status: ('A' for Active; 'I' for Inactive)
REMARK    1  A    between atoms: C_2  and  C_4
REMARK    2  A    between atoms: C_8  and  O_9
REMARK    3  A    between atoms: O_9  and  C_10
REMARK    4  A    between atoms: C_10  and  C_11
REMARK    5  A    between atoms: C_10  and  C_17
REMARK                            x       y       z     vdW  Elec       q    Type
REMARK                         _______ _______ _______ _____ _____    ______ ____
ROOT
ATOM      1  C   UNL     1      33.169  22.427  10.488  0.00  0.00    +0.040 A 
ATOM      2  C   UNL     1      33.602  21.174  10.040  0.00  0.00    +0.013 A 
ATOM      3  C   UNL     1      33.868  20.157  10.956  0.00  0.00    +0.004 A 
ATOM      4  C   UNL     1      33.703  20.382  12.326  0.00  0.00    +0.046 A 
ATOM      5  C   UNL     1      33.276  21.628  12.785  0.00  0.00    +0.122 A 
ATOM      6  C   UNL     1      33.008  22.647  11.862  0.00  0.00    +0.058 A 
ENDROOT
BRANCH   1   8
ATOM      7  N   UNL     1      33.232  23.207   8.174  0.00  0.00    -0.325 N 
ATOM      8  C   UNL     1      32.881  23.473   9.471  0.00  0.00    +0.242 C 
ATOM      9  O   UNL     1      32.318  24.521   9.764  0.00  0.00    -0.270 OA
ATOM     10  H   UNL     1      32.932  23.885   7.484  0.00  0.00    +0.145 HD
ATOM     11  H   UNL     1      33.471  22.282   7.851  0.00  0.00    +0.145 HD
ENDBRANCH   1   8
BRANCH   5  12
ATOM     12  O   UNL     1      33.148  21.992  14.098  0.00  0.00    -0.484 OA
BRANCH  12  13
ATOM     13  C   UNL     1      32.366  21.164  14.974  0.00  0.00    +0.208 C 
BRANCH  13  14
ATOM     14  C   UNL     1      33.175  20.548  16.099  0.00  0.00    +0.011 A 
ATOM     15  C   UNL     1      33.143  21.019  17.414  0.00  0.00    +0.010 A 
ATOM     16  C   UNL     1      33.848  20.342  18.407  0.00  0.00    +0.020 A 
ATOM     17  C   UNL     1      34.564  19.210  18.052  0.00  0.00    +0.111 A 
ATOM     18  N   UNL     1      34.628  18.729  16.794  0.00  0.00    -0.263 NA
ATOM     19  C   UNL     1      33.934  19.404  15.852  0.00  0.00    +0.118 A 
ENDBRANCH  13  14
BRANCH  13  20
ATOM     20  C   UNL     1      31.266  22.004  15.614  0.00  0.00    +0.034 C 
ATOM     21  C   UNL     1      29.934  21.386  15.964  0.00  0.00    +0.008 C 
ATOM     22  C   UNL     1      30.013  22.424  14.878  0.00  0.00    +0.008 C 
ENDBRANCH  13  20
ENDBRANCH  12  13
ENDBRANCH   5  12
TORSDOF 5
ENDMDL
MODEL 6
REMARK VINA RESULT:      -5.7      3.560      6.304
REMARK  Name = ZINC001228612316
REMARK  5 active torsions:
REMARK  status: ('A' for Active; 'I' for Inactive)
REMARK    1  A    between atoms: C_2  and  C_4
REMARK    2  A    between atoms: C_8  and  O_9
REMARK    3  A    between atoms: O_9  and  C_10
REMARK    4  A    between atoms: C_10  and  C_11
REMARK    5  A    between atoms: C_10  and  C_17
REMARK                            x       y       z     vdW  Elec       q    Type
REMARK                         _______ _______ _______ _____ _____    ______ ____
ROOT
ATOM      1  C   UNL     1      31.165  21.196  15.789  0.00  0.00    +0.040 A 
ATOM      2  C   UNL     1      32.200  21.218  16.730  0.00  0.00    +0.013 A 
ATOM      3  C   UNL     1      33.385  20.525  16.483  0.00  0.00    +0.004 A 
ATOM      4  C   UNL     1      33.546  19.807  15.294  0.00  0.00    +0.046 A 
ATOM      5  C   UNL     1      32.519  19.774  14.350  0.00  0.00    +0.122 A 
ATOM      6  C   UNL     1      31.331  20.473  14.601  0.00  0.00    +0.058 A 
ENDROOT
BRANCH   1   8
ATOM      7  N   UNL     1      29.846  23.244  15.612  0.00  0.00    -0.325 N 
ATOM      8  C   UNL     1      29.928  21.965  16.092  0.00  0.00    +0.242 C 
ATOM      9  O   UNL     1      28.997  21.469  16.714  0.00  0.00    -0.270 OA
ATOM     10  H   UNL     1      28.956  23.710  15.738  0.00  0.00    +0.145 HD
ATOM     11  H   UNL     1      30.468  23.604  14.905  0.00  0.00    +0.145 HD
ENDBRANCH   1   8
BRANCH   5  12
ATOM     12  O   UNL     1      32.528  19.052  13.188  0.00  0.00    -0.484 OA
BRANCH  12  13
ATOM     13  C   UNL     1      33.781  18.824  12.523  0.00  0.00    +0.208 C 
BRANCH  13  14
ATOM     14  C   UNL     1      33.954  17.397  12.041  0.00  0.00    +0.011 A 
ATOM     15  C   UNL     1      34.151  17.059  10.699  0.00  0.00    +0.010 A 
ATOM     16  C   UNL     1      34.390  15.731  10.350  0.00  0.00    +0.020 A 
ATOM     17  C   UNL     1      34.427  14.781  11.357  0.00  0.00    +0.111 A 
ATOM     18  N   UNL     1      34.232  15.064  12.661  0.00  0.00    -0.263 NA
ATOM     19  C   UNL     1      34.004  16.359  12.971  0.00  0.00    +0.118 A 
ENDBRANCH  13  14
BRANCH  13  20
ATOM     20  C   UNL     1      33.874  19.730  11.300  0.00  0.00    +0.034 C 
ATOM     21  C   UNL     1      35.131  20.521  11.025  0.00  0.00    +0.008 C 
ATOM     22  C   UNL     1      33.860  21.240  11.387  0.00  0.00    +0.008 C 
ENDBRANCH  13  20
ENDBRANCH  12  13
ENDBRANCH   5  12
TORSDOF 5
ENDMDL
MODEL 7
REMARK VINA RESULT:      -5.7      1.782      2.407
REMARK  Name = ZINC001228612316
REMARK  5 active torsions:
REMARK  status: ('A' for Active; 'I' for Inactive)
REMARK    1  A    between atoms: C_2  and  C_4
REMARK    2  A    between atoms: C_8  and  O_9
REMARK    3  A    between atoms: O_9  and  C_10
REMARK    4  A    between atoms: C_10  and  C_11
REMARK    5  A    between atoms: C_10  and  C_17
REMARK                            x       y       z     vdW  Elec       q    Type
REMARK                         _______ _______ _______ _____ _____    ______ ____
ROOT
ATOM      1  C   UNL     1      33.463  22.404   9.359  0.00  0.00    +0.040 A 
ATOM      2  C   UNL     1      32.833  23.637   9.157  0.00  0.00    +0.013 A 
ATOM      3  C   UNL     1      32.409  24.393  10.249  0.00  0.00    +0.004 A 
ATOM      4  C   UNL     1      32.612  23.926  11.551  0.00  0.00    +0.046 A 
ATOM      5  C   UNL     1      33.235  22.696  11.765  0.00  0.00    +0.122 A 
ATOM      6  C   UNL     1      33.661  21.940  10.666  0.00  0.00    +0.058 A 
ENDROOT
BRANCH   1   8
ATOM      7  N   UNL     1      34.492  22.351   7.144  0.00  0.00    -0.325 N 
ATOM      8  C   UNL     1      33.913  21.643   8.163  0.00  0.00    +0.242 C 
ATOM      9  O   UNL     1      33.807  20.424   8.097  0.00  0.00    -0.270 OA
ATOM     10  H   UNL     1      34.885  21.803   6.389  0.00  0.00    +0.145 HD
ATOM     11  H   UNL     1      34.814  23.300   7.253  0.00  0.00    +0.145 HD
ENDBRANCH   1   8
BRANCH   5  12
ATOM     12  O   UNL     1      33.424  22.100  12.982  0.00  0.00    -0.484 OA
BRANCH  12  13
ATOM     13  C   UNL     1      32.538  21.041  13.380  0.00  0.00    +0.208 C 
BRANCH  13  14
ATOM     14  C   UNL     1      33.264  19.773  13.786  0.00  0.00    +0.011 A 
ATOM     15  C   UNL     1      33.264  18.607  13.015  0.00  0.00    +0.010 A 
ATOM     16  C   UNL     1      34.029  17.515  13.416  0.00  0.00    +0.020 A 
ATOM     17  C   UNL     1      34.776  17.623  14.578  0.00  0.00    +0.111 A 
ATOM     18  N   UNL     1      34.796  18.725  15.355  0.00  0.00    -0.263 NA
ATOM     19  C   UNL     1      34.046  19.769  14.941  0.00  0.00    +0.118 A 
ENDBRANCH  13  14
BRANCH  13  20
ATOM     20  C   UNL     1      31.715  21.495  14.580  0.00  0.00    +0.034 C 
ATOM     21  C   UNL     1      30.582  20.643  15.100  0.00  0.00    +0.008 C 
ATOM     22  C   UNL     1      30.285  21.975  14.467  0.00  0.00    +0.008 C 
ENDBRANCH  13  20
ENDBRANCH  12  13
ENDBRANCH   5  12
TORSDOF 5
ENDMDL
MODEL 8
REMARK VINA RESULT:      -5.6      4.100      6.052
REMARK  Name = ZINC001228612316
REMARK  5 active torsions:
REMARK  status: ('A' for Active; 'I' for Inactive)
REMARK    1  A    between atoms: C_2  and  C_4
REMARK    2  A    between atoms: C_8  and  O_9
REMARK    3  A    between atoms: O_9  and  C_10
REMARK    4  A    between atoms: C_10  and  C_11
REMARK    5  A    between atoms: C_10  and  C_17
REMARK                            x       y       z     vdW  Elec       q    Type
REMARK                         _______ _______ _______ _____ _____    ______ ____
ROOT
ATOM      1  C   UNL     1      31.181  21.348  15.965  0.00  0.00    +0.040 A 
ATOM      2  C   UNL     1      31.514  20.734  14.752  0.00  0.00    +0.013 A 
ATOM      3  C   UNL     1      32.692  19.995  14.643  0.00  0.00    +0.004 A 
ATOM      4  C   UNL     1      33.545  19.864  15.742  0.00  0.00    +0.046 A 
ATOM      5  C   UNL     1      33.227  20.476  16.955  0.00  0.00    +0.122 A 
ATOM      6  C   UNL     1      32.041  21.215  17.062  0.00  0.00    +0.058 A 
ENDROOT
BRANCH   1   8
ATOM      7  N   UNL     1      29.830  23.285  15.336  0.00  0.00    -0.325 N 
ATOM      8  C   UNL     1      29.905  22.110  16.035  0.00  0.00    +0.242 C 
ATOM      9  O   UNL     1      28.939  21.692  16.662  0.00  0.00    -0.270 OA
ATOM     10  H   UNL     1      28.922  23.731  15.312  0.00  0.00    +0.145 HD
ATOM     11  H   UNL     1      30.499  23.542  14.627  0.00  0.00    +0.145 HD
ENDBRANCH   1   8
BRANCH   5  12
ATOM     12  O   UNL     1      34.012  20.482  18.075  0.00  0.00    -0.484 OA
BRANCH  12  13
ATOM     13  C   UNL     1      35.237  21.233  18.059  0.00  0.00    +0.208 C 
BRANCH  13  14
ATOM     14  C   UNL     1      35.116  22.592  18.719  0.00  0.00    +0.011 A 
ATOM     15  C   UNL     1      34.734  23.748  18.033  0.00  0.00    +0.010 A 
ATOM     16  C   UNL     1      34.561  24.940  18.733  0.00  0.00    +0.020 A 
ATOM     17  C   UNL     1      34.774  24.939  20.102  0.00  0.00    +0.111 A 
ATOM     18  N   UNL     1      35.153  23.849  20.799  0.00  0.00    -0.263 NA
ATOM     19  C   UNL     1      35.312  22.707  20.096  0.00  0.00    +0.118 A 
ENDBRANCH  13  14
BRANCH  13  20
ATOM     20  C   UNL     1      36.314  20.458  18.811  0.00  0.00    +0.034 C 
ATOM     21  C   UNL     1      37.752  20.503  18.354  0.00  0.00    +0.008 C 
ATOM     22  C   UNL     1      36.978  19.217  18.257  0.00  0.00    +0.008 C 
ENDBRANCH  13  20
ENDBRANCH  12  13
ENDBRANCH   5  12
TORSDOF 5
ENDMDL
MODEL 9
REMARK VINA RESULT:      -5.6     22.953     25.788
REMARK  Name = ZINC001228612316
REMARK  5 active torsions:
REMARK  status: ('A' for Active; 'I' for Inactive)
REMARK    1  A    between atoms: C_2  and  C_4
REMARK    2  A    between atoms: C_8  and  O_9
REMARK    3  A    between atoms: O_9  and  C_10
REMARK    4  A    between atoms: C_10  and  C_11
REMARK    5  A    between atoms: C_10  and  C_17
REMARK                            x       y       z     vdW  Elec       q    Type
REMARK                         _______ _______ _______ _____ _____    ______ ____
ROOT
ATOM      1  C   UNL     1      17.951   4.296  29.218  0.00  0.00    +0.040 A 
ATOM      2  C   UNL     1      17.326   3.106  28.831  0.00  0.00    +0.013 A 
ATOM      3  C   UNL     1      17.789   2.403  27.719  0.00  0.00    +0.004 A 
ATOM      4  C   UNL     1      18.878   2.882  26.986  0.00  0.00    +0.046 A 
ATOM      5  C   UNL     1      19.506   4.070  27.359  0.00  0.00    +0.122 A 
ATOM      6  C   UNL     1      19.041   4.773  28.478  0.00  0.00    +0.058 A 
ENDROOT
BRANCH   1   8
ATOM      7  N   UNL     1      18.227   5.018  31.536  0.00  0.00    -0.325 N 
ATOM      8  C   UNL     1      17.432   5.000  30.421  0.00  0.00    +0.242 C 
ATOM      9  O   UNL     1      16.351   5.578  30.414  0.00  0.00    -0.270 OA
ATOM     10  H   UNL     1      17.902   5.590  32.305  0.00  0.00    +0.145 HD
ATOM     11  H   UNL     1      19.204   4.771  31.514  0.00  0.00    +0.145 HD
ENDBRANCH   1   8
BRANCH   5  12
ATOM     12  O   UNL     1      20.530   4.676  26.683  0.00  0.00    -0.484 OA
BRANCH  12  13
ATOM     13  C   UNL     1      21.867   4.554  27.195  0.00  0.00    +0.208 C 
BRANCH  13  14
ATOM     14  C   UNL     1      22.893   4.238  26.124  0.00  0.00    +0.011 A 
ATOM     15  C   UNL     1      23.089   5.033  24.991  0.00  0.00    +0.010 A 
ATOM     16  C   UNL     1      24.113   4.721  24.099  0.00  0.00    +0.020 A 
ATOM     17  C   UNL     1      24.913   3.623  24.370  0.00  0.00    +0.111 A 
ATOM     18  N   UNL     1      24.750   2.826  25.446  0.00  0.00    -0.263 NA
ATOM     19  C   UNL     1      23.752   3.152  26.294  0.00  0.00    +0.118 A 
ENDBRANCH  13  14
BRANCH  13  20
ATOM     20  C   UNL     1      22.281   5.870  27.845  0.00  0.00    +0.034 C 
ATOM     21  C   UNL     1      23.519   5.944  28.706  0.00  0.00    +0.008 C 
ATOM     22  C   UNL     1      22.163   6.132  29.330  0.00  0.00    +0.008 C 
ENDBRANCH  13  20
ENDBRANCH  12  13
ENDBRANCH   5  12
TORSDOF 5
ENDMDL
