MODEL 1
REMARK VINA RESULT:      -7.0      0.000      0.000
REMARK  Name = ZINC000583127796
REMARK  2 active torsions:
REMARK  status: ('A' for Active; 'I' for Inactive)
REMARK    1  A    between atoms: C_2  and  C_4
REMARK    2  A    between atoms: C_7  and  C_8
REMARK                            x       y       z     vdW  Elec       q    Type
REMARK                         _______ _______ _______ _____ _____    ______ ____
ROOT
ATOM      1  C   UNL     1      33.718  17.755  13.665  0.00  0.00    +0.247 C 
ATOM      2  O   UNL     1      34.571  17.844  12.784  0.00  0.00    -0.270 OA
ATOM      3  N   UNL     1      33.560  18.726  14.668  0.00  0.00    -0.297 N 
ATOM      4  C   UNL     1      32.572  18.708  15.750  0.00  0.00    +0.108 C 
ATOM      5  C   UNL     1      31.736  19.975  15.791  0.00  0.00    +0.020 C 
ATOM      6  C   UNL     1      32.607  21.217  15.779  0.00  0.00    +0.011 C 
ATOM      7  C   UNL     1      33.632  21.224  14.618  0.00  0.00    -0.004 C 
ATOM      8  C   UNL     1      34.525  22.469  14.812  0.00  0.00    +0.020 C 
ATOM      9  C   UNL     1      35.128  22.879  13.486  0.00  0.00    +0.070 C 
ATOM     10  S   UNL     1      33.785  22.663  12.307  0.00  0.00    -0.160 S 
ATOM     11  C   UNL     1      32.929  21.369  13.249  0.00  0.00    +0.077 C 
ATOM     12  C   UNL     1      34.446  19.901  14.664  0.00  0.00    +0.115 C 
ENDROOT
BRANCH   1  16
ATOM     13  C   UNL     1      31.288  14.243  13.424  0.00  0.00    +0.037 A 
ATOM     14  C   UNL     1      31.472  15.025  12.279  0.00  0.00    +0.014 A 
ATOM     15  C   UNL     1      32.165  16.235  12.367  0.00  0.00    +0.014 A 
ATOM     16  C   UNL     1      32.764  16.615  13.572  0.00  0.00    +0.037 A 
ATOM     17  C   UNL     1      32.490  15.885  14.737  0.00  0.00    +0.014 A 
ATOM     18  C   UNL     1      31.742  14.706  14.665  0.00  0.00    +0.014 A 
BRANCH  13  20
ATOM     19  N   UNL     1      30.246  12.480  12.113  0.00  0.00    -0.325 N 
ATOM     20  C   UNL     1      30.617  12.919  13.353  0.00  0.00    +0.242 C 
ATOM     21  O   UNL     1      30.454  12.233  14.350  0.00  0.00    -0.270 OA
ATOM     22  H   UNL     1      29.910  11.525  12.066  0.00  0.00    +0.145 HD
ATOM     23  H   UNL     1      30.614  12.887  11.265  0.00  0.00    +0.145 HD
ENDBRANCH  13  20
ENDBRANCH   1  16
TORSDOF 2
ENDMDL
MODEL 2
REMARK VINA RESULT:      -6.9      2.009      2.219
REMARK  Name = ZINC000583127796
REMARK  2 active torsions:
REMARK  status: ('A' for Active; 'I' for Inactive)
REMARK    1  A    between atoms: C_2  and  C_4
REMARK    2  A    between atoms: C_7  and  C_8
REMARK                            x       y       z     vdW  Elec       q    Type
REMARK                         _______ _______ _______ _____ _____    ______ ____
ROOT
ATOM      1  C   UNL     1      33.814  17.385  15.453  0.00  0.00    +0.247 C 
ATOM      2  O   UNL     1      34.941  16.922  15.620  0.00  0.00    -0.270 OA
ATOM      3  N   UNL     1      33.404  18.606  16.014  0.00  0.00    -0.297 N 
ATOM      4  C   UNL     1      32.090  19.236  15.864  0.00  0.00    +0.108 C 
ATOM      5  C   UNL     1      32.187  20.658  15.341  0.00  0.00    +0.020 C 
ATOM      6  C   UNL     1      33.173  21.483  16.147  0.00  0.00    +0.011 C 
ATOM      7  C   UNL     1      34.560  20.807  16.278  0.00  0.00    -0.004 C 
ATOM      8  C   UNL     1      35.404  21.688  17.225  0.00  0.00    +0.020 C 
ATOM      9  C   UNL     1      36.877  21.462  16.959  0.00  0.00    +0.070 C 
ATOM     10  S   UNL     1      36.987  21.357  15.166  0.00  0.00    -0.160 S 
ATOM     11  C   UNL     1      35.292  20.759  14.917  0.00  0.00    +0.077 C 
ATOM     12  C   UNL     1      34.363  19.368  16.831  0.00  0.00    +0.115 C 
ENDROOT
BRANCH   1  16
ATOM     13  C   UNL     1      31.452  14.960  12.837  0.00  0.00    +0.037 A 
ATOM     14  C   UNL     1      32.226  15.992  12.297  0.00  0.00    +0.014 A 
ATOM     15  C   UNL     1      32.911  16.866  13.146  0.00  0.00    +0.014 A 
ATOM     16  C   UNL     1      32.909  16.648  14.527  0.00  0.00    +0.037 A 
ATOM     17  C   UNL     1      32.052  15.680  15.070  0.00  0.00    +0.014 A 
ATOM     18  C   UNL     1      31.316  14.845  14.226  0.00  0.00    +0.014 A 
BRANCH  13  20
ATOM     19  N   UNL     1      30.634  12.703  12.452  0.00  0.00    -0.325 N 
ATOM     20  C   UNL     1      30.769  13.971  11.963  0.00  0.00    +0.242 C 
ATOM     21  O   UNL     1      30.303  14.293  10.881  0.00  0.00    -0.270 OA
ATOM     22  H   UNL     1      30.055  12.078  11.903  0.00  0.00    +0.145 HD
ATOM     23  H   UNL     1      30.752  12.487  13.432  0.00  0.00    +0.145 HD
ENDBRANCH  13  20
ENDBRANCH   1  16
TORSDOF 2
ENDMDL
MODEL 3
REMARK VINA RESULT:      -6.8      1.609      2.137
REMARK  Name = ZINC000583127796
REMARK  2 active torsions:
REMARK  status: ('A' for Active; 'I' for Inactive)
REMARK    1  A    between atoms: C_2  and  C_4
REMARK    2  A    between atoms: C_7  and  C_8
REMARK                            x       y       z     vdW  Elec       q    Type
REMARK                         _______ _______ _______ _____ _____    ______ ____
ROOT
ATOM      1  C   UNL     1      33.741  18.184  13.974  0.00  0.00    +0.247 C 
ATOM      2  O   UNL     1      33.598  18.951  13.024  0.00  0.00    -0.270 OA
ATOM      3  N   UNL     1      34.336  18.577  15.184  0.00  0.00    -0.297 N 
ATOM      4  C   UNL     1      34.541  17.738  16.368  0.00  0.00    +0.108 C 
ATOM      5  C   UNL     1      33.943  18.349  17.622  0.00  0.00    +0.020 C 
ATOM      6  C   UNL     1      34.388  19.788  17.808  0.00  0.00    +0.011 C 
ATOM      7  C   UNL     1      34.146  20.662  16.552  0.00  0.00    -0.004 C 
ATOM      8  C   UNL     1      34.763  22.047  16.841  0.00  0.00    +0.020 C 
ATOM      9  C   UNL     1      34.094  23.096  15.979  0.00  0.00    +0.070 C 
ATOM     10  S   UNL     1      32.353  22.642  16.007  0.00  0.00    -0.160 S 
ATOM     11  C   UNL     1      32.635  20.873  16.298  0.00  0.00    +0.077 C 
ATOM     12  C   UNL     1      34.802  19.966  15.327  0.00  0.00    +0.115 C 
ENDROOT
BRANCH   1  16
ATOM     13  C   UNL     1      31.781  14.432  13.357  0.00  0.00    +0.037 A 
ATOM     14  C   UNL     1      31.685  15.055  14.606  0.00  0.00    +0.014 A 
ATOM     15  C   UNL     1      32.413  16.220  14.861  0.00  0.00    +0.014 A 
ATOM     16  C   UNL     1      33.154  16.821  13.839  0.00  0.00    +0.037 A 
ATOM     17  C   UNL     1      33.331  16.142  12.625  0.00  0.00    +0.014 A 
ATOM     18  C   UNL     1      32.654  14.942  12.390  0.00  0.00    +0.014 A 
BRANCH  13  20
ATOM     19  N   UNL     1      30.292  13.248  11.842  0.00  0.00    -0.325 N 
ATOM     20  C   UNL     1      30.967  13.233  13.030  0.00  0.00    +0.242 C 
ATOM     21  O   UNL     1      30.945  12.258  13.765  0.00  0.00    -0.270 OA
ATOM     22  H   UNL     1      29.849  12.377  11.575  0.00  0.00    +0.145 HD
ATOM     23  H   UNL     1      30.513  13.904  11.105  0.00  0.00    +0.145 HD
ENDBRANCH  13  20
ENDBRANCH   1  16
TORSDOF 2
ENDMDL
MODEL 4
REMARK VINA RESULT:      -6.7      1.148      1.367
REMARK  Name = ZINC000583127796
REMARK  2 active torsions:
REMARK  status: ('A' for Active; 'I' for Inactive)
REMARK    1  A    between atoms: C_2  and  C_4
REMARK    2  A    between atoms: C_7  and  C_8
REMARK                            x       y       z     vdW  Elec       q    Type
REMARK                         _______ _______ _______ _____ _____    ______ ____
ROOT
ATOM      1  C   UNL     1      34.197  17.600  13.277  0.00  0.00    +0.247 C 
ATOM      2  O   UNL     1      35.278  17.329  12.757  0.00  0.00    -0.270 OA
ATOM      3  N   UNL     1      33.904  18.870  13.802  0.00  0.00    -0.297 N 
ATOM      4  C   UNL     1      32.647  19.284  14.430  0.00  0.00    +0.108 C 
ATOM      5  C   UNL     1      32.056  20.522  13.779  0.00  0.00    +0.020 C 
ATOM      6  C   UNL     1      33.080  21.636  13.666  0.00  0.00    +0.011 C 
ATOM      7  C   UNL     1      34.394  21.181  12.984  0.00  0.00    -0.004 C 
ATOM      8  C   UNL     1      35.377  22.369  13.060  0.00  0.00    +0.020 C 
ATOM      9  C   UNL     1      36.410  22.252  11.960  0.00  0.00    +0.070 C 
ATOM     10  S   UNL     1      35.468  21.697  10.531  0.00  0.00    -0.160 S 
ATOM     11  C   UNL     1      34.169  20.864  11.487  0.00  0.00    +0.077 C 
ATOM     12  C   UNL     1      34.930  19.923  13.723  0.00  0.00    +0.115 C 
ENDROOT
BRANCH   1  16
ATOM     13  C   UNL     1      31.442  14.328  13.281  0.00  0.00    +0.037 A 
ATOM     14  C   UNL     1      31.891  14.840  12.059  0.00  0.00    +0.014 A 
ATOM     15  C   UNL     1      32.698  15.980  12.037  0.00  0.00    +0.014 A 
ATOM     16  C   UNL     1      33.142  16.548  13.235  0.00  0.00    +0.037 A 
ATOM     17  C   UNL     1      32.608  16.099  14.451  0.00  0.00    +0.014 A 
ATOM     18  C   UNL     1      31.749  14.997  14.472  0.00  0.00    +0.014 A 
BRANCH  13  20
ATOM     19  N   UNL     1      30.296  12.503  12.154  0.00  0.00    -0.325 N 
ATOM     20  C   UNL     1      30.641  13.078  13.345  0.00  0.00    +0.242 C 
ATOM     21  O   UNL     1      30.351  12.560  14.413  0.00  0.00    -0.270 OA
ATOM     22  H   UNL     1      29.865  11.588  12.214  0.00  0.00    +0.145 HD
ATOM     23  H   UNL     1      30.752  12.747  11.286  0.00  0.00    +0.145 HD
ENDBRANCH  13  20
ENDBRANCH   1  16
TORSDOF 2
ENDMDL
MODEL 5
REMARK VINA RESULT:      -6.7      3.593      6.390
REMARK  Name = ZINC000583127796
REMARK  2 active torsions:
REMARK  status: ('A' for Active; 'I' for Inactive)
REMARK    1  A    between atoms: C_2  and  C_4
REMARK    2  A    between atoms: C_7  and  C_8
REMARK                            x       y       z     vdW  Elec       q    Type
REMARK                         _______ _______ _______ _____ _____    ______ ____
ROOT
ATOM      1  C   UNL     1      33.304  18.146  14.138  0.00  0.00    +0.247 C 
ATOM      2  O   UNL     1      32.521  17.318  13.676  0.00  0.00    -0.270 OA
ATOM      3  N   UNL     1      34.697  18.032  13.998  0.00  0.00    -0.297 N 
ATOM      4  C   UNL     1      35.703  18.968  14.506  0.00  0.00    +0.108 C 
ATOM      5  C   UNL     1      36.641  19.457  13.417  0.00  0.00    +0.020 C 
ATOM      6  C   UNL     1      37.225  18.303  12.624  0.00  0.00    +0.011 C 
ATOM      7  C   UNL     1      36.143  17.336  12.081  0.00  0.00    -0.004 C 
ATOM      8  C   UNL     1      36.886  16.155  11.419  0.00  0.00    +0.020 C 
ATOM      9  C   UNL     1      35.991  15.498  10.390  0.00  0.00    +0.070 C 
ATOM     10  S   UNL     1      35.175  16.879   9.574  0.00  0.00    -0.160 S 
ATOM     11  C   UNL     1      35.284  18.011  10.988  0.00  0.00    +0.077 C 
ATOM     12  C   UNL     1      35.244  16.879  13.263  0.00  0.00    +0.115 C 
ENDROOT
BRANCH   1  16
ATOM     13  C   UNL     1      31.270  21.431  15.972  0.00  0.00    +0.037 A 
ATOM     14  C   UNL     1      31.636  21.522  14.625  0.00  0.00    +0.014 A 
ATOM     15  C   UNL     1      32.402  20.508  14.042  0.00  0.00    +0.014 A 
ATOM     16  C   UNL     1      32.714  19.357  14.772  0.00  0.00    +0.037 A 
ATOM     17  C   UNL     1      32.437  19.317  16.146  0.00  0.00    +0.014 A 
ATOM     18  C   UNL     1      31.725  20.359  16.747  0.00  0.00    +0.014 A 
BRANCH  13  20
ATOM     19  N   UNL     1      30.838  23.749  16.569  0.00  0.00    -0.325 N 
ATOM     20  C   UNL     1      30.397  22.455  16.603  0.00  0.00    +0.242 C 
ATOM     21  O   UNL     1      29.313  22.161  17.082  0.00  0.00    -0.270 OA
ATOM     22  H   UNL     1      30.176  24.448  16.886  0.00  0.00    +0.145 HD
ATOM     23  H   UNL     1      31.574  24.051  15.947  0.00  0.00    +0.145 HD
ENDBRANCH  13  20
ENDBRANCH   1  16
TORSDOF 2
ENDMDL
MODEL 6
REMARK VINA RESULT:      -6.6      2.196      3.047
REMARK  Name = ZINC000583127796
REMARK  2 active torsions:
REMARK  status: ('A' for Active; 'I' for Inactive)
REMARK    1  A    between atoms: C_2  and  C_4
REMARK    2  A    between atoms: C_7  and  C_8
REMARK                            x       y       z     vdW  Elec       q    Type
REMARK                         _______ _______ _______ _____ _____    ______ ____
ROOT
ATOM      1  C   UNL     1      33.409  18.100  13.894  0.00  0.00    +0.247 C 
ATOM      2  O   UNL     1      32.603  19.025  13.969  0.00  0.00    -0.270 OA
ATOM      3  N   UNL     1      34.793  18.284  14.049  0.00  0.00    -0.297 N 
ATOM      4  C   UNL     1      35.823  17.244  13.984  0.00  0.00    +0.108 C 
ATOM      5  C   UNL     1      36.701  17.221  15.222  0.00  0.00    +0.020 C 
ATOM      6  C   UNL     1      37.244  18.600  15.547  0.00  0.00    +0.011 C 
ATOM      7  C   UNL     1      36.137  19.680  15.629  0.00  0.00    -0.004 C 
ATOM      8  C   UNL     1      36.845  21.037  15.831  0.00  0.00    +0.020 C 
ATOM      9  C   UNL     1      35.897  22.017  16.489  0.00  0.00    +0.070 C 
ATOM     10  S   UNL     1      35.037  21.032  17.725  0.00  0.00    -0.160 S 
ATOM     11  C   UNL     1      35.219  19.452  16.852  0.00  0.00    +0.077 C 
ATOM     12  C   UNL     1      35.302  19.639  14.319  0.00  0.00    +0.115 C 
ENDROOT
BRANCH   1  16
ATOM     13  C   UNL     1      31.484  14.326  13.303  0.00  0.00    +0.037 A 
ATOM     14  C   UNL     1      31.656  14.808  14.605  0.00  0.00    +0.014 A 
ATOM     15  C   UNL     1      32.384  15.980  14.823  0.00  0.00    +0.014 A 
ATOM     16  C   UNL     1      32.851  16.727  13.737  0.00  0.00    +0.037 A 
ATOM     17  C   UNL     1      32.769  16.190  12.445  0.00  0.00    +0.014 A 
ATOM     18  C   UNL     1      32.096  14.984  12.230  0.00  0.00    +0.014 A 
BRANCH  13  20
ATOM     19  N   UNL     1      30.041  13.057  11.812  0.00  0.00    -0.325 N 
ATOM     20  C   UNL     1      30.656  13.122  13.030  0.00  0.00    +0.242 C 
ATOM     21  O   UNL     1      30.574  12.209  13.838  0.00  0.00    -0.270 OA
ATOM     22  H   UNL     1      29.590  12.177  11.592  0.00  0.00    +0.145 HD
ATOM     23  H   UNL     1      30.315  13.647  11.038  0.00  0.00    +0.145 HD
ENDBRANCH  13  20
ENDBRANCH   1  16
TORSDOF 2
ENDMDL
MODEL 7
REMARK VINA RESULT:      -6.4      1.908      2.666
REMARK  Name = ZINC000583127796
REMARK  2 active torsions:
REMARK  status: ('A' for Active; 'I' for Inactive)
REMARK    1  A    between atoms: C_2  and  C_4
REMARK    2  A    between atoms: C_7  and  C_8
REMARK                            x       y       z     vdW  Elec       q    Type
REMARK                         _______ _______ _______ _____ _____    ______ ____
ROOT
ATOM      1  C   UNL     1      34.169  19.294  15.287  0.00  0.00    +0.247 C 
ATOM      2  O   UNL     1      35.287  19.336  15.799  0.00  0.00    -0.270 OA
ATOM      3  N   UNL     1      33.311  20.405  15.248  0.00  0.00    -0.297 N 
ATOM      4  C   UNL     1      31.971  20.450  14.656  0.00  0.00    +0.108 C 
ATOM      5  C   UNL     1      31.826  21.565  13.636  0.00  0.00    +0.020 C 
ATOM      6  C   UNL     1      32.294  22.896  14.195  0.00  0.00    +0.011 C 
ATOM      7  C   UNL     1      33.718  22.831  14.798  0.00  0.00    -0.004 C 
ATOM      8  C   UNL     1      34.000  24.207  15.439  0.00  0.00    +0.020 C 
ATOM      9  C   UNL     1      35.494  24.439  15.520  0.00  0.00    +0.070 C 
ATOM     10  S   UNL     1      36.121  23.806  13.956  0.00  0.00    -0.160 S 
ATOM     11  C   UNL     1      34.784  22.606  13.701  0.00  0.00    +0.077 C 
ATOM     12  C   UNL     1      33.767  21.675  15.836  0.00  0.00    +0.115 C 
ENDROOT
BRANCH   1  16
ATOM     13  C   UNL     1      32.837  15.880  13.082  0.00  0.00    +0.037 A 
ATOM     14  C   UNL     1      32.394  16.058  14.397  0.00  0.00    +0.014 A 
ATOM     15  C   UNL     1      32.909  17.102  15.169  0.00  0.00    +0.014 A 
ATOM     16  C   UNL     1      33.786  18.030  14.599  0.00  0.00    +0.037 A 
ATOM     17  C   UNL     1      34.307  17.790  13.319  0.00  0.00    +0.014 A 
ATOM     18  C   UNL     1      33.841  16.708  12.566  0.00  0.00    +0.014 A 
BRANCH  13  20
ATOM     19  N   UNL     1      32.726  13.552  12.388  0.00  0.00    -0.325 N 
ATOM     20  C   UNL     1      32.259  14.824  12.211  0.00  0.00    +0.242 C 
ATOM     21  O   UNL     1      31.370  15.073  11.411  0.00  0.00    -0.270 OA
ATOM     22  H   UNL     1      32.233  12.826  11.881  0.00  0.00    +0.145 HD
ATOM     23  H   UNL     1      33.240  13.276  13.213  0.00  0.00    +0.145 HD
ENDBRANCH  13  20
ENDBRANCH   1  16
TORSDOF 2
ENDMDL
MODEL 8
REMARK VINA RESULT:      -6.4      4.914      9.458
REMARK  Name = ZINC000583127796
REMARK  2 active torsions:
REMARK  status: ('A' for Active; 'I' for Inactive)
REMARK    1  A    between atoms: C_2  and  C_4
REMARK    2  A    between atoms: C_7  and  C_8
REMARK                            x       y       z     vdW  Elec       q    Type
REMARK                         _______ _______ _______ _____ _____    ______ ____
ROOT
ATOM      1  C   UNL     1      34.937  22.814  15.871  0.00  0.00    +0.247 C 
ATOM      2  O   UNL     1      36.023  22.374  15.498  0.00  0.00    -0.270 OA
ATOM      3  N   UNL     1      33.719  22.186  15.566  0.00  0.00    -0.297 N 
ATOM      4  C   UNL     1      32.383  22.631  15.972  0.00  0.00    +0.108 C 
ATOM      5  C   UNL     1      31.608  21.548  16.700  0.00  0.00    +0.020 C 
ATOM      6  C   UNL     1      31.608  20.245  15.922  0.00  0.00    +0.011 C 
ATOM      7  C   UNL     1      33.030  19.782  15.519  0.00  0.00    -0.004 C 
ATOM      8  C   UNL     1      32.863  18.531  14.631  0.00  0.00    +0.020 C 
ATOM      9  C   UNL     1      34.125  17.696  14.677  0.00  0.00    +0.070 C 
ATOM     10  S   UNL     1      34.628  17.759  16.404  0.00  0.00    -0.160 S 
ATOM     11  C   UNL     1      33.857  19.363  16.757  0.00  0.00    +0.077 C 
ATOM     12  C   UNL     1      33.739  20.946  14.772  0.00  0.00    +0.115 C 
ENDROOT
BRANCH   1  16
ATOM     13  C   UNL     1      35.366  26.295  18.320  0.00  0.00    +0.037 A 
ATOM     14  C   UNL     1      35.390  25.032  18.920  0.00  0.00    +0.014 A 
ATOM     15  C   UNL     1      35.136  23.892  18.153  0.00  0.00    +0.014 A 
ATOM     16  C   UNL     1      34.961  24.002  16.770  0.00  0.00    +0.037 A 
ATOM     17  C   UNL     1      34.834  25.272  16.190  0.00  0.00    +0.014 A 
ATOM     18  C   UNL     1      35.025  26.418  16.968  0.00  0.00    +0.014 A 
BRANCH  13  20
ATOM     19  N   UNL     1      34.839  27.877  20.090  0.00  0.00    -0.325 N 
ATOM     20  C   UNL     1      35.701  27.520  19.091  0.00  0.00    +0.242 C 
ATOM     21  O   UNL     1      36.727  28.148  18.876  0.00  0.00    -0.270 OA
ATOM     22  H   UNL     1      35.147  28.636  20.687  0.00  0.00    +0.145 HD
ATOM     23  H   UNL     1      34.155  27.237  20.465  0.00  0.00    +0.145 HD
ENDBRANCH  13  20
ENDBRANCH   1  16
TORSDOF 2
ENDMDL
MODEL 9
REMARK VINA RESULT:      -6.3      4.405      6.987
REMARK  Name = ZINC000583127796
REMARK  2 active torsions:
REMARK  status: ('A' for Active; 'I' for Inactive)
REMARK    1  A    between atoms: C_2  and  C_4
REMARK    2  A    between atoms: C_7  and  C_8
REMARK                            x       y       z     vdW  Elec       q    Type
REMARK                         _______ _______ _______ _____ _____    ______ ____
ROOT
ATOM      1  C   UNL     1      34.078  20.356  12.722  0.00  0.00    +0.247 C 
ATOM      2  O   UNL     1      35.052  19.673  13.032  0.00  0.00    -0.270 OA
ATOM      3  N   UNL     1      32.939  20.467  13.536  0.00  0.00    -0.297 N 
ATOM      4  C   UNL     1      31.739  21.259  13.253  0.00  0.00    +0.108 C 
ATOM      5  C   UNL     1      31.405  22.224  14.377  0.00  0.00    +0.020 C 
ATOM      6  C   UNL     1      31.372  21.522  15.722  0.00  0.00    +0.011 C 
ATOM      7  C   UNL     1      32.656  20.705  16.009  0.00  0.00    -0.004 C 
ATOM      8  C   UNL     1      32.423  19.950  17.335  0.00  0.00    +0.020 C 
ATOM      9  C   UNL     1      33.753  19.621  17.979  0.00  0.00    +0.070 C 
ATOM     10  S   UNL     1      34.745  21.100  17.716  0.00  0.00    -0.160 S 
ATOM     11  C   UNL     1      33.877  21.632  16.214  0.00  0.00    +0.077 C 
ATOM     12  C   UNL     1      32.909  19.741  14.817  0.00  0.00    +0.115 C 
ENDROOT
BRANCH   1  16
ATOM     13  C   UNL     1      34.028  22.805   9.215  0.00  0.00    +0.037 A 
ATOM     14  C   UNL     1      33.991  21.414   9.076  0.00  0.00    +0.014 A 
ATOM     15  C   UNL     1      34.123  20.598  10.203  0.00  0.00    +0.014 A 
ATOM     16  C   UNL     1      34.189  21.168  11.478  0.00  0.00    +0.037 A 
ATOM     17  C   UNL     1      34.330  22.558  11.605  0.00  0.00    +0.014 A 
ATOM     18  C   UNL     1      34.262  23.374  10.473  0.00  0.00    +0.014 A 
BRANCH  13  20
ATOM     19  N   UNL     1      32.537  24.105   7.800  0.00  0.00    -0.325 N 
ATOM     20  C   UNL     1      33.819  23.701   8.049  0.00  0.00    +0.242 C 
ATOM     21  O   UNL     1      34.757  24.101   7.376  0.00  0.00    -0.270 OA
ATOM     22  H   UNL     1      32.429  24.815   7.085  0.00  0.00    +0.145 HD
ATOM     23  H   UNL     1      31.803  24.022   8.489  0.00  0.00    +0.145 HD
ENDBRANCH  13  20
ENDBRANCH   1  16
TORSDOF 2
ENDMDL
