MODEL 1
REMARK VINA RESULT:      -6.4      0.000      0.000
REMARK  Name = ZINC000329563636
REMARK  3 active torsions:
REMARK  status: ('A' for Active; 'I' for Inactive)
REMARK    1  A    between atoms: C_1  and  C_2
REMARK    2  A    between atoms: C_2  and  N_3
REMARK    3  A    between atoms: N_9  and  C_10
REMARK                            x       y       z     vdW  Elec       q    Type
REMARK                         _______ _______ _______ _____ _____    ______ ____
ROOT
ATOM      1  C   UNL     1      34.747  22.399  12.193  0.00  0.00    +0.112 C 
ATOM      2  C   UNL     1      35.059  21.512  13.402  0.00  0.00    +0.075 C 
ATOM      3  C   UNL     1      33.911  21.366  14.412  0.00  0.00    +0.113 C 
ATOM      4  C   UNL     1      32.873  20.268  14.063  0.00  0.00    +0.048 C 
ATOM      5  C   UNL     1      33.038  19.173  15.111  0.00  0.00    +0.004 C 
ATOM      6  C   UNL     1      33.526  19.911  16.342  0.00  0.00    +0.004 C 
ATOM      7  C   UNL     1      34.511  20.915  15.769  0.00  0.00    +0.048 C 
ATOM      8  O   UNL     1      33.237  22.618  14.642  0.00  0.00    -0.485 OA
ATOM      9  C   UNL     1      32.742  23.179  13.494  0.00  0.00    +0.126 A 
ATOM     10  C   UNL     1      31.532  23.866  13.583  0.00  0.00    +0.046 A 
ATOM     11  C   UNL     1      30.961  24.423  12.438  0.00  0.00    +0.004 A 
ATOM     12  C   UNL     1      31.609  24.311  11.210  0.00  0.00    +0.001 A 
ATOM     13  C   UNL     1      32.834  23.650  11.131  0.00  0.00    +0.009 A 
ATOM     14  C   UNL     1      33.411  23.077  12.278  0.00  0.00    +0.015 A 
ENDROOT
BRANCH   1  21
ATOM     15  N   UNL     1      38.375  27.186  10.314  0.00  0.00    -0.299 N 
ATOM     16  C   UNL     1      37.986  26.263   9.248  0.00  0.00    +0.127 C 
ATOM     17  C   UNL     1      38.188  24.804   9.646  0.00  0.00    +0.129 C 
ATOM     18  N   UNL     1      37.451  24.543  10.874  0.00  0.00    -0.275 N 
ATOM     19  C   UNL     1      36.465  23.582  10.872  0.00  0.00    +0.303 C 
ATOM     20  O   UNL     1      36.183  22.927   9.870  0.00  0.00    -0.253 OA
ATOM     21  N   UNL     1      35.787  23.417  12.045  0.00  0.00    -0.292 N 
ATOM     22  C   UNL     1      37.826  25.403  11.999  0.00  0.00    +0.205 C 
ATOM     23  C   UNL     1      38.359  26.809  11.652  0.00  0.00    +0.233 C 
ATOM     24  O   UNL     1      38.739  27.562  12.552  0.00  0.00    -0.274 OA
ATOM     25  H   UNL     1      36.249  23.679  12.899  0.00  0.00    +0.151 HD
BRANCH  15  27
ATOM     26  C   UNL     1      37.441  29.297   9.438  0.00  0.00    +0.024 C 
ATOM     27  C   UNL     1      38.669  28.569   9.957  0.00  0.00    +0.104 C 
ENDBRANCH  15  27
ENDBRANCH   1  21
TORSDOF 2
ENDMDL
MODEL 2
REMARK VINA RESULT:      -6.3      6.083      9.396
REMARK  Name = ZINC000329563636
REMARK  3 active torsions:
REMARK  status: ('A' for Active; 'I' for Inactive)
REMARK    1  A    between atoms: C_1  and  C_2
REMARK    2  A    between atoms: C_2  and  N_3
REMARK    3  A    between atoms: N_9  and  C_10
REMARK                            x       y       z     vdW  Elec       q    Type
REMARK                         _______ _______ _______ _____ _____    ______ ____
ROOT
ATOM      1  C   UNL     1      34.535  19.116  14.294  0.00  0.00    +0.112 C 
ATOM      2  C   UNL     1      33.351  20.083  14.207  0.00  0.00    +0.075 C 
ATOM      3  C   UNL     1      32.917  20.699  15.546  0.00  0.00    +0.113 C 
ATOM      4  C   UNL     1      33.719  21.956  15.974  0.00  0.00    +0.048 C 
ATOM      5  C   UNL     1      32.752  23.131  15.889  0.00  0.00    +0.004 C 
ATOM      6  C   UNL     1      31.396  22.513  16.165  0.00  0.00    +0.004 C 
ATOM      7  C   UNL     1      31.458  21.201  15.401  0.00  0.00    +0.048 C 
ATOM      8  O   UNL     1      32.929  19.729  16.610  0.00  0.00    -0.485 OA
ATOM      9  C   UNL     1      34.149  19.130  16.778  0.00  0.00    +0.126 A 
ATOM     10  C   UNL     1      34.538  18.813  18.078  0.00  0.00    +0.046 A 
ATOM     11  C   UNL     1      35.788  18.239  18.312  0.00  0.00    +0.004 A 
ATOM     12  C   UNL     1      36.640  17.963  17.245  0.00  0.00    +0.001 A 
ATOM     13  C   UNL     1      36.234  18.252  15.943  0.00  0.00    +0.009 A 
ATOM     14  C   UNL     1      34.981  18.841  15.700  0.00  0.00    +0.015 A 
ENDROOT
BRANCH   1  21
ATOM     15  N   UNL     1      34.539  13.341  11.795  0.00  0.00    -0.299 N 
ATOM     16  C   UNL     1      35.654  14.186  11.371  0.00  0.00    +0.127 C 
ATOM     17  C   UNL     1      35.195  15.579  10.952  0.00  0.00    +0.129 C 
ATOM     18  N   UNL     1      34.453  16.183  12.050  0.00  0.00    -0.275 N 
ATOM     19  C   UNL     1      34.908  17.361  12.597  0.00  0.00    +0.303 C 
ATOM     20  O   UNL     1      35.920  17.932  12.192  0.00  0.00    -0.253 OA
ATOM     21  N   UNL     1      34.189  17.850  13.649  0.00  0.00    -0.292 N 
ATOM     22  C   UNL     1      33.291  15.408  12.493  0.00  0.00    +0.205 C 
ATOM     23  C   UNL     1      33.361  13.879  12.301  0.00  0.00    +0.233 C 
ATOM     24  O   UNL     1      32.396  13.176  12.606  0.00  0.00    -0.274 OA
ATOM     25  H   UNL     1      33.219  17.589  13.722  0.00  0.00    +0.151 HD
BRANCH  15  27
ATOM     26  C   UNL     1      35.011  11.358  10.400  0.00  0.00    +0.024 C 
ATOM     27  C   UNL     1      34.730  11.894  11.793  0.00  0.00    +0.104 C 
ENDBRANCH  15  27
ENDBRANCH   1  21
TORSDOF 2
ENDMDL
MODEL 3
REMARK VINA RESULT:      -6.2      3.531      5.234
REMARK  Name = ZINC000329563636
REMARK  3 active torsions:
REMARK  status: ('A' for Active; 'I' for Inactive)
REMARK    1  A    between atoms: C_1  and  C_2
REMARK    2  A    between atoms: C_2  and  N_3
REMARK    3  A    between atoms: N_9  and  C_10
REMARK                            x       y       z     vdW  Elec       q    Type
REMARK                         _______ _______ _______ _____ _____    ______ ____
ROOT
ATOM      1  C   UNL     1      33.487  22.796  12.288  0.00  0.00    +0.112 C 
ATOM      2  C   UNL     1      32.324  22.040  12.937  0.00  0.00    +0.075 C 
ATOM      3  C   UNL     1      32.545  21.647  14.406  0.00  0.00    +0.113 C 
ATOM      4  C   UNL     1      32.203  22.755  15.435  0.00  0.00    +0.048 C 
ATOM      5  C   UNL     1      30.971  22.272  16.192  0.00  0.00    +0.004 C 
ATOM      6  C   UNL     1      31.089  20.761  16.162  0.00  0.00    +0.004 C 
ATOM      7  C   UNL     1      31.577  20.486  14.750  0.00  0.00    +0.048 C 
ATOM      8  O   UNL     1      33.883  21.166  14.635  0.00  0.00    -0.485 OA
ATOM      9  C   UNL     1      34.848  22.069  14.273  0.00  0.00    +0.126 A 
ATOM     10  C   UNL     1      36.001  22.126  15.053  0.00  0.00    +0.046 A 
ATOM     11  C   UNL     1      36.999  23.055  14.755  0.00  0.00    +0.004 A 
ATOM     12  C   UNL     1      36.853  23.911  13.666  0.00  0.00    +0.001 A 
ATOM     13  C   UNL     1      35.710  23.829  12.870  0.00  0.00    +0.009 A 
ATOM     14  C   UNL     1      34.696  22.904  13.170  0.00  0.00    +0.015 A 
ENDROOT
BRANCH   1  21
ATOM     15  N   UNL     1      36.044  21.216   6.759  0.00  0.00    -0.299 N 
ATOM     16  C   UNL     1      35.568  22.597   6.836  0.00  0.00    +0.127 C 
ATOM     17  C   UNL     1      34.164  22.691   7.426  0.00  0.00    +0.129 C 
ATOM     18  N   UNL     1      34.156  22.050   8.733  0.00  0.00    -0.275 N 
ATOM     19  C   UNL     1      33.815  22.791   9.841  0.00  0.00    +0.303 C 
ATOM     20  O   UNL     1      33.509  23.981   9.772  0.00  0.00    -0.253 OA
ATOM     21  N   UNL     1      33.868  22.138  11.038  0.00  0.00    -0.292 N 
ATOM     22  C   UNL     1      34.578  20.646   8.721  0.00  0.00    +0.205 C 
ATOM     23  C   UNL     1      35.567  20.227   7.613  0.00  0.00    +0.233 C 
ATOM     24  O   UNL     1      35.921  19.050   7.517  0.00  0.00    -0.274 OA
ATOM     25  H   UNL     1      33.764  21.137  11.037  0.00  0.00    +0.151 HD
BRANCH  15  27
ATOM     26  C   UNL     1      36.767  21.227   4.398  0.00  0.00    +0.024 C 
ATOM     27  C   UNL     1      37.133  20.911   5.838  0.00  0.00    +0.104 C 
ENDBRANCH  15  27
ENDBRANCH   1  21
TORSDOF 2
ENDMDL
MODEL 4
REMARK VINA RESULT:      -6.1      1.926      2.281
REMARK  Name = ZINC000329563636
REMARK  3 active torsions:
REMARK  status: ('A' for Active; 'I' for Inactive)
REMARK    1  A    between atoms: C_1  and  C_2
REMARK    2  A    between atoms: C_2  and  N_3
REMARK    3  A    between atoms: N_9  and  C_10
REMARK                            x       y       z     vdW  Elec       q    Type
REMARK                         _______ _______ _______ _____ _____    ______ ____
ROOT
ATOM      1  C   UNL     1      34.725  22.499  13.331  0.00  0.00    +0.112 C 
ATOM      2  C   UNL     1      34.051  22.176  14.668  0.00  0.00    +0.075 C 
ATOM      3  C   UNL     1      32.521  22.309  14.672  0.00  0.00    +0.113 C 
ATOM      4  C   UNL     1      31.758  21.062  14.157  0.00  0.00    +0.048 C 
ATOM      5  C   UNL     1      31.037  20.471  15.363  0.00  0.00    +0.004 C 
ATOM      6  C   UNL     1      30.768  21.668  16.254  0.00  0.00    +0.004 C 
ATOM      7  C   UNL     1      32.051  22.472  16.140  0.00  0.00    +0.048 C 
ATOM      8  O   UNL     1      32.084  23.479  13.955  0.00  0.00    -0.485 OA
ATOM      9  C   UNL     1      32.523  23.508  12.657  0.00  0.00    +0.126 A 
ATOM     10  C   UNL     1      31.668  24.050  11.700  0.00  0.00    +0.046 A 
ATOM     11  C   UNL     1      32.046  24.068  10.356  0.00  0.00    +0.004 A 
ATOM     12  C   UNL     1      33.287  23.564   9.974  0.00  0.00    +0.001 A 
ATOM     13  C   UNL     1      34.153  23.051  10.940  0.00  0.00    +0.009 A 
ATOM     14  C   UNL     1      33.774  23.019  12.293  0.00  0.00    +0.015 A 
ENDROOT
BRANCH   1  21
ATOM     15  N   UNL     1      39.478  26.573  12.682  0.00  0.00    -0.299 N 
ATOM     16  C   UNL     1      39.682  25.290  12.012  0.00  0.00    +0.127 C 
ATOM     17  C   UNL     1      39.346  24.107  12.915  0.00  0.00    +0.129 C 
ATOM     18  N   UNL     1      37.978  24.249  13.392  0.00  0.00    -0.275 N 
ATOM     19  C   UNL     1      37.060  23.267  13.096  0.00  0.00    +0.303 C 
ATOM     20  O   UNL     1      37.352  22.264  12.446  0.00  0.00    -0.253 OA
ATOM     21  N   UNL     1      35.787  23.484  13.537  0.00  0.00    -0.292 N 
ATOM     22  C   UNL     1      37.715  25.496  14.116  0.00  0.00    +0.205 C 
ATOM     23  C   UNL     1      38.576  26.718  13.730  0.00  0.00    +0.233 C 
ATOM     24  O   UNL     1      38.439  27.782  14.337  0.00  0.00    -0.274 OA
ATOM     25  H   UNL     1      35.658  24.086  14.334  0.00  0.00    +0.151 HD
BRANCH  15  27
ATOM     26  C   UNL     1      39.499  28.256  10.875  0.00  0.00    +0.024 C 
ATOM     27  C   UNL     1      40.157  27.748  12.146  0.00  0.00    +0.104 C 
ENDBRANCH  15  27
ENDBRANCH   1  21
TORSDOF 2
ENDMDL
MODEL 5
REMARK VINA RESULT:      -6.1     13.724     15.445
REMARK  Name = ZINC000329563636
REMARK  3 active torsions:
REMARK  status: ('A' for Active; 'I' for Inactive)
REMARK    1  A    between atoms: C_1  and  C_2
REMARK    2  A    between atoms: C_2  and  N_3
REMARK    3  A    between atoms: N_9  and  C_10
REMARK                            x       y       z     vdW  Elec       q    Type
REMARK                         _______ _______ _______ _____ _____    ______ ____
ROOT
ATOM      1  C   UNL     1      24.637  34.673  16.104  0.00  0.00    +0.112 C 
ATOM      2  C   UNL     1      23.808  33.661  15.307  0.00  0.00    +0.075 C 
ATOM      3  C   UNL     1      24.100  32.187  15.629  0.00  0.00    +0.113 C 
ATOM      4  C   UNL     1      23.333  31.625  16.853  0.00  0.00    +0.048 C 
ATOM      5  C   UNL     1      22.336  30.610  16.306  0.00  0.00    +0.004 C 
ATOM      6  C   UNL     1      23.002  30.078  15.053  0.00  0.00    +0.004 C 
ATOM      7  C   UNL     1      23.613  31.324  14.437  0.00  0.00    +0.048 C 
ATOM      8  O   UNL     1      25.510  31.942  15.782  0.00  0.00    -0.485 OA
ATOM      9  C   UNL     1      26.090  32.724  16.747  0.00  0.00    +0.126 A 
ATOM     10  C   UNL     1      27.109  32.157  17.509  0.00  0.00    +0.046 A 
ATOM     11  C   UNL     1      27.707  32.894  18.533  0.00  0.00    +0.004 A 
ATOM     12  C   UNL     1      27.299  34.203  18.780  0.00  0.00    +0.001 A 
ATOM     13  C   UNL     1      26.300  34.777  17.994  0.00  0.00    +0.009 A 
ATOM     14  C   UNL     1      25.686  34.038  16.969  0.00  0.00    +0.015 A 
ENDROOT
BRANCH   1  21
ATOM     15  N   UNL     1      27.990  39.312  13.487  0.00  0.00    -0.299 N 
ATOM     16  C   UNL     1      27.170  39.723  14.626  0.00  0.00    +0.127 C 
ATOM     17  C   UNL     1      25.743  39.191  14.532  0.00  0.00    +0.129 C 
ATOM     18  N   UNL     1      25.785  37.742  14.399  0.00  0.00    -0.275 N 
ATOM     19  C   UNL     1      25.169  36.964  15.352  0.00  0.00    +0.303 C 
ATOM     20  O   UNL     1      24.575  37.446  16.316  0.00  0.00    -0.253 OA
ATOM     21  N   UNL     1      25.283  35.614  15.189  0.00  0.00    -0.292 N 
ATOM     22  C   UNL     1      26.553  37.262  13.247  0.00  0.00    +0.205 C 
ATOM     23  C   UNL     1      27.711  38.159  12.761  0.00  0.00    +0.233 C 
ATOM     24  O   UNL     1      28.362  37.837  11.765  0.00  0.00    -0.274 OA
ATOM     25  H   UNL     1      25.440  35.261  14.260  0.00  0.00    +0.151 HD
BRANCH  15  27
ATOM     26  C   UNL     1      30.418  39.504  13.895  0.00  0.00    +0.024 C 
ATOM     27  C   UNL     1      29.198  40.076  13.194  0.00  0.00    +0.104 C 
ENDBRANCH  15  27
ENDBRANCH   1  21
TORSDOF 2
ENDMDL
MODEL 6
REMARK VINA RESULT:      -6.0      5.332      8.226
REMARK  Name = ZINC000329563636
REMARK  3 active torsions:
REMARK  status: ('A' for Active; 'I' for Inactive)
REMARK    1  A    between atoms: C_1  and  C_2
REMARK    2  A    between atoms: C_2  and  N_3
REMARK    3  A    between atoms: N_9  and  C_10
REMARK                            x       y       z     vdW  Elec       q    Type
REMARK                         _______ _______ _______ _____ _____    ______ ____
ROOT
ATOM      1  C   UNL     1      34.660  16.168  12.749  0.00  0.00    +0.112 C 
ATOM      2  C   UNL     1      33.772  14.925  12.864  0.00  0.00    +0.075 C 
ATOM      3  C   UNL     1      33.739  14.034  11.613  0.00  0.00    +0.113 C 
ATOM      4  C   UNL     1      34.900  13.012  11.511  0.00  0.00    +0.048 C 
ATOM      5  C   UNL     1      34.274  11.633  11.688  0.00  0.00    +0.004 C 
ATOM      6  C   UNL     1      32.866  11.795  11.150  0.00  0.00    +0.004 C 
ATOM      7  C   UNL     1      32.458  13.162  11.672  0.00  0.00    +0.048 C 
ATOM      8  O   UNL     1      33.667  14.812  10.404  0.00  0.00    -0.485 OA
ATOM      9  C   UNL     1      34.699  15.705  10.278  0.00  0.00    +0.126 A 
ATOM     10  C   UNL     1      35.196  15.938   8.997  0.00  0.00    +0.046 A 
ATOM     11  C   UNL     1      36.273  16.807   8.815  0.00  0.00    +0.004 A 
ATOM     12  C   UNL     1      36.838  17.457   9.909  0.00  0.00    +0.001 A 
ATOM     13  C   UNL     1      36.317  17.245  11.185  0.00  0.00    +0.009 A 
ATOM     14  C   UNL     1      35.240  16.364  11.378  0.00  0.00    +0.015 A 
ENDROOT
BRANCH   1  21
ATOM     15  N   UNL     1      32.680  22.024  13.929  0.00  0.00    -0.299 N 
ATOM     16  C   UNL     1      33.993  21.703  14.487  0.00  0.00    +0.127 C 
ATOM     17  C   UNL     1      33.999  20.362  15.215  0.00  0.00    +0.129 C 
ATOM     18  N   UNL     1      33.538  19.326  14.303  0.00  0.00    -0.275 N 
ATOM     19  C   UNL     1      34.373  18.273  14.008  0.00  0.00    +0.303 C 
ATOM     20  O   UNL     1      35.499  18.167  14.492  0.00  0.00    -0.253 OA
ATOM     21  N   UNL     1      33.894  17.360  13.114  0.00  0.00    -0.292 N 
ATOM     22  C   UNL     1      32.204  19.562  13.743  0.00  0.00    +0.205 C 
ATOM     23  C   UNL     1      31.763  21.033  13.595  0.00  0.00    +0.233 C 
ATOM     24  O   UNL     1      30.633  21.298  13.178  0.00  0.00    -0.274 OA
ATOM     25  H   UNL     1      32.896  17.267  13.021  0.00  0.00    +0.151 HD
BRANCH  15  27
ATOM     26  C   UNL     1      32.760  23.765  12.179  0.00  0.00    +0.024 C 
ATOM     27  C   UNL     1      32.387  23.417  13.610  0.00  0.00    +0.104 C 
ENDBRANCH  15  27
ENDBRANCH   1  21
TORSDOF 2
ENDMDL
MODEL 7
REMARK VINA RESULT:      -6.0      4.828      9.195
REMARK  Name = ZINC000329563636
REMARK  3 active torsions:
REMARK  status: ('A' for Active; 'I' for Inactive)
REMARK    1  A    between atoms: C_1  and  C_2
REMARK    2  A    between atoms: C_2  and  N_3
REMARK    3  A    between atoms: N_9  and  C_10
REMARK                            x       y       z     vdW  Elec       q    Type
REMARK                         _______ _______ _______ _____ _____    ______ ____
ROOT
ATOM      1  C   UNL     1      34.473  19.622  13.617  0.00  0.00    +0.112 C 
ATOM      2  C   UNL     1      35.024  20.415  12.428  0.00  0.00    +0.075 C 
ATOM      3  C   UNL     1      34.283  21.726  12.123  0.00  0.00    +0.113 C 
ATOM      4  C   UNL     1      34.748  22.946  12.960  0.00  0.00    +0.048 C 
ATOM      5  C   UNL     1      35.439  23.895  11.987  0.00  0.00    +0.004 C 
ATOM      6  C   UNL     1      34.745  23.635  10.665  0.00  0.00    +0.004 C 
ATOM      7  C   UNL     1      34.583  22.125  10.656  0.00  0.00    +0.048 C 
ATOM      8  O   UNL     1      32.856  21.573  12.238  0.00  0.00    -0.485 OA
ATOM      9  C   UNL     1      32.461  21.123  13.470  0.00  0.00    +0.126 A 
ATOM     10  C   UNL     1      31.262  21.615  13.983  0.00  0.00    +0.046 A 
ATOM     11  C   UNL     1      30.831  21.222  15.251  0.00  0.00    +0.004 A 
ATOM     12  C   UNL     1      31.589  20.322  15.997  0.00  0.00    +0.001 A 
ATOM     13  C   UNL     1      32.772  19.808  15.467  0.00  0.00    +0.009 A 
ATOM     14  C   UNL     1      33.218  20.207  14.196  0.00  0.00    +0.015 A 
ENDROOT
BRANCH   1  21
ATOM     15  N   UNL     1      33.891  13.364  13.297  0.00  0.00    -0.299 N 
ATOM     16  C   UNL     1      35.183  13.829  13.800  0.00  0.00    +0.127 C 
ATOM     17  C   UNL     1      35.774  14.937  12.934  0.00  0.00    +0.129 C 
ATOM     18  N   UNL     1      34.814  16.027  12.839  0.00  0.00    -0.275 N 
ATOM     19  C   UNL     1      35.172  17.276  13.293  0.00  0.00    +0.303 C 
ATOM     20  O   UNL     1      36.279  17.513  13.774  0.00  0.00    -0.253 OA
ATOM     21  N   UNL     1      34.210  18.241  13.212  0.00  0.00    -0.292 N 
ATOM     22  C   UNL     1      33.509  15.639  12.297  0.00  0.00    +0.205 C 
ATOM     23  C   UNL     1      33.065  14.180  12.531  0.00  0.00    +0.233 C 
ATOM     24  O   UNL     1      32.001  13.777  12.055  0.00  0.00    -0.274 OA
ATOM     25  H   UNL     1      33.487  18.132  12.521  0.00  0.00    +0.151 HD
BRANCH  15  27
ATOM     26  C   UNL     1      34.538  11.026  13.761  0.00  0.00    +0.024 C 
ATOM     27  C   UNL     1      33.417  12.051  13.720  0.00  0.00    +0.104 C 
ENDBRANCH  15  27
ENDBRANCH   1  21
TORSDOF 2
ENDMDL
MODEL 8
REMARK VINA RESULT:      -5.9      3.518      5.388
REMARK  Name = ZINC000329563636
REMARK  3 active torsions:
REMARK  status: ('A' for Active; 'I' for Inactive)
REMARK    1  A    between atoms: C_1  and  C_2
REMARK    2  A    between atoms: C_2  and  N_3
REMARK    3  A    between atoms: N_9  and  C_10
REMARK                            x       y       z     vdW  Elec       q    Type
REMARK                         _______ _______ _______ _____ _____    ______ ____
ROOT
ATOM      1  C   UNL     1      34.524  20.938  12.364  0.00  0.00    +0.112 C 
ATOM      2  C   UNL     1      33.280  21.608  12.955  0.00  0.00    +0.075 C 
ATOM      3  C   UNL     1      32.410  20.699  13.837  0.00  0.00    +0.113 C 
ATOM      4  C   UNL     1      32.870  20.592  15.314  0.00  0.00    +0.048 C 
ATOM      5  C   UNL     1      31.802  21.291  16.147  0.00  0.00    +0.004 C 
ATOM      6  C   UNL     1      30.528  21.101  15.348  0.00  0.00    +0.004 C 
ATOM      7  C   UNL     1      30.989  21.314  13.917  0.00  0.00    +0.048 C 
ATOM      8  O   UNL     1      32.271  19.381  13.273  0.00  0.00    -0.485 OA
ATOM      9  C   UNL     1      33.473  18.761  13.056  0.00  0.00    +0.126 A 
ATOM     10  C   UNL     1      33.532  17.383  13.256  0.00  0.00    +0.046 A 
ATOM     11  C   UNL     1      34.740  16.705  13.088  0.00  0.00    +0.004 A 
ATOM     12  C   UNL     1      35.883  17.400  12.701  0.00  0.00    +0.001 A 
ATOM     13  C   UNL     1      35.812  18.774  12.471  0.00  0.00    +0.009 A 
ATOM     14  C   UNL     1      34.602  19.466  12.648  0.00  0.00    +0.015 A 
ENDROOT
BRANCH   1  21
ATOM     15  N   UNL     1      36.100  22.347   6.437  0.00  0.00    -0.299 N 
ATOM     16  C   UNL     1      36.403  23.394   7.412  0.00  0.00    +0.127 C 
ATOM     17  C   UNL     1      35.229  23.670   8.346  0.00  0.00    +0.129 C 
ATOM     18  N   UNL     1      34.843  22.428   8.999  0.00  0.00    -0.275 N 
ATOM     19  C   UNL     1      34.893  22.349  10.373  0.00  0.00    +0.303 C 
ATOM     20  O   UNL     1      35.249  23.294  11.076  0.00  0.00    -0.253 OA
ATOM     21  N   UNL     1      34.557  21.144  10.916  0.00  0.00    -0.292 N 
ATOM     22  C   UNL     1      34.479  21.347   8.079  0.00  0.00    +0.205 C 
ATOM     23  C   UNL     1      35.150  21.363   6.689  0.00  0.00    +0.233 C 
ATOM     24  O   UNL     1      34.848  20.511   5.851  0.00  0.00    -0.274 OA
ATOM     25  H   UNL     1      33.950  20.539  10.388  0.00  0.00    +0.151 HD
BRANCH  15  27
ATOM     26  C   UNL     1      36.936  23.599   4.480  0.00  0.00    +0.024 C 
ATOM     27  C   UNL     1      36.909  22.276   5.225  0.00  0.00    +0.104 C 
ENDBRANCH  15  27
ENDBRANCH   1  21
TORSDOF 2
ENDMDL
MODEL 9
REMARK VINA RESULT:      -5.9      5.090      8.448
REMARK  Name = ZINC000329563636
REMARK  3 active torsions:
REMARK  status: ('A' for Active; 'I' for Inactive)
REMARK    1  A    between atoms: C_1  and  C_2
REMARK    2  A    between atoms: C_2  and  N_3
REMARK    3  A    between atoms: N_9  and  C_10
REMARK                            x       y       z     vdW  Elec       q    Type
REMARK                         _______ _______ _______ _____ _____    ______ ____
ROOT
ATOM      1  C   UNL     1      33.959  20.724  16.540  0.00  0.00    +0.112 C 
ATOM      2  C   UNL     1      34.886  21.792  17.129  0.00  0.00    +0.075 C 
ATOM      3  C   UNL     1      34.679  23.209  16.572  0.00  0.00    +0.113 C 
ATOM      4  C   UNL     1      33.552  24.021  17.261  0.00  0.00    +0.048 C 
ATOM      5  C   UNL     1      34.240  25.147  18.024  0.00  0.00    +0.004 C 
ATOM      6  C   UNL     1      35.496  25.422  17.223  0.00  0.00    +0.004 C 
ATOM      7  C   UNL     1      35.967  24.029  16.840  0.00  0.00    +0.048 C 
ATOM      8  O   UNL     1      34.471  23.199  15.147  0.00  0.00    -0.485 OA
ATOM      9  C   UNL     1      33.412  22.419  14.765  0.00  0.00    +0.126 A 
ATOM     10  C   UNL     1      32.648  22.855  13.684  0.00  0.00    +0.046 A 
ATOM     11  C   UNL     1      31.533  22.122  13.276  0.00  0.00    +0.004 A 
ATOM     12  C   UNL     1      31.194  20.943  13.936  0.00  0.00    +0.001 A 
ATOM     13  C   UNL     1      31.980  20.494  14.997  0.00  0.00    +0.009 A 
ATOM     14  C   UNL     1      33.097  21.232  15.421  0.00  0.00    +0.015 A 
ENDROOT
BRANCH   1  21
ATOM     15  N   UNL     1      36.219  15.034  15.084  0.00  0.00    -0.299 N 
ATOM     16  C   UNL     1      35.774  15.175  16.470  0.00  0.00    +0.127 C 
ATOM     17  C   UNL     1      36.305  16.450  17.119  0.00  0.00    +0.129 C 
ATOM     18  N   UNL     1      35.906  17.593  16.311  0.00  0.00    -0.275 N 
ATOM     19  C   UNL     1      35.123  18.573  16.878  0.00  0.00    +0.303 C 
ATOM     20  O   UNL     1      34.749  18.526  18.049  0.00  0.00    -0.253 OA
ATOM     21  N   UNL     1      34.751  19.595  16.053  0.00  0.00    -0.292 N 
ATOM     22  C   UNL     1      36.360  17.539  14.919  0.00  0.00    +0.205 C 
ATOM     23  C   UNL     1      36.556  16.137  14.306  0.00  0.00    +0.233 C 
ATOM     24  O   UNL     1      36.985  16.023  13.156  0.00  0.00    -0.274 OA
ATOM     25  H   UNL     1      35.334  19.798  15.258  0.00  0.00    +0.151 HD
BRANCH  15  27
ATOM     26  C   UNL     1      34.777  13.145  14.413  0.00  0.00    +0.024 C 
ATOM     27  C   UNL     1      36.186  13.707  14.480  0.00  0.00    +0.104 C 
ENDBRANCH  15  27
ENDBRANCH   1  21
TORSDOF 2
ENDMDL
