MODEL 1
REMARK VINA RESULT:      -7.0      0.000      0.000
REMARK  Name = ZINC000826139982
REMARK  4 active torsions:
REMARK  status: ('A' for Active; 'I' for Inactive)
REMARK    1  A    between atoms: C_2  and  C_4
REMARK    2  A    between atoms: C_8  and  C_10
REMARK    3  A    between atoms: C_14  and  S_15
REMARK    4  A    between atoms: S_15  and  C_16
REMARK                            x       y       z     vdW  Elec       q    Type
REMARK                         _______ _______ _______ _____ _____    ______ ____
ROOT
ATOM      1  C   UNL     1      30.678  23.622  19.425  0.00  0.00    +0.093 C 
ATOM      2  C   UNL     1      29.171  23.810  19.633  0.00  0.00    +0.033 C 
ATOM      3  C   UNL     1      28.512  22.665  18.875  0.00  0.00    +0.109 C 
ATOM      4  N   UNL     1      29.456  22.346  17.824  0.00  0.00    -0.297 N 
ATOM      5  C   UNL     1      29.046  21.757  16.634  0.00  0.00    +0.247 C 
ATOM      6  O   UNL     1      27.856  21.559  16.392  0.00  0.00    -0.270 OA
ATOM      7  C   UNL     1      30.806  22.608  18.296  0.00  0.00    +0.120 C 
ENDROOT
BRANCH   5   8
ATOM      8  C   UNL     1      30.040  21.407  15.566  0.00  0.00    +0.038 A 
ATOM      9  C   UNL     1      30.291  20.097  15.146  0.00  0.00    +0.013 A 
ATOM     10  C   UNL     1      31.312  19.817  14.239  0.00  0.00    +0.002 A 
ATOM     11  C   UNL     1      32.028  20.858  13.658  0.00  0.00    +0.015 A 
ATOM     12  C   UNL     1      31.703  22.185  13.957  0.00  0.00    +0.017 A 
ATOM     13  C   UNL     1      30.736  22.453  14.937  0.00  0.00    +0.028 A 
BRANCH  12  14
ATOM     14  S   UNL     1      32.532  23.531  13.138  0.00  0.00    -0.016 S 
BRANCH  14  15
ATOM     15  C   UNL     1      31.203  24.183  12.104  0.00  0.00    +0.448 C 
ATOM     16  F   UNL     1      30.800  25.430  12.445  0.00  0.00    -0.160 F 
ATOM     17  F   UNL     1      31.583  24.231  10.804  0.00  0.00    -0.160 F 
ATOM     18  F   UNL     1      30.111  23.383  12.171  0.00  0.00    -0.160 F 
ENDBRANCH  14  15
ENDBRANCH  12  14
ENDBRANCH   5   8
BRANCH   1  20
ATOM     19  N   UNL     1      30.857  23.562  21.847  0.00  0.00    -0.329 N 
ATOM     20  C   UNL     1      31.433  23.191  20.668  0.00  0.00    +0.215 C 
ATOM     21  O   UNL     1      32.508  22.610  20.665  0.00  0.00    -0.276 OA
ATOM     22  H   UNL     1      31.363  23.355  22.699  0.00  0.00    +0.145 HD
ATOM     23  H   UNL     1      30.008  24.105  21.906  0.00  0.00    +0.145 HD
ENDBRANCH   1  20
TORSDOF 4
ENDMDL
MODEL 2
REMARK VINA RESULT:      -6.9      2.904      3.770
REMARK  Name = ZINC000826139982
REMARK  4 active torsions:
REMARK  status: ('A' for Active; 'I' for Inactive)
REMARK    1  A    between atoms: C_2  and  C_4
REMARK    2  A    between atoms: C_8  and  C_10
REMARK    3  A    between atoms: C_14  and  S_15
REMARK    4  A    between atoms: S_15  and  C_16
REMARK                            x       y       z     vdW  Elec       q    Type
REMARK                         _______ _______ _______ _____ _____    ______ ____
ROOT
ATOM      1  C   UNL     1      30.710  23.643  19.363  0.00  0.00    +0.093 C 
ATOM      2  C   UNL     1      29.187  23.758  19.490  0.00  0.00    +0.033 C 
ATOM      3  C   UNL     1      28.626  22.598  18.679  0.00  0.00    +0.109 C 
ATOM      4  N   UNL     1      29.639  22.342  17.677  0.00  0.00    -0.297 N 
ATOM      5  C   UNL     1      29.324  21.757  16.457  0.00  0.00    +0.247 C 
ATOM      6  O   UNL     1      28.159  21.509  16.145  0.00  0.00    -0.270 OA
ATOM      7  C   UNL     1      30.948  22.657  18.227  0.00  0.00    +0.120 C 
ENDROOT
BRANCH   5   8
ATOM      8  C   UNL     1      30.390  21.473  15.440  0.00  0.00    +0.038 A 
ATOM      9  C   UNL     1      30.880  22.431  14.548  0.00  0.00    +0.013 A 
ATOM     10  C   UNL     1      31.781  22.083  13.543  0.00  0.00    +0.002 A 
ATOM     11  C   UNL     1      32.286  20.789  13.483  0.00  0.00    +0.015 A 
ATOM     12  C   UNL     1      31.917  19.847  14.448  0.00  0.00    +0.017 A 
ATOM     13  C   UNL     1      30.944  20.182  15.400  0.00  0.00    +0.028 A 
BRANCH  12  14
ATOM     14  S   UNL     1      32.640  18.219  14.454  0.00  0.00    -0.016 S 
BRANCH  14  15
ATOM     15  C   UNL     1      31.241  17.213  13.916  0.00  0.00    +0.448 C 
ATOM     16  F   UNL     1      31.595  16.050  13.319  0.00  0.00    -0.160 F 
ATOM     17  F   UNL     1      30.445  16.893  14.965  0.00  0.00    -0.160 F 
ATOM     18  F   UNL     1      30.476  17.895  13.029  0.00  0.00    -0.160 F 
ENDBRANCH  14  15
ENDBRANCH  12  14
ENDBRANCH   5   8
BRANCH   1  20
ATOM     19  N   UNL     1      30.801  23.619  21.791  0.00  0.00    -0.329 N 
ATOM     20  C   UNL     1      31.416  23.224  20.640  0.00  0.00    +0.215 C 
ATOM     21  O   UNL     1      32.484  22.633  20.685  0.00  0.00    -0.276 OA
ATOM     22  H   UNL     1      31.274  23.420  22.664  0.00  0.00    +0.145 HD
ATOM     23  H   UNL     1      29.955  24.170  21.811  0.00  0.00    +0.145 HD
ENDBRANCH   1  20
TORSDOF 4
ENDMDL
MODEL 3
REMARK VINA RESULT:      -6.8      1.643      3.136
REMARK  Name = ZINC000826139982
REMARK  4 active torsions:
REMARK  status: ('A' for Active; 'I' for Inactive)
REMARK    1  A    between atoms: C_2  and  C_4
REMARK    2  A    between atoms: C_8  and  C_10
REMARK    3  A    between atoms: C_14  and  S_15
REMARK    4  A    between atoms: S_15  and  C_16
REMARK                            x       y       z     vdW  Elec       q    Type
REMARK                         _______ _______ _______ _____ _____    ______ ____
ROOT
ATOM      1  C   UNL     1      27.549  21.733  18.334  0.00  0.00    +0.093 C 
ATOM      2  C   UNL     1      28.011  22.504  19.576  0.00  0.00    +0.033 C 
ATOM      3  C   UNL     1      29.116  23.432  19.088  0.00  0.00    +0.109 C 
ATOM      4  N   UNL     1      29.669  22.750  17.936  0.00  0.00    -0.297 N 
ATOM      5  C   UNL     1      30.979  22.964  17.525  0.00  0.00    +0.247 C 
ATOM      6  O   UNL     1      31.747  23.676  18.171  0.00  0.00    -0.270 OA
ATOM      7  C   UNL     1      28.619  21.988  17.280  0.00  0.00    +0.120 C 
ENDROOT
BRANCH   5   8
ATOM      8  C   UNL     1      31.528  22.271  16.313  0.00  0.00    +0.038 A 
ATOM      9  C   UNL     1      31.697  20.886  16.226  0.00  0.00    +0.013 A 
ATOM     10  C   UNL     1      32.326  20.307  15.126  0.00  0.00    +0.002 A 
ATOM     11  C   UNL     1      32.702  21.098  14.046  0.00  0.00    +0.015 A 
ATOM     12  C   UNL     1      32.418  22.467  14.048  0.00  0.00    +0.017 A 
ATOM     13  C   UNL     1      31.867  23.054  15.196  0.00  0.00    +0.028 A 
BRANCH  12  14
ATOM     14  S   UNL     1      32.788  23.475  12.627  0.00  0.00    -0.016 S 
BRANCH  14  15
ATOM     15  C   UNL     1      31.153  24.124  12.222  0.00  0.00    +0.448 C 
ATOM     16  F   UNL     1      30.793  25.206  12.952  0.00  0.00    -0.160 F 
ATOM     17  F   UNL     1      31.086  24.484  10.918  0.00  0.00    -0.160 F 
ATOM     18  F   UNL     1      30.202  23.178  12.423  0.00  0.00    -0.160 F 
ENDBRANCH  14  15
ENDBRANCH  12  14
ENDBRANCH   5   8
BRANCH   1  20
ATOM     19  N   UNL     1      25.339  22.630  18.796  0.00  0.00    -0.329 N 
ATOM     20  C   UNL     1      26.163  22.107  17.843  0.00  0.00    +0.215 C 
ATOM     21  O   UNL     1      25.749  21.916  16.710  0.00  0.00    -0.276 OA
ATOM     22  H   UNL     1      24.383  22.829  18.528  0.00  0.00    +0.145 HD
ATOM     23  H   UNL     1      25.606  22.742  19.763  0.00  0.00    +0.145 HD
ENDBRANCH   1  20
TORSDOF 4
ENDMDL
MODEL 4
REMARK VINA RESULT:      -6.8      4.769      6.920
REMARK  Name = ZINC000826139982
REMARK  4 active torsions:
REMARK  status: ('A' for Active; 'I' for Inactive)
REMARK    1  A    between atoms: C_2  and  C_4
REMARK    2  A    between atoms: C_8  and  C_10
REMARK    3  A    between atoms: C_14  and  S_15
REMARK    4  A    between atoms: S_15  and  C_16
REMARK                            x       y       z     vdW  Elec       q    Type
REMARK                         _______ _______ _______ _____ _____    ______ ____
ROOT
ATOM      1  C   UNL     1      31.060  17.784  14.526  0.00  0.00    +0.093 C 
ATOM      2  C   UNL     1      31.526  18.291  13.157  0.00  0.00    +0.033 C 
ATOM      3  C   UNL     1      32.191  19.633  13.427  0.00  0.00    +0.109 C 
ATOM      4  N   UNL     1      31.540  20.118  14.626  0.00  0.00    -0.297 N 
ATOM      5  C   UNL     1      31.459  21.475  14.912  0.00  0.00    +0.247 C 
ATOM      6  O   UNL     1      31.863  22.324  14.117  0.00  0.00    -0.270 OA
ATOM      7  C   UNL     1      31.162  18.986  15.457  0.00  0.00    +0.120 C 
ENDROOT
BRANCH   5   8
ATOM      8  C   UNL     1      30.805  21.959  16.172  0.00  0.00    +0.038 A 
ATOM      9  C   UNL     1      29.467  21.712  16.491  0.00  0.00    +0.013 A 
ATOM     10  C   UNL     1      28.878  22.290  17.615  0.00  0.00    +0.002 A 
ATOM     11  C   UNL     1      29.651  23.039  18.495  0.00  0.00    +0.015 A 
ATOM     12  C   UNL     1      31.023  23.185  18.273  0.00  0.00    +0.017 A 
ATOM     13  C   UNL     1      31.588  22.676  17.094  0.00  0.00    +0.028 A 
BRANCH  12  14
ATOM     14  S   UNL     1      32.049  24.044  19.448  0.00  0.00    -0.016 S 
BRANCH  14  15
ATOM     15  C   UNL     1      32.426  22.721  20.617  0.00  0.00    +0.448 C 
ATOM     16  F   UNL     1      32.733  21.539  20.032  0.00  0.00    -0.160 F 
ATOM     17  F   UNL     1      33.475  23.057  21.405  0.00  0.00    -0.160 F 
ATOM     18  F   UNL     1      31.369  22.493  21.436  0.00  0.00    -0.160 F 
ENDBRANCH  14  15
ENDBRANCH  12  14
ENDBRANCH   5   8
BRANCH   1  20
ATOM     19  N   UNL     1      32.268  15.722  14.091  0.00  0.00    -0.329 N 
ATOM     20  C   UNL     1      31.837  16.590  15.050  0.00  0.00    +0.215 C 
ATOM     21  O   UNL     1      32.031  16.347  16.231  0.00  0.00    -0.276 OA
ATOM     22  H   UNL     1      32.730  14.876  14.401  0.00  0.00    +0.145 HD
ATOM     23  H   UNL     1      32.074  15.836  13.106  0.00  0.00    +0.145 HD
ENDBRANCH   1  20
TORSDOF 4
ENDMDL
MODEL 5
REMARK VINA RESULT:      -6.6      4.753      7.131
REMARK  Name = ZINC000826139982
REMARK  4 active torsions:
REMARK  status: ('A' for Active; 'I' for Inactive)
REMARK    1  A    between atoms: C_2  and  C_4
REMARK    2  A    between atoms: C_8  and  C_10
REMARK    3  A    between atoms: C_14  and  S_15
REMARK    4  A    between atoms: S_15  and  C_16
REMARK                            x       y       z     vdW  Elec       q    Type
REMARK                         _______ _______ _______ _____ _____    ______ ____
ROOT
ATOM      1  C   UNL     1      32.609  23.098  12.721  0.00  0.00    +0.093 C 
ATOM      2  C   UNL     1      33.369  21.778  12.550  0.00  0.00    +0.033 C 
ATOM      3  C   UNL     1      32.561  20.744  13.322  0.00  0.00    +0.109 C 
ATOM      4  N   UNL     1      31.889  21.512  14.349  0.00  0.00    -0.297 N 
ATOM      5  C   UNL     1      31.492  20.932  15.548  0.00  0.00    +0.247 C 
ATOM      6  O   UNL     1      31.769  19.764  15.819  0.00  0.00    -0.270 OA
ATOM      7  C   UNL     1      31.612  22.847  13.846  0.00  0.00    +0.120 C 
ENDROOT
BRANCH   5   8
ATOM      8  C   UNL     1      30.772  21.735  16.591  0.00  0.00    +0.038 A 
ATOM      9  C   UNL     1      29.381  21.748  16.730  0.00  0.00    +0.013 A 
ATOM     10  C   UNL     1      28.757  22.607  17.634  0.00  0.00    +0.002 A 
ATOM     11  C   UNL     1      29.525  23.390  18.489  0.00  0.00    +0.015 A 
ATOM     12  C   UNL     1      30.920  23.292  18.466  0.00  0.00    +0.017 A 
ATOM     13  C   UNL     1      31.538  22.493  17.493  0.00  0.00    +0.028 A 
BRANCH  12  14
ATOM     14  S   UNL     1      31.915  24.201  19.630  0.00  0.00    -0.016 S 
BRANCH  14  15
ATOM     15  C   UNL     1      32.128  22.977  20.939  0.00  0.00    +0.448 C 
ATOM     16  F   UNL     1      32.621  21.791  20.512  0.00  0.00    -0.160 F 
ATOM     17  F   UNL     1      32.971  23.435  21.896  0.00  0.00    -0.160 F 
ATOM     18  F   UNL     1      30.943  22.716  21.545  0.00  0.00    -0.160 F 
ENDBRANCH  14  15
ENDBRANCH  12  14
ENDBRANCH   5   8
BRANCH   1  20
ATOM     19  N   UNL     1      32.201  22.873  10.337  0.00  0.00    -0.329 N 
ATOM     20  C   UNL     1      31.932  23.599  11.459  0.00  0.00    +0.215 C 
ATOM     21  O   UNL     1      31.242  24.605  11.390  0.00  0.00    -0.276 OA
ATOM     22  H   UNL     1      31.826  23.213   9.460  0.00  0.00    +0.145 HD
ATOM     23  H   UNL     1      32.821  22.076  10.324  0.00  0.00    +0.145 HD
ENDBRANCH   1  20
TORSDOF 4
ENDMDL
MODEL 6
REMARK VINA RESULT:      -6.6      3.383      4.827
REMARK  Name = ZINC000826139982
REMARK  4 active torsions:
REMARK  status: ('A' for Active; 'I' for Inactive)
REMARK    1  A    between atoms: C_2  and  C_4
REMARK    2  A    between atoms: C_8  and  C_10
REMARK    3  A    between atoms: C_14  and  S_15
REMARK    4  A    between atoms: S_15  and  C_16
REMARK                            x       y       z     vdW  Elec       q    Type
REMARK                         _______ _______ _______ _____ _____    ______ ____
ROOT
ATOM      1  C   UNL     1      27.610  21.734  18.311  0.00  0.00    +0.093 C 
ATOM      2  C   UNL     1      28.112  22.510  19.534  0.00  0.00    +0.033 C 
ATOM      3  C   UNL     1      29.199  23.438  19.005  0.00  0.00    +0.109 C 
ATOM      4  N   UNL     1      29.713  22.753  17.837  0.00  0.00    -0.297 N 
ATOM      5  C   UNL     1      31.008  22.968  17.381  0.00  0.00    +0.247 C 
ATOM      6  O   UNL     1      31.796  23.683  17.999  0.00  0.00    -0.270 OA
ATOM      7  C   UNL     1      28.643  21.988  17.220  0.00  0.00    +0.120 C 
ENDROOT
BRANCH   5   8
ATOM      8  C   UNL     1      31.517  22.272  16.153  0.00  0.00    +0.038 A 
ATOM      9  C   UNL     1      31.597  22.883  14.898  0.00  0.00    +0.013 A 
ATOM     10  C   UNL     1      31.960  22.154  13.767  0.00  0.00    +0.002 A 
ATOM     11  C   UNL     1      32.352  20.826  13.894  0.00  0.00    +0.015 A 
ATOM     12  C   UNL     1      32.414  20.231  15.158  0.00  0.00    +0.017 A 
ATOM     13  C   UNL     1      31.962  20.945  16.277  0.00  0.00    +0.028 A 
BRANCH  12  14
ATOM     14  S   UNL     1      33.022  18.568  15.352  0.00  0.00    -0.016 S 
BRANCH  14  15
ATOM     15  C   UNL     1      31.557  17.607  14.916  0.00  0.00    +0.448 C 
ATOM     16  F   UNL     1      31.522  17.211  13.622  0.00  0.00    -0.160 F 
ATOM     17  F   UNL     1      31.470  16.489  15.676  0.00  0.00    -0.160 F 
ATOM     18  F   UNL     1      30.430  18.328  15.139  0.00  0.00    -0.160 F 
ENDBRANCH  14  15
ENDBRANCH  12  14
ENDBRANCH   5   8
BRANCH   1  20
ATOM     19  N   UNL     1      25.425  22.656  18.838  0.00  0.00    -0.329 N 
ATOM     20  C   UNL     1      26.207  22.104  17.867  0.00  0.00    +0.215 C 
ATOM     21  O   UNL     1      25.747  21.887  16.756  0.00  0.00    -0.276 OA
ATOM     22  H   UNL     1      24.460  22.855  18.603  0.00  0.00    +0.145 HD
ATOM     23  H   UNL     1      25.732  22.792  19.790  0.00  0.00    +0.145 HD
ENDBRANCH   1  20
TORSDOF 4
ENDMDL
MODEL 7
REMARK VINA RESULT:      -6.4      3.496      5.740
REMARK  Name = ZINC000826139982
REMARK  4 active torsions:
REMARK  status: ('A' for Active; 'I' for Inactive)
REMARK    1  A    between atoms: C_2  and  C_4
REMARK    2  A    between atoms: C_8  and  C_10
REMARK    3  A    between atoms: C_14  and  S_15
REMARK    4  A    between atoms: S_15  and  C_16
REMARK                            x       y       z     vdW  Elec       q    Type
REMARK                         _______ _______ _______ _____ _____    ______ ____
ROOT
ATOM      1  C   UNL     1      29.944  21.530  16.202  0.00  0.00    +0.093 C 
ATOM      2  C   UNL     1      28.613  21.622  16.956  0.00  0.00    +0.033 C 
ATOM      3  C   UNL     1      28.799  22.742  17.972  0.00  0.00    +0.109 C 
ATOM      4  N   UNL     1      30.224  22.752  18.231  0.00  0.00    -0.297 N 
ATOM      5  C   UNL     1      30.741  23.228  19.430  0.00  0.00    +0.247 C 
ATOM      6  O   UNL     1      30.006  23.581  20.351  0.00  0.00    -0.270 OA
ATOM      7  C   UNL     1      30.933  22.342  17.030  0.00  0.00    +0.120 C 
ENDROOT
BRANCH   5   8
ATOM      8  C   UNL     1      32.221  23.258  19.672  0.00  0.00    +0.038 A 
ATOM      9  C   UNL     1      32.938  22.181  20.203  0.00  0.00    +0.013 A 
ATOM     10  C   UNL     1      34.290  22.306  20.523  0.00  0.00    +0.002 A 
ATOM     11  C   UNL     1      34.969  23.480  20.216  0.00  0.00    +0.015 A 
ATOM     12  C   UNL     1      34.308  24.521  19.557  0.00  0.00    +0.017 A 
ATOM     13  C   UNL     1      32.929  24.420  19.321  0.00  0.00    +0.028 A 
BRANCH  12  14
ATOM     14  S   UNL     1      35.189  25.985  19.055  0.00  0.00    -0.016 S 
BRANCH  14  15
ATOM     15  C   UNL     1      34.278  26.449  17.567  0.00  0.00    +0.448 C 
ATOM     16  F   UNL     1      33.055  26.976  17.811  0.00  0.00    -0.160 F 
ATOM     17  F   UNL     1      34.968  27.364  16.845  0.00  0.00    -0.160 F 
ATOM     18  F   UNL     1      34.090  25.370  16.768  0.00  0.00    -0.160 F 
ENDBRANCH  14  15
ENDBRANCH  12  14
ENDBRANCH   5   8
BRANCH   1  20
ATOM     19  N   UNL     1      30.203  23.315  14.574  0.00  0.00    -0.329 N 
ATOM     20  C   UNL     1      29.882  22.003  14.762  0.00  0.00    +0.215 C 
ATOM     21  O   UNL     1      29.518  21.318  13.818  0.00  0.00    -0.276 OA
ATOM     22  H   UNL     1      30.108  23.689  13.638  0.00  0.00    +0.145 HD
ATOM     23  H   UNL     1      30.441  23.944  15.328  0.00  0.00    +0.145 HD
ENDBRANCH   1  20
TORSDOF 4
ENDMDL
MODEL 8
REMARK VINA RESULT:      -6.3      3.598      5.639
REMARK  Name = ZINC000826139982
REMARK  4 active torsions:
REMARK  status: ('A' for Active; 'I' for Inactive)
REMARK    1  A    between atoms: C_2  and  C_4
REMARK    2  A    between atoms: C_8  and  C_10
REMARK    3  A    between atoms: C_14  and  S_15
REMARK    4  A    between atoms: S_15  and  C_16
REMARK                            x       y       z     vdW  Elec       q    Type
REMARK                         _______ _______ _______ _____ _____    ______ ____
ROOT
ATOM      1  C   UNL     1      28.725  22.443  16.761  0.00  0.00    +0.093 C 
ATOM      2  C   UNL     1      29.240  21.627  15.570  0.00  0.00    +0.033 C 
ATOM      3  C   UNL     1      30.495  20.926  16.072  0.00  0.00    +0.109 C 
ATOM      4  N   UNL     1      30.991  21.794  17.120  0.00  0.00    -0.297 N 
ATOM      5  C   UNL     1      32.336  21.819  17.467  0.00  0.00    +0.247 C 
ATOM      6  O   UNL     1      33.173  21.166  16.843  0.00  0.00    -0.270 OA
ATOM      7  C   UNL     1      29.869  22.455  17.767  0.00  0.00    +0.120 C 
ENDROOT
BRANCH   5   8
ATOM      8  C   UNL     1      32.830  22.703  18.574  0.00  0.00    +0.038 A 
ATOM      9  C   UNL     1      32.473  22.534  19.915  0.00  0.00    +0.013 A 
ATOM     10  C   UNL     1      32.860  23.458  20.884  0.00  0.00    +0.002 A 
ATOM     11  C   UNL     1      33.702  24.510  20.541  0.00  0.00    +0.015 A 
ATOM     12  C   UNL     1      34.187  24.622  19.235  0.00  0.00    +0.017 A 
ATOM     13  C   UNL     1      33.721  23.741  18.249  0.00  0.00    +0.028 A 
BRANCH  12  14
ATOM     14  S   UNL     1      35.356  25.896  18.805  0.00  0.00    -0.016 S 
BRANCH  14  15
ATOM     15  C   UNL     1      34.513  26.692  17.421  0.00  0.00    +0.448 C 
ATOM     16  F   UNL     1      35.102  27.836  17.001  0.00  0.00    -0.160 F 
ATOM     17  F   UNL     1      34.449  25.862  16.353  0.00  0.00    -0.160 F 
ATOM     18  F   UNL     1      33.237  27.007  17.758  0.00  0.00    -0.160 F 
ENDBRANCH  14  15
ENDBRANCH  12  14
ENDBRANCH   5   8
BRANCH   1  20
ATOM     19  N   UNL     1      27.456  21.785  18.726  0.00  0.00    -0.329 N 
ATOM     20  C   UNL     1      27.437  21.919  17.369  0.00  0.00    +0.215 C 
ATOM     21  O   UNL     1      26.454  21.572  16.731  0.00  0.00    -0.276 OA
ATOM     22  H   UNL     1      26.642  21.374  19.166  0.00  0.00    +0.145 HD
ATOM     23  H   UNL     1      28.265  21.989  19.295  0.00  0.00    +0.145 HD
ENDBRANCH   1  20
TORSDOF 4
ENDMDL
MODEL 9
REMARK VINA RESULT:      -6.2     21.466     22.827
REMARK  Name = ZINC000826139982
REMARK  4 active torsions:
REMARK  status: ('A' for Active; 'I' for Inactive)
REMARK    1  A    between atoms: C_2  and  C_4
REMARK    2  A    between atoms: C_8  and  C_10
REMARK    3  A    between atoms: C_14  and  S_15
REMARK    4  A    between atoms: S_15  and  C_16
REMARK                            x       y       z     vdW  Elec       q    Type
REMARK                         _______ _______ _______ _____ _____    ______ ____
ROOT
ATOM      1  C   UNL     1      19.268   3.324  27.251  0.00  0.00    +0.093 C 
ATOM      2  C   UNL     1      18.145   4.227  27.773  0.00  0.00    +0.033 C 
ATOM      3  C   UNL     1      18.776   5.602  27.941  0.00  0.00    +0.109 C 
ATOM      4  N   UNL     1      20.177   5.323  28.181  0.00  0.00    -0.297 N 
ATOM      5  C   UNL     1      20.985   6.208  28.885  0.00  0.00    +0.247 C 
ATOM      6  O   UNL     1      20.523   7.225  29.403  0.00  0.00    -0.270 OA
ATOM      7  C   UNL     1      20.554   4.113  27.469  0.00  0.00    +0.120 C 
ENDROOT
BRANCH   5   8
ATOM      8  C   UNL     1      22.440   5.917  29.100  0.00  0.00    +0.038 A 
ATOM      9  C   UNL     1      22.974   5.520  30.330  0.00  0.00    +0.013 A 
ATOM     10  C   UNL     1      24.350   5.383  30.506  0.00  0.00    +0.002 A 
ATOM     11  C   UNL     1      25.206   5.539  29.422  0.00  0.00    +0.015 A 
ATOM     12  C   UNL     1      24.686   5.799  28.150  0.00  0.00    +0.017 A 
ATOM     13  C   UNL     1      23.310   6.024  28.002  0.00  0.00    +0.028 A 
BRANCH  12  14
ATOM     14  S   UNL     1      25.758   5.889  26.730  0.00  0.00    -0.016 S 
BRANCH  14  15
ATOM     15  C   UNL     1      26.186   7.643  26.725  0.00  0.00    +0.448 C 
ATOM     16  F   UNL     1      26.299   8.187  27.960  0.00  0.00    -0.160 F 
ATOM     17  F   UNL     1      27.365   7.850  26.091  0.00  0.00    -0.160 F 
ATOM     18  F   UNL     1      25.246   8.361  26.062  0.00  0.00    -0.160 F 
ENDBRANCH  14  15
ENDBRANCH  12  14
ENDBRANCH   5   8
BRANCH   1  20
ATOM     19  N   UNL     1      17.811   2.721  25.403  0.00  0.00    -0.329 N 
ATOM     20  C   UNL     1      19.103   2.890  25.807  0.00  0.00    +0.215 C 
ATOM     21  O   UNL     1      20.024   2.636  25.045  0.00  0.00    -0.276 OA
ATOM     22  H   UNL     1      17.658   2.365  24.468  0.00  0.00    +0.145 HD
ATOM     23  H   UNL     1      17.016   2.847  26.012  0.00  0.00    +0.145 HD
ENDBRANCH   1  20
TORSDOF 4
ENDMDL
