MODEL 1
REMARK VINA RESULT:      -7.2      0.000      0.000
REMARK  Name = ZINC001228612316
REMARK  5 active torsions:
REMARK  status: ('A' for Active; 'I' for Inactive)
REMARK    1  A    between atoms: C_2  and  C_4
REMARK    2  A    between atoms: C_8  and  O_9
REMARK    3  A    between atoms: O_9  and  C_10
REMARK    4  A    between atoms: C_10  and  C_11
REMARK    5  A    between atoms: C_10  and  C_17
REMARK                            x       y       z     vdW  Elec       q    Type
REMARK                         _______ _______ _______ _____ _____    ______ ____
ROOT
ATOM      1  C   UNL     1      23.587  23.591  17.849  0.00  0.00    +0.040 A 
ATOM      2  C   UNL     1      23.842  23.600  19.225  0.00  0.00    +0.013 A 
ATOM      3  C   UNL     1      24.944  22.914  19.736  0.00  0.00    +0.004 A 
ATOM      4  C   UNL     1      25.798  22.215  18.879  0.00  0.00    +0.046 A 
ATOM      5  C   UNL     1      25.551  22.196  17.506  0.00  0.00    +0.122 A 
ATOM      6  C   UNL     1      24.446  22.888  16.995  0.00  0.00    +0.058 A 
ENDROOT
BRANCH   1   8
ATOM      7  N   UNL     1      21.875  23.975  16.150  0.00  0.00    -0.325 N 
ATOM      8  C   UNL     1      22.410  24.353  17.351  0.00  0.00    +0.242 C 
ATOM      9  O   UNL     1      21.908  25.261  18.002  0.00  0.00    -0.270 OA
ATOM     10  H   UNL     1      21.014  24.435  15.882  0.00  0.00    +0.145 HD
ATOM     11  H   UNL     1      22.097  23.098  15.704  0.00  0.00    +0.145 HD
ENDBRANCH   1   8
BRANCH   5  12
ATOM     12  O   UNL     1      26.269  21.492  16.577  0.00  0.00    -0.484 OA
BRANCH  12  13
ATOM     13  C   UNL     1      27.450  20.791  17.000  0.00  0.00    +0.208 C 
BRANCH  13  14
ATOM     14  C   UNL     1      27.734  19.546  16.182  0.00  0.00    +0.011 A 
ATOM     15  C   UNL     1      27.341  18.263  16.574  0.00  0.00    +0.010 A 
ATOM     16  C   UNL     1      27.563  17.184  15.722  0.00  0.00    +0.020 A 
ATOM     17  C   UNL     1      28.170  17.422  14.499  0.00  0.00    +0.111 A 
ATOM     18  N   UNL     1      28.572  18.641  14.088  0.00  0.00    -0.263 NA
ATOM     19  C   UNL     1      28.343  19.670  14.933  0.00  0.00    +0.118 A 
ENDBRANCH  13  14
BRANCH  13  20
ATOM     20  C   UNL     1      28.659  21.710  16.862  0.00  0.00    +0.034 C 
ATOM     21  C   UNL     1      30.021  21.263  17.338  0.00  0.00    +0.008 C 
ATOM     22  C   UNL     1      29.318  22.392  18.040  0.00  0.00    +0.008 C 
ENDBRANCH  13  20
ENDBRANCH  12  13
ENDBRANCH   5  12
TORSDOF 5
ENDMDL
MODEL 2
REMARK VINA RESULT:      -6.8      3.441      5.547
REMARK  Name = ZINC001228612316
REMARK  5 active torsions:
REMARK  status: ('A' for Active; 'I' for Inactive)
REMARK    1  A    between atoms: C_2  and  C_4
REMARK    2  A    between atoms: C_8  and  O_9
REMARK    3  A    between atoms: O_9  and  C_10
REMARK    4  A    between atoms: C_10  and  C_11
REMARK    5  A    between atoms: C_10  and  C_17
REMARK                            x       y       z     vdW  Elec       q    Type
REMARK                         _______ _______ _______ _____ _____    ______ ____
ROOT
ATOM      1  C   UNL     1      27.258  20.030  16.260  0.00  0.00    +0.040 A 
ATOM      2  C   UNL     1      26.492  18.896  16.553  0.00  0.00    +0.013 A 
ATOM      3  C   UNL     1      26.825  17.663  15.990  0.00  0.00    +0.004 A 
ATOM      4  C   UNL     1      27.923  17.554  15.133  0.00  0.00    +0.046 A 
ATOM      5  C   UNL     1      28.691  18.678  14.831  0.00  0.00    +0.122 A 
ATOM      6  C   UNL     1      28.356  19.914  15.399  0.00  0.00    +0.058 A 
ENDROOT
BRANCH   1   8
ATOM      7  N   UNL     1      27.826  21.967  17.636  0.00  0.00    -0.325 N 
ATOM      8  C   UNL     1      26.873  21.317  16.898  0.00  0.00    +0.242 C 
ATOM      9  O   UNL     1      25.761  21.806  16.744  0.00  0.00    -0.270 OA
ATOM     10  H   UNL     1      27.577  22.889  17.972  0.00  0.00    +0.145 HD
ATOM     11  H   UNL     1      28.806  21.731  17.593  0.00  0.00    +0.145 HD
ENDBRANCH   1   8
BRANCH   5  12
ATOM     12  O   UNL     1      29.741  18.713  13.953  0.00  0.00    -0.484 OA
BRANCH  12  13
ATOM     13  C   UNL     1      30.987  18.110  14.339  0.00  0.00    +0.208 C 
BRANCH  13  14
ATOM     14  C   UNL     1      31.415  16.980  13.423  0.00  0.00    +0.011 A 
ATOM     15  C   UNL     1      32.533  17.050  12.588  0.00  0.00    +0.010 A 
ATOM     16  C   UNL     1      32.909  15.934  11.844  0.00  0.00    +0.020 A 
ATOM     17  C   UNL     1      32.153  14.778  11.959  0.00  0.00    +0.111 A 
ATOM     18  N   UNL     1      31.062  14.673  12.745  0.00  0.00    -0.263 NA
ATOM     19  C   UNL     1      30.722  15.769  13.457  0.00  0.00    +0.118 A 
ENDBRANCH  13  14
BRANCH  13  20
ATOM     20  C   UNL     1      32.089  19.163  14.304  0.00  0.00    +0.034 C 
ATOM     21  C   UNL     1      33.156  19.193  15.372  0.00  0.00    +0.008 C 
ATOM     22  C   UNL     1      32.161  20.317  15.279  0.00  0.00    +0.008 C 
ENDBRANCH  13  20
ENDBRANCH  12  13
ENDBRANCH   5  12
TORSDOF 5
ENDMDL
MODEL 3
REMARK VINA RESULT:      -6.7      3.213      4.987
REMARK  Name = ZINC001228612316
REMARK  5 active torsions:
REMARK  status: ('A' for Active; 'I' for Inactive)
REMARK    1  A    between atoms: C_2  and  C_4
REMARK    2  A    between atoms: C_8  and  O_9
REMARK    3  A    between atoms: O_9  and  C_10
REMARK    4  A    between atoms: C_10  and  C_11
REMARK    5  A    between atoms: C_10  and  C_17
REMARK                            x       y       z     vdW  Elec       q    Type
REMARK                         _______ _______ _______ _____ _____    ______ ____
ROOT
ATOM      1  C   UNL     1      26.878  20.203  16.502  0.00  0.00    +0.040 A 
ATOM      2  C   UNL     1      26.225  18.974  16.652  0.00  0.00    +0.013 A 
ATOM      3  C   UNL     1      26.722  17.836  16.017  0.00  0.00    +0.004 A 
ATOM      4  C   UNL     1      27.873  17.916  15.229  0.00  0.00    +0.046 A 
ATOM      5  C   UNL     1      28.530  19.135  15.068  0.00  0.00    +0.122 A 
ATOM      6  C   UNL     1      28.030  20.276  15.709  0.00  0.00    +0.058 A 
ENDROOT
BRANCH   1   8
ATOM      7  N   UNL     1      26.904  21.743  18.398  0.00  0.00    -0.325 N 
ATOM      8  C   UNL     1      26.319  21.384  17.213  0.00  0.00    +0.242 C 
ATOM      9  O   UNL     1      25.395  22.039  16.747  0.00  0.00    -0.270 OA
ATOM     10  H   UNL     1      26.579  22.609  18.810  0.00  0.00    +0.145 HD
ATOM     11  H   UNL     1      27.801  21.390  18.694  0.00  0.00    +0.145 HD
ENDBRANCH   1   8
BRANCH   5  12
ATOM     12  O   UNL     1      29.619  19.355  14.268  0.00  0.00    -0.484 OA
BRANCH  12  13
ATOM     13  C   UNL     1      30.899  18.853  14.686  0.00  0.00    +0.208 C 
BRANCH  13  14
ATOM     14  C   UNL     1      31.390  17.689  13.847  0.00  0.00    +0.011 A 
ATOM     15  C   UNL     1      31.014  16.363  14.079  0.00  0.00    +0.010 A 
ATOM     16  C   UNL     1      31.439  15.363  13.207  0.00  0.00    +0.020 A 
ATOM     17  C   UNL     1      32.228  15.722  12.126  0.00  0.00    +0.111 A 
ATOM     18  N   UNL     1      32.620  16.987  11.872  0.00  0.00    -0.263 NA
ATOM     19  C   UNL     1      32.192  17.936  12.733  0.00  0.00    +0.118 A 
ENDBRANCH  13  14
BRANCH  13  20
ATOM     20  C   UNL     1      31.938  19.964  14.572  0.00  0.00    +0.034 C 
ATOM     21  C   UNL     1      33.034  20.097  15.601  0.00  0.00    +0.008 C 
ATOM     22  C   UNL     1      31.974  21.159  15.498  0.00  0.00    +0.008 C 
ENDBRANCH  13  20
ENDBRANCH  12  13
ENDBRANCH   5  12
TORSDOF 5
ENDMDL
MODEL 4
REMARK VINA RESULT:      -6.5      4.146      6.179
REMARK  Name = ZINC001228612316
REMARK  5 active torsions:
REMARK  status: ('A' for Active; 'I' for Inactive)
REMARK    1  A    between atoms: C_2  and  C_4
REMARK    2  A    between atoms: C_8  and  O_9
REMARK    3  A    between atoms: O_9  and  C_10
REMARK    4  A    between atoms: C_10  and  C_11
REMARK    5  A    between atoms: C_10  and  C_17
REMARK                            x       y       z     vdW  Elec       q    Type
REMARK                         _______ _______ _______ _____ _____    ______ ____
ROOT
ATOM      1  C   UNL     1      28.031  18.009  15.315  0.00  0.00    +0.040 A 
ATOM      2  C   UNL     1      26.794  17.834  15.946  0.00  0.00    +0.013 A 
ATOM      3  C   UNL     1      26.210  18.891  16.645  0.00  0.00    +0.004 A 
ATOM      4  C   UNL     1      26.855  20.128  16.718  0.00  0.00    +0.046 A 
ATOM      5  C   UNL     1      28.091  20.313  16.098  0.00  0.00    +0.122 A 
ATOM      6  C   UNL     1      28.674  19.251  15.395  0.00  0.00    +0.058 A 
ENDROOT
BRANCH   1   8
ATOM      7  N   UNL     1      29.968  16.786  14.465  0.00  0.00    -0.325 N 
ATOM      8  C   UNL     1      28.604  16.858  14.568  0.00  0.00    +0.242 C 
ATOM      9  O   UNL     1      27.894  15.981  14.091  0.00  0.00    -0.270 OA
ATOM     10  H   UNL     1      30.338  15.943  14.046  0.00  0.00    +0.145 HD
ATOM     11  H   UNL     1      30.589  17.340  15.035  0.00  0.00    +0.145 HD
ENDBRANCH   1   8
BRANCH   5  12
ATOM     12  O   UNL     1      28.851  21.449  16.159  0.00  0.00    -0.484 OA
BRANCH  12  13
ATOM     13  C   UNL     1      29.905  21.526  17.134  0.00  0.00    +0.208 C 
BRANCH  13  14
ATOM     14  C   UNL     1      31.291  21.422  16.528  0.00  0.00    +0.011 A 
ATOM     15  C   UNL     1      32.251  20.503  16.961  0.00  0.00    +0.010 A 
ATOM     16  C   UNL     1      33.469  20.412  16.292  0.00  0.00    +0.020 A 
ATOM     17  C   UNL     1      33.690  21.242  15.205  0.00  0.00    +0.111 A 
ATOM     18  N   UNL     1      32.794  22.148  14.762  0.00  0.00    -0.263 NA
ATOM     19  C   UNL     1      31.621  22.214  15.428  0.00  0.00    +0.118 A 
ENDBRANCH  13  14
BRANCH  13  20
ATOM     20  C   UNL     1      29.826  22.867  17.857  0.00  0.00    +0.034 C 
ATOM     21  C   UNL     1      30.734  23.161  19.027  0.00  0.00    +0.008 C 
ATOM     22  C   UNL     1      29.252  23.023  19.247  0.00  0.00    +0.008 C 
ENDBRANCH  13  20
ENDBRANCH  12  13
ENDBRANCH   5  12
TORSDOF 5
ENDMDL
MODEL 5
REMARK VINA RESULT:      -6.5      4.177      6.617
REMARK  Name = ZINC001228612316
REMARK  5 active torsions:
REMARK  status: ('A' for Active; 'I' for Inactive)
REMARK    1  A    between atoms: C_2  and  C_4
REMARK    2  A    between atoms: C_8  and  O_9
REMARK    3  A    between atoms: O_9  and  C_10
REMARK    4  A    between atoms: C_10  and  C_11
REMARK    5  A    between atoms: C_10  and  C_17
REMARK                            x       y       z     vdW  Elec       q    Type
REMARK                         _______ _______ _______ _____ _____    ______ ____
ROOT
ATOM      1  C   UNL     1      31.233  23.554  12.414  0.00  0.00    +0.040 A 
ATOM      2  C   UNL     1      32.628  23.626  12.499  0.00  0.00    +0.013 A 
ATOM      3  C   UNL     1      33.334  22.673  13.233  0.00  0.00    +0.004 A 
ATOM      4  C   UNL     1      32.654  21.643  13.887  0.00  0.00    +0.046 A 
ATOM      5  C   UNL     1      31.263  21.563  13.814  0.00  0.00    +0.122 A 
ATOM      6  C   UNL     1      30.557  22.520  13.074  0.00  0.00    +0.058 A 
ENDROOT
BRANCH   1   8
ATOM      7  N   UNL     1      29.389  25.131  12.132  0.00  0.00    -0.325 N 
ATOM      8  C   UNL     1      30.527  24.583  11.604  0.00  0.00    +0.242 C 
ATOM      9  O   UNL     1      30.960  24.961  10.522  0.00  0.00    -0.270 OA
ATOM     10  H   UNL     1      28.985  25.902  11.615  0.00  0.00    +0.145 HD
ATOM     11  H   UNL     1      29.133  25.031  13.102  0.00  0.00    +0.145 HD
ENDBRANCH   1   8
BRANCH   5  12
ATOM     12  O   UNL     1      30.482  20.648  14.467  0.00  0.00    -0.484 OA
BRANCH  12  13
ATOM     13  C   UNL     1      29.609  21.104  15.512  0.00  0.00    +0.208 C 
BRANCH  13  14
ATOM     14  C   UNL     1      28.433  20.177  15.758  0.00  0.00    +0.011 A 
ATOM     15  C   UNL     1      28.460  18.810  15.468  0.00  0.00    +0.010 A 
ATOM     16  C   UNL     1      27.369  18.013  15.807  0.00  0.00    +0.020 A 
ATOM     17  C   UNL     1      26.283  18.609  16.428  0.00  0.00    +0.111 A 
ATOM     18  N   UNL     1      26.214  19.924  16.716  0.00  0.00    -0.263 NA
ATOM     19  C   UNL     1      27.286  20.673  16.379  0.00  0.00    +0.118 A 
ENDBRANCH  13  14
BRANCH  13  20
ATOM     20  C   UNL     1      30.392  21.198  16.818  0.00  0.00    +0.034 C 
ATOM     21  C   UNL     1      29.894  22.066  17.949  0.00  0.00    +0.008 C 
ATOM     22  C   UNL     1      31.165  22.431  17.231  0.00  0.00    +0.008 C 
ENDBRANCH  13  20
ENDBRANCH  12  13
ENDBRANCH   5  12
TORSDOF 5
ENDMDL
MODEL 6
REMARK VINA RESULT:      -6.4      4.308      6.454
REMARK  Name = ZINC001228612316
REMARK  5 active torsions:
REMARK  status: ('A' for Active; 'I' for Inactive)
REMARK    1  A    between atoms: C_2  and  C_4
REMARK    2  A    between atoms: C_8  and  O_9
REMARK    3  A    between atoms: O_9  and  C_10
REMARK    4  A    between atoms: C_10  and  C_11
REMARK    5  A    between atoms: C_10  and  C_17
REMARK                            x       y       z     vdW  Elec       q    Type
REMARK                         _______ _______ _______ _____ _____    ______ ____
ROOT
ATOM      1  C   UNL     1      28.056  17.886  15.090  0.00  0.00    +0.040 A 
ATOM      2  C   UNL     1      26.951  17.756  15.939  0.00  0.00    +0.013 A 
ATOM      3  C   UNL     1      26.458  18.869  16.620  0.00  0.00    +0.004 A 
ATOM      4  C   UNL     1      27.063  20.119  16.458  0.00  0.00    +0.046 A 
ATOM      5  C   UNL     1      28.167  20.260  15.617  0.00  0.00    +0.122 A 
ATOM      6  C   UNL     1      28.658  19.140  14.933  0.00  0.00    +0.058 A 
ENDROOT
BRANCH   1   8
ATOM      7  N   UNL     1      29.883  16.536  14.192  0.00  0.00    -0.325 N 
ATOM      8  C   UNL     1      28.533  16.673  14.372  0.00  0.00    +0.242 C 
ATOM      9  O   UNL     1      27.758  15.806  13.987  0.00  0.00    -0.270 OA
ATOM     10  H   UNL     1      30.191  15.656  13.797  0.00  0.00    +0.145 HD
ATOM     11  H   UNL     1      30.560  17.090  14.692  0.00  0.00    +0.145 HD
ENDBRANCH   1   8
BRANCH   5  12
ATOM     12  O   UNL     1      28.886  21.409  15.433  0.00  0.00    -0.484 OA
BRANCH  12  13
ATOM     13  C   UNL     1      30.319  21.353  15.533  0.00  0.00    +0.208 C 
BRANCH  13  14
ATOM     14  C   UNL     1      31.027  21.951  14.333  0.00  0.00    +0.011 A 
ATOM     15  C   UNL     1      30.359  22.388  13.186  0.00  0.00    +0.010 A 
ATOM     16  C   UNL     1      31.076  23.006  12.164  0.00  0.00    +0.020 A 
ATOM     17  C   UNL     1      32.442  23.171  12.323  0.00  0.00    +0.111 A 
ATOM     18  N   UNL     1      33.125  22.756  13.408  0.00  0.00    -0.263 NA
ATOM     19  C   UNL     1      32.406  22.161  14.384  0.00  0.00    +0.118 A 
ENDBRANCH  13  14
BRANCH  13  20
ATOM     20  C   UNL     1      30.769  22.137  16.762  0.00  0.00    +0.034 C 
ATOM     21  C   UNL     1      31.221  21.415  18.009  0.00  0.00    +0.008 C 
ATOM     22  C   UNL     1      29.952  22.224  18.032  0.00  0.00    +0.008 C 
ENDBRANCH  13  20
ENDBRANCH  12  13
ENDBRANCH   5  12
TORSDOF 5
ENDMDL
MODEL 7
REMARK VINA RESULT:      -6.3      4.842      7.625
REMARK  Name = ZINC001228612316
REMARK  5 active torsions:
REMARK  status: ('A' for Active; 'I' for Inactive)
REMARK    1  A    between atoms: C_2  and  C_4
REMARK    2  A    between atoms: C_8  and  O_9
REMARK    3  A    between atoms: O_9  and  C_10
REMARK    4  A    between atoms: C_10  and  C_11
REMARK    5  A    between atoms: C_10  and  C_17
REMARK                            x       y       z     vdW  Elec       q    Type
REMARK                         _______ _______ _______ _____ _____    ______ ____
ROOT
ATOM      1  C   UNL     1      29.601  17.082  14.276  0.00  0.00    +0.040 A 
ATOM      2  C   UNL     1      28.525  16.675  15.073  0.00  0.00    +0.013 A 
ATOM      3  C   UNL     1      27.583  17.609  15.505  0.00  0.00    +0.004 A 
ATOM      4  C   UNL     1      27.708  18.953  15.145  0.00  0.00    +0.046 A 
ATOM      5  C   UNL     1      28.778  19.371  14.355  0.00  0.00    +0.122 A 
ATOM      6  C   UNL     1      29.721  18.431  13.920  0.00  0.00    +0.058 A 
ENDROOT
BRANCH   1   8
ATOM      7  N   UNL     1      31.766  15.970  14.484  0.00  0.00    -0.325 N 
ATOM      8  C   UNL     1      30.569  16.046  13.825  0.00  0.00    +0.242 C 
ATOM      9  O   UNL     1      30.299  15.260  12.925  0.00  0.00    -0.270 OA
ATOM     10  H   UNL     1      32.364  15.193  14.233  0.00  0.00    +0.145 HD
ATOM     11  H   UNL     1      31.933  16.424  15.369  0.00  0.00    +0.145 HD
ENDBRANCH   1   8
BRANCH   5  12
ATOM     12  O   UNL     1      29.048  20.665  13.998  0.00  0.00    -0.484 OA
BRANCH  12  13
ATOM     13  C   UNL     1      30.107  21.363  14.673  0.00  0.00    +0.208 C 
BRANCH  13  14
ATOM     14  C   UNL     1      30.868  22.315  13.770  0.00  0.00    +0.011 A 
ATOM     15  C   UNL     1      30.274  23.010  12.713  0.00  0.00    +0.010 A 
ATOM     16  C   UNL     1      31.023  23.934  11.988  0.00  0.00    +0.020 A 
ATOM     17  C   UNL     1      32.346  24.136  12.344  0.00  0.00    +0.111 A 
ATOM     18  N   UNL     1      32.959  23.479  13.350  0.00  0.00    -0.263 NA
ATOM     19  C   UNL     1      32.209  22.591  14.037  0.00  0.00    +0.118 A 
ENDBRANCH  13  14
BRANCH  13  20
ATOM     20  C   UNL     1      29.521  22.190  15.812  0.00  0.00    +0.034 C 
ATOM     21  C   UNL     1      30.367  22.553  17.009  0.00  0.00    +0.008 C 
ATOM     22  C   UNL     1      29.205  21.612  17.174  0.00  0.00    +0.008 C 
ENDBRANCH  13  20
ENDBRANCH  12  13
ENDBRANCH   5  12
TORSDOF 5
ENDMDL
MODEL 8
REMARK VINA RESULT:      -6.1      4.594      7.794
REMARK  Name = ZINC001228612316
REMARK  5 active torsions:
REMARK  status: ('A' for Active; 'I' for Inactive)
REMARK    1  A    between atoms: C_2  and  C_4
REMARK    2  A    between atoms: C_8  and  O_9
REMARK    3  A    between atoms: O_9  and  C_10
REMARK    4  A    between atoms: C_10  and  C_11
REMARK    5  A    between atoms: C_10  and  C_17
REMARK                            x       y       z     vdW  Elec       q    Type
REMARK                         _______ _______ _______ _____ _____    ______ ____
ROOT
ATOM      1  C   UNL     1      22.842  23.972  16.965  0.00  0.00    +0.040 A 
ATOM      2  C   UNL     1      24.031  23.235  16.992  0.00  0.00    +0.013 A 
ATOM      3  C   UNL     1      24.593  22.858  18.213  0.00  0.00    +0.004 A 
ATOM      4  C   UNL     1      23.972  23.215  19.413  0.00  0.00    +0.046 A 
ATOM      5  C   UNL     1      22.789  23.954  19.399  0.00  0.00    +0.122 A 
ATOM      6  C   UNL     1      22.226  24.328  18.172  0.00  0.00    +0.058 A 
ENDROOT
BRANCH   1   8
ATOM      7  N   UNL     1      21.357  25.350  15.600  0.00  0.00    -0.325 N 
ATOM      8  C   UNL     1      22.273  24.334  15.639  0.00  0.00    +0.242 C 
ATOM      9  O   UNL     1      22.633  23.776  14.610  0.00  0.00    -0.270 OA
ATOM     10  H   UNL     1      21.064  25.650  14.679  0.00  0.00    +0.145 HD
ATOM     11  H   UNL     1      21.214  25.987  16.369  0.00  0.00    +0.145 HD
ENDBRANCH   1   8
BRANCH   5  12
ATOM     12  O   UNL     1      22.130  24.423  20.502  0.00  0.00    -0.484 OA
BRANCH  12  13
ATOM     13  C   UNL     1      22.897  24.959  21.593  0.00  0.00    +0.208 C 
BRANCH  13  14
ATOM     14  C   UNL     1      23.759  26.142  21.196  0.00  0.00    +0.011 A 
ATOM     15  C   UNL     1      23.234  27.367  20.777  0.00  0.00    +0.010 A 
ATOM     16  C   UNL     1      24.093  28.432  20.515  0.00  0.00    +0.020 A 
ATOM     17  C   UNL     1      25.455  28.238  20.683  0.00  0.00    +0.111 A 
ATOM     18  N   UNL     1      26.001  27.069  21.075  0.00  0.00    -0.263 NA
ATOM     19  C   UNL     1      25.145  26.055  21.324  0.00  0.00    +0.118 A 
ENDBRANCH  13  14
BRANCH  13  20
ATOM     20  C   UNL     1      21.950  25.436  22.689  0.00  0.00    +0.034 C 
ATOM     21  C   UNL     1      22.473  25.751  24.070  0.00  0.00    +0.008 C 
ATOM     22  C   UNL     1      21.554  24.577  23.870  0.00  0.00    +0.008 C 
ENDBRANCH  13  20
ENDBRANCH  12  13
ENDBRANCH   5  12
TORSDOF 5
ENDMDL
MODEL 9
REMARK VINA RESULT:      -6.1      3.307      5.637
REMARK  Name = ZINC001228612316
REMARK  5 active torsions:
REMARK  status: ('A' for Active; 'I' for Inactive)
REMARK    1  A    between atoms: C_2  and  C_4
REMARK    2  A    between atoms: C_8  and  O_9
REMARK    3  A    between atoms: O_9  and  C_10
REMARK    4  A    between atoms: C_10  and  C_11
REMARK    5  A    between atoms: C_10  and  C_17
REMARK                            x       y       z     vdW  Elec       q    Type
REMARK                         _______ _______ _______ _____ _____    ______ ____
ROOT
ATOM      1  C   UNL     1      27.347  20.040  16.461  0.00  0.00    +0.040 A 
ATOM      2  C   UNL     1      26.785  18.833  16.891  0.00  0.00    +0.013 A 
ATOM      3  C   UNL     1      27.059  17.650  16.204  0.00  0.00    +0.004 A 
ATOM      4  C   UNL     1      27.895  17.664  15.085  0.00  0.00    +0.046 A 
ATOM      5  C   UNL     1      28.458  18.862  14.644  0.00  0.00    +0.122 A 
ATOM      6  C   UNL     1      28.183  20.047  15.337  0.00  0.00    +0.058 A 
ENDROOT
BRANCH   1   8
ATOM      7  N   UNL     1      25.848  21.898  16.982  0.00  0.00    -0.325 N 
ATOM      8  C   UNL     1      27.038  21.271  17.237  0.00  0.00    +0.242 C 
ATOM      9  O   UNL     1      27.796  21.695  18.101  0.00  0.00    -0.270 OA
ATOM     10  H   UNL     1      25.612  22.669  17.593  0.00  0.00    +0.145 HD
ATOM     11  H   UNL     1      25.100  21.462  16.465  0.00  0.00    +0.145 HD
ENDBRANCH   1   8
BRANCH   5  12
ATOM     12  O   UNL     1      29.231  19.015  13.525  0.00  0.00    -0.484 OA
BRANCH  12  13
ATOM     13  C   UNL     1      30.655  18.861  13.639  0.00  0.00    +0.208 C 
BRANCH  13  14
ATOM     14  C   UNL     1      31.322  19.995  14.392  0.00  0.00    +0.011 A 
ATOM     15  C   UNL     1      31.829  19.862  15.688  0.00  0.00    +0.010 A 
ATOM     16  C   UNL     1      32.507  20.928  16.276  0.00  0.00    +0.020 A 
ATOM     17  C   UNL     1      32.659  22.096  15.546  0.00  0.00    +0.111 A 
ATOM     18  N   UNL     1      32.177  22.268  14.299  0.00  0.00    -0.263 NA
ATOM     19  C   UNL     1      31.526  21.218  13.753  0.00  0.00    +0.118 A 
ENDBRANCH  13  14
BRANCH  13  20
ATOM     20  C   UNL     1      30.963  17.572  14.394  0.00  0.00    +0.034 C 
ATOM     21  C   UNL     1      32.243  16.816  14.130  0.00  0.00    +0.008 C 
ATOM     22  C   UNL     1      30.923  16.205  13.748  0.00  0.00    +0.008 C 
ENDBRANCH  13  20
ENDBRANCH  12  13
ENDBRANCH   5  12
TORSDOF 5
ENDMDL
