MODEL 1
REMARK VINA RESULT:      -6.9      0.000      0.000
REMARK  Name = ZINC001228612316
REMARK  5 active torsions:
REMARK  status: ('A' for Active; 'I' for Inactive)
REMARK    1  A    between atoms: C_2  and  C_4
REMARK    2  A    between atoms: C_8  and  O_9
REMARK    3  A    between atoms: O_9  and  C_10
REMARK    4  A    between atoms: C_10  and  C_11
REMARK    5  A    between atoms: C_10  and  C_17
REMARK                            x       y       z     vdW  Elec       q    Type
REMARK                         _______ _______ _______ _____ _____    ______ ____
ROOT
ATOM      1  C   UNL     1      29.266  14.592  13.604  0.00  0.00    +0.040 A 
ATOM      2  C   UNL     1      28.378  14.275  14.635  0.00  0.00    +0.013 A 
ATOM      3  C   UNL     1      28.462  14.957  15.851  0.00  0.00    +0.004 A 
ATOM      4  C   UNL     1      29.423  15.957  16.030  0.00  0.00    +0.046 A 
ATOM      5  C   UNL     1      30.307  16.283  14.999  0.00  0.00    +0.122 A 
ATOM      6  C   UNL     1      30.241  15.575  13.803  0.00  0.00    +0.058 A 
ENDROOT
BRANCH   1   8
ATOM      7  N   UNL     1      28.431  12.839  12.132  0.00  0.00    -0.325 N 
ATOM      8  C   UNL     1      29.235  13.933  12.274  0.00  0.00    +0.242 C 
ATOM      9  O   UNL     1      29.852  14.386  11.318  0.00  0.00    -0.270 OA
ATOM     10  H   UNL     1      28.317  12.501  11.184  0.00  0.00    +0.145 HD
ATOM     11  H   UNL     1      27.710  12.610  12.800  0.00  0.00    +0.145 HD
ENDBRANCH   1   8
BRANCH   5  12
ATOM     12  O   UNL     1      31.202  17.282  15.268  0.00  0.00    -0.484 OA
BRANCH  12  13
ATOM     13  C   UNL     1      31.075  18.511  14.529  0.00  0.00    +0.208 C 
BRANCH  13  14
ATOM     14  C   UNL     1      30.514  19.578  15.446  0.00  0.00    +0.011 A 
ATOM     15  C   UNL     1      30.195  20.845  14.938  0.00  0.00    +0.010 A 
ATOM     16  C   UNL     1      29.686  21.827  15.778  0.00  0.00    +0.020 A 
ATOM     17  C   UNL     1      29.508  21.511  17.113  0.00  0.00    +0.111 A 
ATOM     18  N   UNL     1      29.806  20.307  17.647  0.00  0.00    -0.263 NA
ATOM     19  C   UNL     1      30.304  19.370  16.804  0.00  0.00    +0.118 A 
ENDBRANCH  13  14
BRANCH  13  20
ATOM     20  C   UNL     1      32.430  18.928  14.003  0.00  0.00    +0.034 C 
ATOM     21  C   UNL     1      32.591  19.658  12.685  0.00  0.00    +0.008 C 
ATOM     22  C   UNL     1      33.042  18.234  12.801  0.00  0.00    +0.008 C 
ENDBRANCH  13  20
ENDBRANCH  12  13
ENDBRANCH   5  12
TORSDOF 5
ENDMDL
MODEL 2
REMARK VINA RESULT:      -6.9      1.823      2.426
REMARK  Name = ZINC001228612316
REMARK  5 active torsions:
REMARK  status: ('A' for Active; 'I' for Inactive)
REMARK    1  A    between atoms: C_2  and  C_4
REMARK    2  A    between atoms: C_8  and  O_9
REMARK    3  A    between atoms: O_9  and  C_10
REMARK    4  A    between atoms: C_10  and  C_11
REMARK    5  A    between atoms: C_10  and  C_17
REMARK                            x       y       z     vdW  Elec       q    Type
REMARK                         _______ _______ _______ _____ _____    ______ ____
ROOT
ATOM      1  C   UNL     1      29.448  14.579  13.491  0.00  0.00    +0.040 A 
ATOM      2  C   UNL     1      30.527  14.640  12.605  0.00  0.00    +0.013 A 
ATOM      3  C   UNL     1      31.630  15.439  12.917  0.00  0.00    +0.004 A 
ATOM      4  C   UNL     1      31.657  16.163  14.113  0.00  0.00    +0.046 A 
ATOM      5  C   UNL     1      30.584  16.098  15.005  0.00  0.00    +0.122 A 
ATOM      6  C   UNL     1      29.473  15.329  14.671  0.00  0.00    +0.058 A 
ENDROOT
BRANCH   1   8
ATOM      7  N   UNL     1      28.334  12.776  12.289  0.00  0.00    -0.325 N 
ATOM      8  C   UNL     1      28.246  13.742  13.250  0.00  0.00    +0.242 C 
ATOM      9  O   UNL     1      27.232  13.862  13.927  0.00  0.00    -0.270 OA
ATOM     10  H   UNL     1      27.556  12.128  12.248  0.00  0.00    +0.145 HD
ATOM     11  H   UNL     1      29.219  12.467  11.916  0.00  0.00    +0.145 HD
ENDBRANCH   1   8
BRANCH   5  12
ATOM     12  O   UNL     1      30.709  16.834  16.151  0.00  0.00    -0.484 OA
BRANCH  12  13
ATOM     13  C   UNL     1      31.600  17.965  16.125  0.00  0.00    +0.208 C 
BRANCH  13  14
ATOM     14  C   UNL     1      30.783  19.235  16.241  0.00  0.00    +0.011 A 
ATOM     15  C   UNL     1      30.677  20.105  15.148  0.00  0.00    +0.010 A 
ATOM     16  C   UNL     1      29.933  21.274  15.255  0.00  0.00    +0.020 A 
ATOM     17  C   UNL     1      29.311  21.540  16.462  0.00  0.00    +0.111 A 
ATOM     18  N   UNL     1      29.390  20.733  17.542  0.00  0.00    -0.263 NA
ATOM     19  C   UNL     1      30.125  19.602  17.409  0.00  0.00    +0.118 A 
ENDBRANCH  13  14
BRANCH  13  20
ATOM     20  C   UNL     1      32.582  17.864  17.271  0.00  0.00    +0.034 C 
ATOM     21  C   UNL     1      33.780  18.783  17.387  0.00  0.00    +0.008 C 
ATOM     22  C   UNL     1      33.986  17.340  17.044  0.00  0.00    +0.008 C 
ENDBRANCH  13  20
ENDBRANCH  12  13
ENDBRANCH   5  12
TORSDOF 5
ENDMDL
MODEL 3
REMARK VINA RESULT:      -6.8      2.066      6.352
REMARK  Name = ZINC001228612316
REMARK  5 active torsions:
REMARK  status: ('A' for Active; 'I' for Inactive)
REMARK    1  A    between atoms: C_2  and  C_4
REMARK    2  A    between atoms: C_8  and  O_9
REMARK    3  A    between atoms: O_9  and  C_10
REMARK    4  A    between atoms: C_10  and  C_11
REMARK    5  A    between atoms: C_10  and  C_17
REMARK                            x       y       z     vdW  Elec       q    Type
REMARK                         _______ _______ _______ _____ _____    ______ ____
ROOT
ATOM      1  C   UNL     1      30.407  20.970  15.048  0.00  0.00    +0.040 A 
ATOM      2  C   UNL     1      29.980  20.867  16.374  0.00  0.00    +0.013 A 
ATOM      3  C   UNL     1      29.891  19.608  16.973  0.00  0.00    +0.004 A 
ATOM      4  C   UNL     1      30.239  18.461  16.252  0.00  0.00    +0.046 A 
ATOM      5  C   UNL     1      30.675  18.562  14.929  0.00  0.00    +0.122 A 
ATOM      6  C   UNL     1      30.725  19.815  14.327  0.00  0.00    +0.058 A 
ENDROOT
BRANCH   1   8
ATOM      7  N   UNL     1      30.617  23.397  15.102  0.00  0.00    -0.325 N 
ATOM      8  C   UNL     1      30.550  22.267  14.340  0.00  0.00    +0.242 C 
ATOM      9  O   UNL     1      30.670  22.325  13.122  0.00  0.00    -0.270 OA
ATOM     10  H   UNL     1      30.860  24.246  14.606  0.00  0.00    +0.145 HD
ATOM     11  H   UNL     1      30.801  23.367  16.094  0.00  0.00    +0.145 HD
ENDBRANCH   1   8
BRANCH   5  12
ATOM     12  O   UNL     1      31.001  17.385  14.313  0.00  0.00    -0.484 OA
BRANCH  12  13
ATOM     13  C   UNL     1      30.842  16.169  15.067  0.00  0.00    +0.208 C 
BRANCH  13  14
ATOM     14  C   UNL     1      29.932  15.231  14.301  0.00  0.00    +0.011 A 
ATOM     15  C   UNL     1      28.692  14.860  14.838  0.00  0.00    +0.010 A 
ATOM     16  C   UNL     1      27.859  13.995  14.140  0.00  0.00    +0.020 A 
ATOM     17  C   UNL     1      28.294  13.523  12.914  0.00  0.00    +0.111 A 
ATOM     18  N   UNL     1      29.481  13.850  12.361  0.00  0.00    -0.263 NA
ATOM     19  C   UNL     1      30.274  14.692  13.067  0.00  0.00    +0.118 A 
ENDBRANCH  13  14
BRANCH  13  20
ATOM     20  C   UNL     1      32.194  15.528  15.287  0.00  0.00    +0.034 C 
ATOM     21  C   UNL     1      32.517  14.739  16.538  0.00  0.00    +0.008 C 
ATOM     22  C   UNL     1      33.153  16.077  16.325  0.00  0.00    +0.008 C 
ENDBRANCH  13  20
ENDBRANCH  12  13
ENDBRANCH   5  12
TORSDOF 5
ENDMDL
MODEL 4
REMARK VINA RESULT:      -6.6      1.800      2.321
REMARK  Name = ZINC001228612316
REMARK  5 active torsions:
REMARK  status: ('A' for Active; 'I' for Inactive)
REMARK    1  A    between atoms: C_2  and  C_4
REMARK    2  A    between atoms: C_8  and  O_9
REMARK    3  A    between atoms: O_9  and  C_10
REMARK    4  A    between atoms: C_10  and  C_11
REMARK    5  A    between atoms: C_10  and  C_17
REMARK                            x       y       z     vdW  Elec       q    Type
REMARK                         _______ _______ _______ _____ _____    ______ ____
ROOT
ATOM      1  C   UNL     1      30.060  14.256  12.908  0.00  0.00    +0.040 A 
ATOM      2  C   UNL     1      28.776  13.713  13.004  0.00  0.00    +0.013 A 
ATOM      3  C   UNL     1      27.955  14.069  14.076  0.00  0.00    +0.004 A 
ATOM      4  C   UNL     1      28.413  14.973  15.041  0.00  0.00    +0.046 A 
ATOM      5  C   UNL     1      29.693  15.525  14.943  0.00  0.00    +0.122 A 
ATOM      6  C   UNL     1      30.518  15.137  13.892  0.00  0.00    +0.058 A 
ENDROOT
BRANCH   1   8
ATOM      7  N   UNL     1      31.338  12.642  11.604  0.00  0.00    -0.325 N 
ATOM      8  C   UNL     1      30.990  13.949  11.792  0.00  0.00    +0.242 C 
ATOM      9  O   UNL     1      31.384  14.819  11.025  0.00  0.00    -0.270 OA
ATOM     10  H   UNL     1      31.852  12.444  10.754  0.00  0.00    +0.145 HD
ATOM     11  H   UNL     1      30.826  11.882  12.028  0.00  0.00    +0.145 HD
ENDBRANCH   1   8
BRANCH   5  12
ATOM     12  O   UNL     1      30.044  16.406  15.929  0.00  0.00    -0.484 OA
BRANCH  12  13
ATOM     13  C   UNL     1      31.147  17.295  15.670  0.00  0.00    +0.208 C 
BRANCH  13  14
ATOM     14  C   UNL     1      30.646  18.723  15.714  0.00  0.00    +0.011 A 
ATOM     15  C   UNL     1      30.026  19.216  16.870  0.00  0.00    +0.010 A 
ATOM     16  C   UNL     1      29.561  20.524  16.909  0.00  0.00    +0.020 A 
ATOM     17  C   UNL     1      29.732  21.309  15.783  0.00  0.00    +0.111 A 
ATOM     18  N   UNL     1      30.319  20.875  14.646  0.00  0.00    -0.263 NA
ATOM     19  C   UNL     1      30.759  19.593  14.636  0.00  0.00    +0.118 A 
ENDBRANCH  13  14
BRANCH  13  20
ATOM     20  C   UNL     1      32.224  17.082  16.711  0.00  0.00    +0.034 C 
ATOM     21  C   UNL     1      33.617  17.654  16.554  0.00  0.00    +0.008 C 
ATOM     22  C   UNL     1      33.407  16.177  16.427  0.00  0.00    +0.008 C 
ENDBRANCH  13  20
ENDBRANCH  12  13
ENDBRANCH   5  12
TORSDOF 5
ENDMDL
MODEL 5
REMARK VINA RESULT:      -6.5      2.555      6.805
REMARK  Name = ZINC001228612316
REMARK  5 active torsions:
REMARK  status: ('A' for Active; 'I' for Inactive)
REMARK    1  A    between atoms: C_2  and  C_4
REMARK    2  A    between atoms: C_8  and  O_9
REMARK    3  A    between atoms: O_9  and  C_10
REMARK    4  A    between atoms: C_10  and  C_11
REMARK    5  A    between atoms: C_10  and  C_17
REMARK                            x       y       z     vdW  Elec       q    Type
REMARK                         _______ _______ _______ _____ _____    ______ ____
ROOT
ATOM      1  C   UNL     1      29.150  22.354  16.951  0.00  0.00    +0.040 A 
ATOM      2  C   UNL     1      30.003  23.333  16.436  0.00  0.00    +0.013 A 
ATOM      3  C   UNL     1      30.970  22.977  15.493  0.00  0.00    +0.004 A 
ATOM      4  C   UNL     1      31.075  21.650  15.061  0.00  0.00    +0.046 A 
ATOM      5  C   UNL     1      30.218  20.671  15.568  0.00  0.00    +0.122 A 
ATOM      6  C   UNL     1      29.281  21.026  16.533  0.00  0.00    +0.058 A 
ENDROOT
BRANCH   1   8
ATOM      7  N   UNL     1      26.862  23.023  17.457  0.00  0.00    -0.325 N 
ATOM      8  C   UNL     1      28.082  22.646  17.940  0.00  0.00    +0.242 C 
ATOM      9  O   UNL     1      28.260  22.496  19.143  0.00  0.00    -0.270 OA
ATOM     10  H   UNL     1      26.117  23.073  18.141  0.00  0.00    +0.145 HD
ATOM     11  H   UNL     1      26.601  22.888  16.491  0.00  0.00    +0.145 HD
ENDBRANCH   1   8
BRANCH   5  12
ATOM     12  O   UNL     1      30.393  19.407  15.075  0.00  0.00    -0.484 OA
BRANCH  12  13
ATOM     13  C   UNL     1      30.721  18.363  16.012  0.00  0.00    +0.208 C 
BRANCH  13  14
ATOM     14  C   UNL     1      30.213  17.042  15.473  0.00  0.00    +0.011 A 
ATOM     15  C   UNL     1      30.605  16.604  14.201  0.00  0.00    +0.010 A 
ATOM     16  C   UNL     1      30.135  15.396  13.703  0.00  0.00    +0.020 A 
ATOM     17  C   UNL     1      29.280  14.654  14.498  0.00  0.00    +0.111 A 
ATOM     18  N   UNL     1      28.872  15.038  15.727  0.00  0.00    -0.263 NA
ATOM     19  C   UNL     1      29.344  16.224  16.185  0.00  0.00    +0.118 A 
ENDBRANCH  13  14
BRANCH  13  20
ATOM     20  C   UNL     1      32.220  18.311  16.208  0.00  0.00    +0.034 C 
ATOM     21  C   UNL     1      32.889  17.206  16.998  0.00  0.00    +0.008 C 
ATOM     22  C   UNL     1      32.834  18.590  17.566  0.00  0.00    +0.008 C 
ENDBRANCH  13  20
ENDBRANCH  12  13
ENDBRANCH   5  12
TORSDOF 5
ENDMDL
MODEL 6
REMARK VINA RESULT:      -6.5      2.207      3.332
REMARK  Name = ZINC001228612316
REMARK  5 active torsions:
REMARK  status: ('A' for Active; 'I' for Inactive)
REMARK    1  A    between atoms: C_2  and  C_4
REMARK    2  A    between atoms: C_8  and  O_9
REMARK    3  A    between atoms: O_9  and  C_10
REMARK    4  A    between atoms: C_10  and  C_11
REMARK    5  A    between atoms: C_10  and  C_17
REMARK                            x       y       z     vdW  Elec       q    Type
REMARK                         _______ _______ _______ _____ _____    ______ ____
ROOT
ATOM      1  C   UNL     1      29.323  14.702  13.651  0.00  0.00    +0.040 A 
ATOM      2  C   UNL     1      28.600  14.389  14.805  0.00  0.00    +0.013 A 
ATOM      3  C   UNL     1      28.774  15.160  15.957  0.00  0.00    +0.004 A 
ATOM      4  C   UNL     1      29.659  16.243  15.950  0.00  0.00    +0.046 A 
ATOM      5  C   UNL     1      30.377  16.563  14.796  0.00  0.00    +0.122 A 
ATOM      6  C   UNL     1      30.226  15.770  13.663  0.00  0.00    +0.058 A 
ENDROOT
BRANCH   1   8
ATOM      7  N   UNL     1      28.338  12.880  12.367  0.00  0.00    -0.325 N 
ATOM      8  C   UNL     1      29.185  13.951  12.378  0.00  0.00    +0.242 C 
ATOM      9  O   UNL     1      29.755  14.309  11.355  0.00  0.00    -0.270 OA
ATOM     10  H   UNL     1      28.151  12.479  11.456  0.00  0.00    +0.145 HD
ATOM     11  H   UNL     1      27.653  12.728  13.093  0.00  0.00    +0.145 HD
ENDBRANCH   1   8
BRANCH   5  12
ATOM     12  O   UNL     1      31.209  17.646  14.887  0.00  0.00    -0.484 OA
BRANCH  12  13
ATOM     13  C   UNL     1      31.233  18.367  16.132  0.00  0.00    +0.208 C 
BRANCH  13  14
ATOM     14  C   UNL     1      32.671  18.526  16.580  0.00  0.00    +0.011 A 
ATOM     15  C   UNL     1      33.037  18.212  17.896  0.00  0.00    +0.010 A 
ATOM     16  C   UNL     1      34.354  18.363  18.310  0.00  0.00    +0.020 A 
ATOM     17  C   UNL     1      35.276  18.825  17.388  0.00  0.00    +0.111 A 
ATOM     18  N   UNL     1      34.968  19.144  16.112  0.00  0.00    -0.263 NA
ATOM     19  C   UNL     1      33.675  18.990  15.738  0.00  0.00    +0.118 A 
ENDBRANCH  13  14
BRANCH  13  20
ATOM     20  C   UNL     1      30.587  19.723  15.946  0.00  0.00    +0.034 C 
ATOM     21  C   UNL     1      30.722  20.826  16.974  0.00  0.00    +0.008 C 
ATOM     22  C   UNL     1      29.403  20.140  16.796  0.00  0.00    +0.008 C 
ENDBRANCH  13  20
ENDBRANCH  12  13
ENDBRANCH   5  12
TORSDOF 5
ENDMDL
MODEL 7
REMARK VINA RESULT:      -6.5      1.954      6.302
REMARK  Name = ZINC001228612316
REMARK  5 active torsions:
REMARK  status: ('A' for Active; 'I' for Inactive)
REMARK    1  A    between atoms: C_2  and  C_4
REMARK    2  A    between atoms: C_8  and  O_9
REMARK    3  A    between atoms: O_9  and  C_10
REMARK    4  A    between atoms: C_10  and  C_11
REMARK    5  A    between atoms: C_10  and  C_17
REMARK                            x       y       z     vdW  Elec       q    Type
REMARK                         _______ _______ _______ _____ _____    ______ ____
ROOT
ATOM      1  C   UNL     1      29.783  20.695  15.893  0.00  0.00    +0.040 A 
ATOM      2  C   UNL     1      30.067  21.700  14.965  0.00  0.00    +0.013 A 
ATOM      3  C   UNL     1      30.788  21.388  13.810  0.00  0.00    +0.004 A 
ATOM      4  C   UNL     1      31.213  20.075  13.582  0.00  0.00    +0.046 A 
ATOM      5  C   UNL     1      30.923  19.066  14.503  0.00  0.00    +0.122 A 
ATOM      6  C   UNL     1      30.236  19.391  15.668  0.00  0.00    +0.058 A 
ENDROOT
BRANCH   1   8
ATOM      7  N   UNL     1      27.915  20.142  17.358  0.00  0.00    -0.325 N 
ATOM      8  C   UNL     1      29.005  20.933  17.135  0.00  0.00    +0.242 C 
ATOM      9  O   UNL     1      29.358  21.762  17.966  0.00  0.00    -0.270 OA
ATOM     10  H   UNL     1      27.493  20.227  18.275  0.00  0.00    +0.145 HD
ATOM     11  H   UNL     1      27.760  19.284  16.850  0.00  0.00    +0.145 HD
ENDBRANCH   1   8
BRANCH   5  12
ATOM     12  O   UNL     1      31.373  17.814  14.184  0.00  0.00    -0.484 OA
BRANCH  12  13
ATOM     13  C   UNL     1      31.143  16.758  15.136  0.00  0.00    +0.208 C 
BRANCH  13  14
ATOM     14  C   UNL     1      30.166  15.765  14.542  0.00  0.00    +0.011 A 
ATOM     15  C   UNL     1      29.032  15.375  15.266  0.00  0.00    +0.010 A 
ATOM     16  C   UNL     1      28.139  14.459  14.724  0.00  0.00    +0.020 A 
ATOM     17  C   UNL     1      28.407  13.957  13.464  0.00  0.00    +0.111 A 
ATOM     18  N   UNL     1      29.489  14.301  12.732  0.00  0.00    -0.263 NA
ATOM     19  C   UNL     1      30.345  15.193  13.288  0.00  0.00    +0.118 A 
ENDBRANCH  13  14
BRANCH  13  20
ATOM     20  C   UNL     1      32.454  16.077  15.463  0.00  0.00    +0.034 C 
ATOM     21  C   UNL     1      32.552  14.980  16.503  0.00  0.00    +0.008 C 
ATOM     22  C   UNL     1      33.146  16.324  16.789  0.00  0.00    +0.008 C 
ENDBRANCH  13  20
ENDBRANCH  12  13
ENDBRANCH   5  12
TORSDOF 5
ENDMDL
MODEL 8
REMARK VINA RESULT:      -6.3      2.952      6.417
REMARK  Name = ZINC001228612316
REMARK  5 active torsions:
REMARK  status: ('A' for Active; 'I' for Inactive)
REMARK    1  A    between atoms: C_2  and  C_4
REMARK    2  A    between atoms: C_8  and  O_9
REMARK    3  A    between atoms: O_9  and  C_10
REMARK    4  A    between atoms: C_10  and  C_11
REMARK    5  A    between atoms: C_10  and  C_17
REMARK                            x       y       z     vdW  Elec       q    Type
REMARK                         _______ _______ _______ _____ _____    ______ ____
ROOT
ATOM      1  C   UNL     1      29.627  20.887  16.247  0.00  0.00    +0.040 A 
ATOM      2  C   UNL     1      30.057  21.222  14.961  0.00  0.00    +0.013 A 
ATOM      3  C   UNL     1      30.652  20.247  14.156  0.00  0.00    +0.004 A 
ATOM      4  C   UNL     1      30.805  18.941  14.634  0.00  0.00    +0.046 A 
ATOM      5  C   UNL     1      30.368  18.600  15.917  0.00  0.00    +0.122 A 
ATOM      6  C   UNL     1      29.810  19.585  16.725  0.00  0.00    +0.058 A 
ENDROOT
BRANCH   1   8
ATOM      7  N   UNL     1      28.961  23.167  16.790  0.00  0.00    -0.325 N 
ATOM      8  C   UNL     1      28.967  21.853  17.160  0.00  0.00    +0.242 C 
ATOM      9  O   UNL     1      28.390  21.487  18.177  0.00  0.00    -0.270 OA
ATOM     10  H   UNL     1      28.381  23.778  17.353  0.00  0.00    +0.145 HD
ATOM     11  H   UNL     1      29.172  23.462  15.847  0.00  0.00    +0.145 HD
ENDBRANCH   1   8
BRANCH   5  12
ATOM     12  O   UNL     1      30.553  17.296  16.287  0.00  0.00    -0.484 OA
BRANCH  12  13
ATOM     13  C   UNL     1      31.451  16.497  15.495  0.00  0.00    +0.208 C 
BRANCH  13  14
ATOM     14  C   UNL     1      32.628  16.084  16.354  0.00  0.00    +0.011 A 
ATOM     15  C   UNL     1      32.909  14.726  16.556  0.00  0.00    +0.010 A 
ATOM     16  C   UNL     1      33.984  14.346  17.349  0.00  0.00    +0.020 A 
ATOM     17  C   UNL     1      34.754  15.342  17.921  0.00  0.00    +0.111 A 
ATOM     18  N   UNL     1      34.517  16.662  17.759  0.00  0.00    -0.263 NA
ATOM     19  C   UNL     1      33.459  17.003  16.983  0.00  0.00    +0.118 A 
ENDBRANCH  13  14
BRANCH  13  20
ATOM     20  C   UNL     1      30.722  15.276  14.978  0.00  0.00    +0.034 C 
ATOM     21  C   UNL     1      31.008  14.687  13.613  0.00  0.00    +0.008 C 
ATOM     22  C   UNL     1      29.711  15.396  13.855  0.00  0.00    +0.008 C 
ENDBRANCH  13  20
ENDBRANCH  12  13
ENDBRANCH   5  12
TORSDOF 5
ENDMDL
MODEL 9
REMARK VINA RESULT:      -6.2      8.273      9.969
REMARK  Name = ZINC001228612316
REMARK  5 active torsions:
REMARK  status: ('A' for Active; 'I' for Inactive)
REMARK    1  A    between atoms: C_2  and  C_4
REMARK    2  A    between atoms: C_8  and  O_9
REMARK    3  A    between atoms: O_9  and  C_10
REMARK    4  A    between atoms: C_10  and  C_11
REMARK    5  A    between atoms: C_10  and  C_17
REMARK                            x       y       z     vdW  Elec       q    Type
REMARK                         _______ _______ _______ _____ _____    ______ ____
ROOT
ATOM      1  C   UNL     1      34.366  21.164   5.966  0.00  0.00    +0.040 A 
ATOM      2  C   UNL     1      34.335  19.901   6.562  0.00  0.00    +0.013 A 
ATOM      3  C   UNL     1      33.653  19.724   7.768  0.00  0.00    +0.004 A 
ATOM      4  C   UNL     1      32.997  20.804   8.368  0.00  0.00    +0.046 A 
ATOM      5  C   UNL     1      33.019  22.067   7.770  0.00  0.00    +0.122 A 
ATOM      6  C   UNL     1      33.731  22.243   6.589  0.00  0.00    +0.058 A 
ENDROOT
BRANCH   1   8
ATOM      7  N   UNL     1      34.960  22.702   4.172  0.00  0.00    -0.325 N 
ATOM      8  C   UNL     1      35.049  21.437   4.676  0.00  0.00    +0.242 C 
ATOM      9  O   UNL     1      35.724  20.583   4.113  0.00  0.00    -0.270 OA
ATOM     10  H   UNL     1      35.553  22.897   3.373  0.00  0.00    +0.145 HD
ATOM     11  H   UNL     1      34.659  23.485   4.732  0.00  0.00    +0.145 HD
ENDBRANCH   1   8
BRANCH   5  12
ATOM     12  O   UNL     1      32.340  23.054   8.429  0.00  0.00    -0.484 OA
BRANCH  12  13
ATOM     13  C   UNL     1      32.821  23.445   9.729  0.00  0.00    +0.208 C 
BRANCH  13  14
ATOM     14  C   UNL     1      34.104  24.231   9.561  0.00  0.00    +0.011 A 
ATOM     15  C   UNL     1      35.262  23.844  10.249  0.00  0.00    +0.010 A 
ATOM     16  C   UNL     1      36.438  24.567  10.101  0.00  0.00    +0.020 A 
ATOM     17  C   UNL     1      36.423  25.666   9.261  0.00  0.00    +0.111 A 
ATOM     18  N   UNL     1      35.331  26.079   8.582  0.00  0.00    -0.263 NA
ATOM     19  C   UNL     1      34.197  25.355   8.749  0.00  0.00    +0.118 A 
ENDBRANCH  13  14
BRANCH  13  20
ATOM     20  C   UNL     1      31.775  24.287  10.425  0.00  0.00    +0.034 C 
ATOM     21  C   UNL     1      32.076  25.056  11.695  0.00  0.00    +0.008 C 
ATOM     22  C   UNL     1      31.187  23.852  11.753  0.00  0.00    +0.008 C 
ENDBRANCH  13  20
ENDBRANCH  12  13
ENDBRANCH   5  12
TORSDOF 5
ENDMDL
