MODEL 1
REMARK VINA RESULT:      -6.8      0.000      0.000
REMARK  Name = ZINC001228612316
REMARK  5 active torsions:
REMARK  status: ('A' for Active; 'I' for Inactive)
REMARK    1  A    between atoms: C_2  and  C_4
REMARK    2  A    between atoms: C_8  and  O_9
REMARK    3  A    between atoms: O_9  and  C_10
REMARK    4  A    between atoms: C_10  and  C_11
REMARK    5  A    between atoms: C_10  and  C_17
REMARK                            x       y       z     vdW  Elec       q    Type
REMARK                         _______ _______ _______ _____ _____    ______ ____
ROOT
ATOM      1  C   UNL     1      28.584  22.288  17.775  0.00  0.00    +0.040 A 
ATOM      2  C   UNL     1      29.013  23.036  18.877  0.00  0.00    +0.013 A 
ATOM      3  C   UNL     1      30.362  23.366  19.015  0.00  0.00    +0.004 A 
ATOM      4  C   UNL     1      31.289  22.953  18.055  0.00  0.00    +0.046 A 
ATOM      5  C   UNL     1      30.874  22.204  16.955  0.00  0.00    +0.122 A 
ATOM      6  C   UNL     1      29.519  21.876  16.818  0.00  0.00    +0.058 A 
ENDROOT
BRANCH   1   8
ATOM      7  N   UNL     1      26.340  22.268  18.741  0.00  0.00    -0.325 N 
ATOM      8  C   UNL     1      27.133  21.977  17.664  0.00  0.00    +0.242 C 
ATOM      9  O   UNL     1      26.650  21.512  16.638  0.00  0.00    -0.270 OA
ATOM     10  H   UNL     1      25.344  22.148  18.605  0.00  0.00    +0.145 HD
ATOM     11  H   UNL     1      26.642  22.861  19.498  0.00  0.00    +0.145 HD
ENDBRANCH   1   8
BRANCH   5  12
ATOM     12  O   UNL     1      31.693  21.682  15.991  0.00  0.00    -0.484 OA
BRANCH  12  13
ATOM     13  C   UNL     1      31.112  21.236  14.755  0.00  0.00    +0.208 C 
BRANCH  13  14
ATOM     14  C   UNL     1      31.444  22.132  13.578  0.00  0.00    +0.011 A 
ATOM     15  C   UNL     1      30.623  23.181  13.155  0.00  0.00    +0.010 A 
ATOM     16  C   UNL     1      31.044  24.013  12.120  0.00  0.00    +0.020 A 
ATOM     17  C   UNL     1      32.279  23.772  11.541  0.00  0.00    +0.111 A 
ATOM     18  N   UNL     1      33.097  22.766  11.913  0.00  0.00    -0.263 NA
ATOM     19  C   UNL     1      32.664  21.976  12.919  0.00  0.00    +0.118 A 
ENDBRANCH  13  14
BRANCH  13  20
ATOM     20  C   UNL     1      31.635  19.842  14.425  0.00  0.00    +0.034 C 
ATOM     21  C   UNL     1      30.805  18.885  13.604  0.00  0.00    +0.008 C 
ATOM     22  C   UNL     1      31.081  18.582  15.051  0.00  0.00    +0.008 C 
ENDBRANCH  13  20
ENDBRANCH  12  13
ENDBRANCH   5  12
TORSDOF 5
ENDMDL
MODEL 2
REMARK VINA RESULT:      -6.5      2.248      3.858
REMARK  Name = ZINC001228612316
REMARK  5 active torsions:
REMARK  status: ('A' for Active; 'I' for Inactive)
REMARK    1  A    between atoms: C_2  and  C_4
REMARK    2  A    between atoms: C_8  and  O_9
REMARK    3  A    between atoms: O_9  and  C_10
REMARK    4  A    between atoms: C_10  and  C_11
REMARK    5  A    between atoms: C_10  and  C_17
REMARK                            x       y       z     vdW  Elec       q    Type
REMARK                         _______ _______ _______ _____ _____    ______ ____
ROOT
ATOM      1  C   UNL     1      28.010  22.042  17.386  0.00  0.00    +0.040 A 
ATOM      2  C   UNL     1      28.861  22.707  18.276  0.00  0.00    +0.013 A 
ATOM      3  C   UNL     1      30.231  22.768  18.019  0.00  0.00    +0.004 A 
ATOM      4  C   UNL     1      30.760  22.168  16.873  0.00  0.00    +0.046 A 
ATOM      5  C   UNL     1      29.922  21.500  15.981  0.00  0.00    +0.122 A 
ATOM      6  C   UNL     1      28.546  21.442  16.241  0.00  0.00    +0.058 A 
ENDROOT
BRANCH   1   8
ATOM      7  N   UNL     1      26.173  22.367  18.963  0.00  0.00    -0.325 N 
ATOM      8  C   UNL     1      26.555  22.020  17.696  0.00  0.00    +0.242 C 
ATOM      9  O   UNL     1      25.719  21.739  16.845  0.00  0.00    -0.270 OA
ATOM     10  H   UNL     1      25.176  22.448  19.121  0.00  0.00    +0.145 HD
ATOM     11  H   UNL     1      26.790  22.829  19.613  0.00  0.00    +0.145 HD
ENDBRANCH   1   8
BRANCH   5  12
ATOM     12  O   UNL     1      30.327  20.814  14.868  0.00  0.00    -0.484 OA
BRANCH  12  13
ATOM     13  C   UNL     1      31.641  20.232  14.854  0.00  0.00    +0.208 C 
BRANCH  13  14
ATOM     14  C   UNL     1      31.625  18.715  14.841  0.00  0.00    +0.011 A 
ATOM     15  C   UNL     1      31.147  17.962  13.765  0.00  0.00    +0.010 A 
ATOM     16  C   UNL     1      31.249  16.573  13.796  0.00  0.00    +0.020 A 
ATOM     17  C   UNL     1      31.830  15.979  14.905  0.00  0.00    +0.111 A 
ATOM     18  N   UNL     1      32.294  16.669  15.967  0.00  0.00    -0.263 NA
ATOM     19  C   UNL     1      32.184  18.013  15.909  0.00  0.00    +0.118 A 
ENDBRANCH  13  14
BRANCH  13  20
ATOM     20  C   UNL     1      32.381  20.687  13.600  0.00  0.00    +0.034 C 
ATOM     21  C   UNL     1      33.868  20.466  13.464  0.00  0.00    +0.008 C 
ATOM     22  C   UNL     1      33.329  21.865  13.583  0.00  0.00    +0.008 C 
ENDBRANCH  13  20
ENDBRANCH  12  13
ENDBRANCH   5  12
TORSDOF 5
ENDMDL
MODEL 3
REMARK VINA RESULT:      -6.5      3.020      5.697
REMARK  Name = ZINC001228612316
REMARK  5 active torsions:
REMARK  status: ('A' for Active; 'I' for Inactive)
REMARK    1  A    between atoms: C_2  and  C_4
REMARK    2  A    between atoms: C_8  and  O_9
REMARK    3  A    between atoms: O_9  and  C_10
REMARK    4  A    between atoms: C_10  and  C_11
REMARK    5  A    between atoms: C_10  and  C_17
REMARK                            x       y       z     vdW  Elec       q    Type
REMARK                         _______ _______ _______ _____ _____    ______ ____
ROOT
ATOM      1  C   UNL     1      28.464  21.874  16.996  0.00  0.00    +0.040 A 
ATOM      2  C   UNL     1      28.716  21.233  15.778  0.00  0.00    +0.013 A 
ATOM      3  C   UNL     1      30.018  21.159  15.283  0.00  0.00    +0.004 A 
ATOM      4  C   UNL     1      31.077  21.722  16.001  0.00  0.00    +0.046 A 
ATOM      5  C   UNL     1      30.837  22.368  17.214  0.00  0.00    +0.122 A 
ATOM      6  C   UNL     1      29.529  22.439  17.709  0.00  0.00    +0.058 A 
ENDROOT
BRANCH   1   8
ATOM      7  N   UNL     1      26.857  22.290  18.789  0.00  0.00    -0.325 N 
ATOM      8  C   UNL     1      27.061  21.912  17.489  0.00  0.00    +0.242 C 
ATOM      9  O   UNL     1      26.113  21.653  16.757  0.00  0.00    -0.270 OA
ATOM     10  H   UNL     1      25.893  22.411  19.071  0.00  0.00    +0.145 HD
ATOM     11  H   UNL     1      27.570  22.736  19.346  0.00  0.00    +0.145 HD
ENDBRANCH   1   8
BRANCH   5  12
ATOM     12  O   UNL     1      31.775  23.018  17.969  0.00  0.00    -0.484 OA
BRANCH  12  13
ATOM     13  C   UNL     1      32.079  22.515  19.281  0.00  0.00    +0.208 C 
BRANCH  13  14
ATOM     14  C   UNL     1      33.552  22.214  19.481  0.00  0.00    +0.011 A 
ATOM     15  C   UNL     1      34.030  20.974  19.915  0.00  0.00    +0.010 A 
ATOM     16  C   UNL     1      35.403  20.752  19.988  0.00  0.00    +0.020 A 
ATOM     17  C   UNL     1      36.258  21.779  19.622  0.00  0.00    +0.111 A 
ATOM     18  N   UNL     1      35.838  22.992  19.208  0.00  0.00    -0.263 NA
ATOM     19  C   UNL     1      34.502  23.179  19.145  0.00  0.00    +0.118 A 
ENDBRANCH  13  14
BRANCH  13  20
ATOM     20  C   UNL     1      31.683  23.555  20.324  0.00  0.00    +0.034 C 
ATOM     21  C   UNL     1      31.841  23.262  21.797  0.00  0.00    +0.008 C 
ATOM     22  C   UNL     1      30.465  23.414  21.209  0.00  0.00    +0.008 C 
ENDBRANCH  13  20
ENDBRANCH  12  13
ENDBRANCH   5  12
TORSDOF 5
ENDMDL
MODEL 4
REMARK VINA RESULT:      -6.4      2.185      4.120
REMARK  Name = ZINC001228612316
REMARK  5 active torsions:
REMARK  status: ('A' for Active; 'I' for Inactive)
REMARK    1  A    between atoms: C_2  and  C_4
REMARK    2  A    between atoms: C_8  and  O_9
REMARK    3  A    between atoms: O_9  and  C_10
REMARK    4  A    between atoms: C_10  and  C_11
REMARK    5  A    between atoms: C_10  and  C_17
REMARK                            x       y       z     vdW  Elec       q    Type
REMARK                         _______ _______ _______ _____ _____    ______ ____
ROOT
ATOM      1  C   UNL     1      29.389  22.987  18.956  0.00  0.00    +0.040 A 
ATOM      2  C   UNL     1      28.115  22.778  19.496  0.00  0.00    +0.013 A 
ATOM      3  C   UNL     1      27.121  22.173  18.727  0.00  0.00    +0.004 A 
ATOM      4  C   UNL     1      27.391  21.770  17.416  0.00  0.00    +0.046 A 
ATOM      5  C   UNL     1      28.656  21.977  16.866  0.00  0.00    +0.122 A 
ATOM      6  C   UNL     1      29.653  22.584  17.641  0.00  0.00    +0.058 A 
ENDROOT
BRANCH   1   8
ATOM      7  N   UNL     1      30.216  23.588  21.175  0.00  0.00    -0.325 N 
ATOM      8  C   UNL     1      30.420  23.621  19.822  0.00  0.00    +0.242 C 
ATOM      9  O   UNL     1      31.435  24.122  19.354  0.00  0.00    -0.270 OA
ATOM     10  H   UNL     1      30.977  23.929  21.748  0.00  0.00    +0.145 HD
ATOM     11  H   UNL     1      29.532  22.988  21.610  0.00  0.00    +0.145 HD
ENDBRANCH   1   8
BRANCH   5  12
ATOM     12  O   UNL     1      29.021  21.695  15.578  0.00  0.00    -0.484 OA
BRANCH  12  13
ATOM     13  C   UNL     1      30.416  21.705  15.234  0.00  0.00    +0.208 C 
BRANCH  13  14
ATOM     14  C   UNL     1      31.084  20.354  15.400  0.00  0.00    +0.011 A 
ATOM     15  C   UNL     1      30.622  19.188  14.784  0.00  0.00    +0.010 A 
ATOM     16  C   UNL     1      31.346  18.005  14.917  0.00  0.00    +0.020 A 
ATOM     17  C   UNL     1      32.514  18.025  15.662  0.00  0.00    +0.111 A 
ATOM     18  N   UNL     1      32.988  19.126  16.280  0.00  0.00    -0.263 NA
ATOM     19  C   UNL     1      32.268  20.259  16.133  0.00  0.00    +0.118 A 
ENDBRANCH  13  14
BRANCH  13  20
ATOM     20  C   UNL     1      30.572  22.111  13.772  0.00  0.00    +0.034 C 
ATOM     21  C   UNL     1      31.913  22.558  13.240  0.00  0.00    +0.008 C 
ATOM     22  C   UNL     1      30.779  23.543  13.330  0.00  0.00    +0.008 C 
ENDBRANCH  13  20
ENDBRANCH  12  13
ENDBRANCH   5  12
TORSDOF 5
ENDMDL
MODEL 5
REMARK VINA RESULT:      -6.3      2.231      3.060
REMARK  Name = ZINC001228612316
REMARK  5 active torsions:
REMARK  status: ('A' for Active; 'I' for Inactive)
REMARK    1  A    between atoms: C_2  and  C_4
REMARK    2  A    between atoms: C_8  and  O_9
REMARK    3  A    between atoms: O_9  and  C_10
REMARK    4  A    between atoms: C_10  and  C_11
REMARK    5  A    between atoms: C_10  and  C_17
REMARK                            x       y       z     vdW  Elec       q    Type
REMARK                         _______ _______ _______ _____ _____    ______ ____
ROOT
ATOM      1  C   UNL     1      28.779  22.330  17.692  0.00  0.00    +0.040 A 
ATOM      2  C   UNL     1      29.204  23.195  18.706  0.00  0.00    +0.013 A 
ATOM      3  C   UNL     1      30.550  23.546  18.808  0.00  0.00    +0.004 A 
ATOM      4  C   UNL     1      31.481  23.036  17.898  0.00  0.00    +0.046 A 
ATOM      5  C   UNL     1      31.070  22.169  16.886  0.00  0.00    +0.122 A 
ATOM      6  C   UNL     1      29.717  21.821  16.785  0.00  0.00    +0.058 A 
ENDROOT
BRANCH   1   8
ATOM      7  N   UNL     1      26.563  22.263  18.718  0.00  0.00    -0.325 N 
ATOM      8  C   UNL     1      27.330  22.000  17.615  0.00  0.00    +0.242 C 
ATOM      9  O   UNL     1      26.826  21.546  16.595  0.00  0.00    -0.270 OA
ATOM     10  H   UNL     1      25.565  22.131  18.607  0.00  0.00    +0.145 HD
ATOM     11  H   UNL     1      26.878  22.847  19.476  0.00  0.00    +0.145 HD
ENDBRANCH   1   8
BRANCH   5  12
ATOM     12  O   UNL     1      31.893  21.550  15.984  0.00  0.00    -0.484 OA
BRANCH  12  13
ATOM     13  C   UNL     1      32.184  20.154  16.157  0.00  0.00    +0.208 C 
BRANCH  13  14
ATOM     14  C   UNL     1      32.115  19.362  14.866  0.00  0.00    +0.011 A 
ATOM     15  C   UNL     1      31.147  18.386  14.615  0.00  0.00    +0.010 A 
ATOM     16  C   UNL     1      31.099  17.767  13.368  0.00  0.00    +0.020 A 
ATOM     17  C   UNL     1      32.021  18.147  12.406  0.00  0.00    +0.111 A 
ATOM     18  N   UNL     1      32.976  19.077  12.611  0.00  0.00    -0.263 NA
ATOM     19  C   UNL     1      32.998  19.662  13.828  0.00  0.00    +0.118 A 
ENDBRANCH  13  14
BRANCH  13  20
ATOM     20  C   UNL     1      33.598  19.998  16.708  0.00  0.00    +0.034 C 
ATOM     21  C   UNL     1      34.012  18.727  17.410  0.00  0.00    +0.008 C 
ATOM     22  C   UNL     1      33.914  20.011  18.188  0.00  0.00    +0.008 C 
ENDBRANCH  13  20
ENDBRANCH  12  13
ENDBRANCH   5  12
TORSDOF 5
ENDMDL
MODEL 6
REMARK VINA RESULT:      -6.2      2.950      6.336
REMARK  Name = ZINC001228612316
REMARK  5 active torsions:
REMARK  status: ('A' for Active; 'I' for Inactive)
REMARK    1  A    between atoms: C_2  and  C_4
REMARK    2  A    between atoms: C_8  and  O_9
REMARK    3  A    between atoms: O_9  and  C_10
REMARK    4  A    between atoms: C_10  and  C_11
REMARK    5  A    between atoms: C_10  and  C_17
REMARK                            x       y       z     vdW  Elec       q    Type
REMARK                         _______ _______ _______ _____ _____    ______ ____
ROOT
ATOM      1  C   UNL     1      32.345  23.535  11.178  0.00  0.00    +0.040 A 
ATOM      2  C   UNL     1      31.456  24.606  11.319  0.00  0.00    +0.013 A 
ATOM      3  C   UNL     1      30.693  24.733  12.479  0.00  0.00    +0.004 A 
ATOM      4  C   UNL     1      30.812  23.793  13.507  0.00  0.00    +0.046 A 
ATOM      5  C   UNL     1      31.692  22.719  13.376  0.00  0.00    +0.122 A 
ATOM      6  C   UNL     1      32.459  22.596  12.210  0.00  0.00    +0.058 A 
ENDROOT
BRANCH   1   8
ATOM      7  N   UNL     1      32.649  24.070   8.813  0.00  0.00    -0.325 N 
ATOM      8  C   UNL     1      33.150  23.453   9.929  0.00  0.00    +0.242 C 
ATOM      9  O   UNL     1      34.238  22.891   9.898  0.00  0.00    -0.270 OA
ATOM     10  H   UNL     1      33.260  24.093   8.006  0.00  0.00    +0.145 HD
ATOM     11  H   UNL     1      31.893  24.736   8.849  0.00  0.00    +0.145 HD
ENDBRANCH   1   8
BRANCH   5  12
ATOM     12  O   UNL     1      31.845  21.700  14.276  0.00  0.00    -0.484 OA
BRANCH  12  13
ATOM     13  C   UNL     1      30.782  20.744  14.426  0.00  0.00    +0.208 C 
BRANCH  13  14
ATOM     14  C   UNL     1      31.228  19.312  14.202  0.00  0.00    +0.011 A 
ATOM     15  C   UNL     1      30.848  18.251  15.028  0.00  0.00    +0.010 A 
ATOM     16  C   UNL     1      31.228  16.951  14.701  0.00  0.00    +0.020 A 
ATOM     17  C   UNL     1      31.977  16.752  13.553  0.00  0.00    +0.111 A 
ATOM     18  N   UNL     1      32.372  17.748  12.735  0.00  0.00    -0.263 NA
ATOM     19  C   UNL     1      31.988  18.998  13.075  0.00  0.00    +0.118 A 
ENDBRANCH  13  14
BRANCH  13  20
ATOM     20  C   UNL     1      30.225  20.828  15.844  0.00  0.00    +0.034 C 
ATOM     21  C   UNL     1      28.865  21.431  16.098  0.00  0.00    +0.008 C 
ATOM     22  C   UNL     1      30.097  22.128  16.605  0.00  0.00    +0.008 C 
ENDBRANCH  13  20
ENDBRANCH  12  13
ENDBRANCH   5  12
TORSDOF 5
ENDMDL
MODEL 7
REMARK VINA RESULT:      -6.2      2.228      6.236
REMARK  Name = ZINC001228612316
REMARK  5 active torsions:
REMARK  status: ('A' for Active; 'I' for Inactive)
REMARK    1  A    between atoms: C_2  and  C_4
REMARK    2  A    between atoms: C_8  and  O_9
REMARK    3  A    between atoms: O_9  and  C_10
REMARK    4  A    between atoms: C_10  and  C_11
REMARK    5  A    between atoms: C_10  and  C_17
REMARK                            x       y       z     vdW  Elec       q    Type
REMARK                         _______ _______ _______ _____ _____    ______ ____
ROOT
ATOM      1  C   UNL     1      32.230  23.223  11.300  0.00  0.00    +0.040 A 
ATOM      2  C   UNL     1      31.941  24.579  11.118  0.00  0.00    +0.013 A 
ATOM      3  C   UNL     1      31.020  25.216  11.951  0.00  0.00    +0.004 A 
ATOM      4  C   UNL     1      30.383  24.504  12.970  0.00  0.00    +0.046 A 
ATOM      5  C   UNL     1      30.659  23.150  13.158  0.00  0.00    +0.122 A 
ATOM      6  C   UNL     1      31.586  22.514  12.322  0.00  0.00    +0.058 A 
ENDROOT
BRANCH   1   8
ATOM      7  N   UNL     1      32.859  21.456   9.734  0.00  0.00    -0.325 N 
ATOM      8  C   UNL     1      33.232  22.594  10.398  0.00  0.00    +0.242 C 
ATOM      9  O   UNL     1      34.338  23.088  10.219  0.00  0.00    -0.270 OA
ATOM     10  H   UNL     1      33.515  21.106   9.048  0.00  0.00    +0.145 HD
ATOM     11  H   UNL     1      31.899  21.154   9.663  0.00  0.00    +0.145 HD
ENDBRANCH   1   8
BRANCH   5  12
ATOM     12  O   UNL     1      30.049  22.331  14.070  0.00  0.00    -0.484 OA
BRANCH  12  13
ATOM     13  C   UNL     1      30.852  21.702  15.082  0.00  0.00    +0.208 C 
BRANCH  13  14
ATOM     14  C   UNL     1      30.638  22.286  16.466  0.00  0.00    +0.011 A 
ATOM     15  C   UNL     1      29.373  22.506  17.018  0.00  0.00    +0.010 A 
ATOM     16  C   UNL     1      29.264  22.963  18.330  0.00  0.00    +0.020 A 
ATOM     17  C   UNL     1      30.427  23.183  19.051  0.00  0.00    +0.111 A 
ATOM     18  N   UNL     1      31.664  22.992  18.552  0.00  0.00    -0.263 NA
ATOM     19  C   UNL     1      31.741  22.548  17.279  0.00  0.00    +0.118 A 
ENDBRANCH  13  14
BRANCH  13  20
ATOM     20  C   UNL     1      30.500  20.220  15.157  0.00  0.00    +0.034 C 
ATOM     21  C   UNL     1      31.573  19.190  15.418  0.00  0.00    +0.008 C 
ATOM     22  C   UNL     1      30.881  19.226  14.082  0.00  0.00    +0.008 C 
ENDBRANCH  13  20
ENDBRANCH  12  13
ENDBRANCH   5  12
TORSDOF 5
ENDMDL
MODEL 8
REMARK VINA RESULT:      -6.1      3.058      5.168
REMARK  Name = ZINC001228612316
REMARK  5 active torsions:
REMARK  status: ('A' for Active; 'I' for Inactive)
REMARK    1  A    between atoms: C_2  and  C_4
REMARK    2  A    between atoms: C_8  and  O_9
REMARK    3  A    between atoms: O_9  and  C_10
REMARK    4  A    between atoms: C_10  and  C_11
REMARK    5  A    between atoms: C_10  and  C_17
REMARK                            x       y       z     vdW  Elec       q    Type
REMARK                         _______ _______ _______ _____ _____    ______ ____
ROOT
ATOM      1  C   UNL     1      28.201  22.087  17.337  0.00  0.00    +0.040 A 
ATOM      2  C   UNL     1      28.708  21.423  16.215  0.00  0.00    +0.013 A 
ATOM      3  C   UNL     1      30.072  21.479  15.926  0.00  0.00    +0.004 A 
ATOM      4  C   UNL     1      30.938  22.197  16.755  0.00  0.00    +0.046 A 
ATOM      5  C   UNL     1      30.444  22.867  17.874  0.00  0.00    +0.122 A 
ATOM      6  C   UNL     1      29.074  22.807  18.163  0.00  0.00    +0.058 A 
ENDROOT
BRANCH   1   8
ATOM      7  N   UNL     1      26.305  22.364  18.852  0.00  0.00    -0.325 N 
ATOM      8  C   UNL     1      26.743  21.983  17.612  0.00  0.00    +0.242 C 
ATOM      9  O   UNL     1      25.951  21.607  16.757  0.00  0.00    -0.270 OA
ATOM     10  H   UNL     1      25.301  22.385  18.982  0.00  0.00    +0.145 HD
ATOM     11  H   UNL     1      26.873  22.896  19.493  0.00  0.00    +0.145 HD
ENDBRANCH   1   8
BRANCH   5  12
ATOM     12  O   UNL     1      31.176  23.658  18.717  0.00  0.00    -0.484 OA
BRANCH  12  13
ATOM     13  C   UNL     1      32.544  23.308  18.983  0.00  0.00    +0.208 C 
BRANCH  13  14
ATOM     14  C   UNL     1      33.535  24.347  18.495  0.00  0.00    +0.011 A 
ATOM     15  C   UNL     1      33.164  25.635  18.099  0.00  0.00    +0.010 A 
ATOM     16  C   UNL     1      34.146  26.559  17.748  0.00  0.00    +0.020 A 
ATOM     17  C   UNL     1      35.473  26.165  17.806  0.00  0.00    +0.111 A 
ATOM     18  N   UNL     1      35.872  24.930  18.173  0.00  0.00    -0.263 NA
ATOM     19  C   UNL     1      34.899  24.056  18.510  0.00  0.00    +0.118 A 
ENDBRANCH  13  14
BRANCH  13  20
ATOM     20  C   UNL     1      32.744  23.163  20.488  0.00  0.00    +0.034 C 
ATOM     21  C   UNL     1      31.560  22.963  21.403  0.00  0.00    +0.008 C 
ATOM     22  C   UNL     1      32.356  24.236  21.480  0.00  0.00    +0.008 C 
ENDBRANCH  13  20
ENDBRANCH  12  13
ENDBRANCH   5  12
TORSDOF 5
ENDMDL
MODEL 9
REMARK VINA RESULT:      -6.1      1.853      2.718
REMARK  Name = ZINC001228612316
REMARK  5 active torsions:
REMARK  status: ('A' for Active; 'I' for Inactive)
REMARK    1  A    between atoms: C_2  and  C_4
REMARK    2  A    between atoms: C_8  and  O_9
REMARK    3  A    between atoms: O_9  and  C_10
REMARK    4  A    between atoms: C_10  and  C_11
REMARK    5  A    between atoms: C_10  and  C_17
REMARK                            x       y       z     vdW  Elec       q    Type
REMARK                         _______ _______ _______ _____ _____    ______ ____
ROOT
ATOM      1  C   UNL     1      30.816  23.311  19.332  0.00  0.00    +0.040 A 
ATOM      2  C   UNL     1      29.426  23.149  19.372  0.00  0.00    +0.013 A 
ATOM      3  C   UNL     1      28.747  22.657  18.258  0.00  0.00    +0.004 A 
ATOM      4  C   UNL     1      29.449  22.322  17.096  0.00  0.00    +0.046 A 
ATOM      5  C   UNL     1      30.833  22.484  17.043  0.00  0.00    +0.122 A 
ATOM      6  C   UNL     1      31.513  22.976  18.164  0.00  0.00    +0.058 A 
ENDROOT
BRANCH   1   8
ATOM      7  N   UNL     1      30.966  23.474  21.765  0.00  0.00    -0.325 N 
ATOM      8  C   UNL     1      31.496  23.823  20.552  0.00  0.00    +0.242 C 
ATOM      9  O   UNL     1      32.515  24.500  20.486  0.00  0.00    -0.270 OA
ATOM     10  H   UNL     1      31.503  23.743  22.579  0.00  0.00    +0.145 HD
ATOM     11  H   UNL     1      30.287  22.736  21.873  0.00  0.00    +0.145 HD
ENDBRANCH   1   8
BRANCH   5  12
ATOM     12  O   UNL     1      31.619  22.262  15.945  0.00  0.00    -0.484 OA
BRANCH  12  13
ATOM     13  C   UNL     1      31.009  21.753  14.747  0.00  0.00    +0.208 C 
BRANCH  13  14
ATOM     14  C   UNL     1      31.353  22.560  13.510  0.00  0.00    +0.011 A 
ATOM     15  C   UNL     1      30.591  23.644  13.064  0.00  0.00    +0.010 A 
ATOM     16  C   UNL     1      31.025  24.387  11.969  0.00  0.00    +0.020 A 
ATOM     17  C   UNL     1      32.212  24.024  11.353  0.00  0.00    +0.111 A 
ATOM     18  N   UNL     1      32.970  22.981  11.746  0.00  0.00    -0.263 NA
ATOM     19  C   UNL     1      32.527  22.279  12.811  0.00  0.00    +0.118 A 
ENDBRANCH  13  14
BRANCH  13  20
ATOM     20  C   UNL     1      31.488  20.326  14.504  0.00  0.00    +0.034 C 
ATOM     21  C   UNL     1      30.583  19.316  13.838  0.00  0.00    +0.008 C 
ATOM     22  C   UNL     1      30.968  19.136  15.281  0.00  0.00    +0.008 C 
ENDBRANCH  13  20
ENDBRANCH  12  13
ENDBRANCH   5  12
TORSDOF 5
ENDMDL
