MODEL 1
REMARK VINA RESULT:      -6.8      0.000      0.000
REMARK  Name = ZINC001228612316
REMARK  5 active torsions:
REMARK  status: ('A' for Active; 'I' for Inactive)
REMARK    1  A    between atoms: C_2  and  C_4
REMARK    2  A    between atoms: C_8  and  O_9
REMARK    3  A    between atoms: O_9  and  C_10
REMARK    4  A    between atoms: C_10  and  C_11
REMARK    5  A    between atoms: C_10  and  C_17
REMARK                            x       y       z     vdW  Elec       q    Type
REMARK                         _______ _______ _______ _____ _____    ______ ____
ROOT
ATOM      1  C   UNL     1      31.883  24.226  10.979  0.00  0.00    +0.040 A 
ATOM      2  C   UNL     1      31.692  25.528  11.454  0.00  0.00    +0.013 A 
ATOM      3  C   UNL     1      30.861  25.758  12.550  0.00  0.00    +0.004 A 
ATOM      4  C   UNL     1      30.216  24.690  13.180  0.00  0.00    +0.046 A 
ATOM      5  C   UNL     1      30.395  23.388  12.713  0.00  0.00    +0.122 A 
ATOM      6  C   UNL     1      31.232  23.161  11.613  0.00  0.00    +0.058 A 
ENDROOT
BRANCH   1   8
ATOM      7  N   UNL     1      33.586  25.085   9.453  0.00  0.00    -0.325 N 
ATOM      8  C   UNL     1      32.793  24.031   9.818  0.00  0.00    +0.242 C 
ATOM      9  O   UNL     1      32.865  22.960   9.228  0.00  0.00    -0.270 OA
ATOM     10  H   UNL     1      34.271  24.897   8.731  0.00  0.00    +0.145 HD
ATOM     11  H   UNL     1      33.736  25.888  10.044  0.00  0.00    +0.145 HD
ENDBRANCH   1   8
BRANCH   5  12
ATOM     12  O   UNL     1      29.765  22.274  13.198  0.00  0.00    -0.484 OA
BRANCH  12  13
ATOM     13  C   UNL     1      30.364  21.559  14.291  0.00  0.00    +0.208 C 
BRANCH  13  14
ATOM     14  C   UNL     1      29.984  22.114  15.650  0.00  0.00    +0.011 A 
ATOM     15  C   UNL     1      30.897  22.737  16.507  0.00  0.00    +0.010 A 
ATOM     16  C   UNL     1      30.449  23.299  17.700  0.00  0.00    +0.020 A 
ATOM     17  C   UNL     1      29.098  23.223  18.000  0.00  0.00    +0.111 A 
ATOM     18  N   UNL     1      28.188  22.623  17.206  0.00  0.00    -0.263 NA
ATOM     19  C   UNL     1      28.650  22.088  16.054  0.00  0.00    +0.118 A 
ENDBRANCH  13  14
BRANCH  13  20
ATOM     20  C   UNL     1      29.907  20.105  14.252  0.00  0.00    +0.034 C 
ATOM     21  C   UNL     1      30.795  19.008  14.790  0.00  0.00    +0.008 C 
ATOM     22  C   UNL     1      30.502  19.076  13.316  0.00  0.00    +0.008 C 
ENDBRANCH  13  20
ENDBRANCH  12  13
ENDBRANCH   5  12
TORSDOF 5
ENDMDL
MODEL 2
REMARK VINA RESULT:      -6.5      0.853      1.182
REMARK  Name = ZINC001228612316
REMARK  5 active torsions:
REMARK  status: ('A' for Active; 'I' for Inactive)
REMARK    1  A    between atoms: C_2  and  C_4
REMARK    2  A    between atoms: C_8  and  O_9
REMARK    3  A    between atoms: O_9  and  C_10
REMARK    4  A    between atoms: C_10  and  C_11
REMARK    5  A    between atoms: C_10  and  C_17
REMARK                            x       y       z     vdW  Elec       q    Type
REMARK                         _______ _______ _______ _____ _____    ______ ____
ROOT
ATOM      1  C   UNL     1      31.917  24.057  10.958  0.00  0.00    +0.040 A 
ATOM      2  C   UNL     1      31.737  25.407  11.276  0.00  0.00    +0.013 A 
ATOM      3  C   UNL     1      30.952  25.769  12.372  0.00  0.00    +0.004 A 
ATOM      4  C   UNL     1      30.344  24.786  13.157  0.00  0.00    +0.046 A 
ATOM      5  C   UNL     1      30.513  23.437  12.847  0.00  0.00    +0.122 A 
ATOM      6  C   UNL     1      31.303  23.077  11.748  0.00  0.00    +0.058 A 
ENDROOT
BRANCH   1   8
ATOM      7  N   UNL     1      33.501  24.738   9.227  0.00  0.00    -0.325 N 
ATOM      8  C   UNL     1      32.777  23.722   9.791  0.00  0.00    +0.242 C 
ATOM      9  O   UNL     1      32.871  22.576   9.367  0.00  0.00    -0.270 OA
ATOM     10  H   UNL     1      34.157  24.469   8.505  0.00  0.00    +0.145 HD
ATOM     11  H   UNL     1      33.640  25.627   9.681  0.00  0.00    +0.145 HD
ENDBRANCH   1   8
BRANCH   5  12
ATOM     12  O   UNL     1      29.913  22.390  13.493  0.00  0.00    -0.484 OA
BRANCH  12  13
ATOM     13  C   UNL     1      30.620  21.737  14.560  0.00  0.00    +0.208 C 
BRANCH  13  14
ATOM     14  C   UNL     1      30.375  22.369  15.916  0.00  0.00    +0.011 A 
ATOM     15  C   UNL     1      29.102  22.692  16.394  0.00  0.00    +0.010 A 
ATOM     16  C   UNL     1      28.957  23.188  17.688  0.00  0.00    +0.020 A 
ATOM     17  C   UNL     1      30.092  23.344  18.467  0.00  0.00    +0.111 A 
ATOM     18  N   UNL     1      31.338  23.054  18.040  0.00  0.00    -0.263 NA
ATOM     19  C   UNL     1      31.449  22.573  16.783  0.00  0.00    +0.118 A 
ENDBRANCH  13  14
BRANCH  13  20
ATOM     20  C   UNL     1      30.168  20.283  14.649  0.00  0.00    +0.034 C 
ATOM     21  C   UNL     1      31.153  19.194  15.002  0.00  0.00    +0.008 C 
ATOM     22  C   UNL     1      30.547  19.236  13.626  0.00  0.00    +0.008 C 
ENDBRANCH  13  20
ENDBRANCH  12  13
ENDBRANCH   5  12
TORSDOF 5
ENDMDL
MODEL 3
REMARK VINA RESULT:      -6.5      4.473      7.078
REMARK  Name = ZINC001228612316
REMARK  5 active torsions:
REMARK  status: ('A' for Active; 'I' for Inactive)
REMARK    1  A    between atoms: C_2  and  C_4
REMARK    2  A    between atoms: C_8  and  O_9
REMARK    3  A    between atoms: O_9  and  C_10
REMARK    4  A    between atoms: C_10  and  C_11
REMARK    5  A    between atoms: C_10  and  C_17
REMARK                            x       y       z     vdW  Elec       q    Type
REMARK                         _______ _______ _______ _____ _____    ______ ____
ROOT
ATOM      1  C   UNL     1      27.966  22.248  16.894  0.00  0.00    +0.040 A 
ATOM      2  C   UNL     1      28.228  21.728  15.622  0.00  0.00    +0.013 A 
ATOM      3  C   UNL     1      29.519  21.780  15.097  0.00  0.00    +0.004 A 
ATOM      4  C   UNL     1      30.558  22.351  15.838  0.00  0.00    +0.046 A 
ATOM      5  C   UNL     1      30.308  22.877  17.105  0.00  0.00    +0.122 A 
ATOM      6  C   UNL     1      29.011  22.820  17.631  0.00  0.00    +0.058 A 
ENDROOT
BRANCH   1   8
ATOM      7  N   UNL     1      26.361  22.537  18.713  0.00  0.00    -0.325 N 
ATOM      8  C   UNL     1      26.577  22.152  17.417  0.00  0.00    +0.242 C 
ATOM      9  O   UNL     1      25.647  21.780  16.711  0.00  0.00    -0.270 OA
ATOM     10  H   UNL     1      25.395  22.565  19.013  0.00  0.00    +0.145 HD
ATOM     11  H   UNL     1      27.034  23.067  19.245  0.00  0.00    +0.145 HD
ENDBRANCH   1   8
BRANCH   5  12
ATOM     12  O   UNL     1      31.221  23.523  17.894  0.00  0.00    -0.484 OA
BRANCH  12  13
ATOM     13  C   UNL     1      31.700  22.867  19.080  0.00  0.00    +0.208 C 
BRANCH  13  14
ATOM     14  C   UNL     1      33.189  22.582  19.048  0.00  0.00    +0.011 A 
ATOM     15  C   UNL     1      34.138  23.382  19.690  0.00  0.00    +0.010 A 
ATOM     16  C   UNL     1      35.478  23.000  19.686  0.00  0.00    +0.020 A 
ATOM     17  C   UNL     1      35.827  21.825  19.040  0.00  0.00    +0.111 A 
ATOM     18  N   UNL     1      34.945  21.031  18.402  0.00  0.00    -0.263 NA
ATOM     19  C   UNL     1      33.653  21.424  18.423  0.00  0.00    +0.118 A 
ENDBRANCH  13  14
BRANCH  13  20
ATOM     20  C   UNL     1      31.435  23.758  20.290  0.00  0.00    +0.034 C 
ATOM     21  C   UNL     1      31.347  23.163  21.675  0.00  0.00    +0.008 C 
ATOM     22  C   UNL     1      30.122  23.763  21.040  0.00  0.00    +0.008 C 
ENDBRANCH  13  20
ENDBRANCH  12  13
ENDBRANCH   5  12
TORSDOF 5
ENDMDL
MODEL 4
REMARK VINA RESULT:      -6.5      2.797      6.841
REMARK  Name = ZINC001228612316
REMARK  5 active torsions:
REMARK  status: ('A' for Active; 'I' for Inactive)
REMARK    1  A    between atoms: C_2  and  C_4
REMARK    2  A    between atoms: C_8  and  O_9
REMARK    3  A    between atoms: O_9  and  C_10
REMARK    4  A    between atoms: C_10  and  C_11
REMARK    5  A    between atoms: C_10  and  C_17
REMARK                            x       y       z     vdW  Elec       q    Type
REMARK                         _______ _______ _______ _____ _____    ______ ____
ROOT
ATOM      1  C   UNL     1      30.137  23.354  19.083  0.00  0.00    +0.040 A 
ATOM      2  C   UNL     1      31.455  22.993  19.384  0.00  0.00    +0.013 A 
ATOM      3  C   UNL     1      32.316  22.576  18.369  0.00  0.00    +0.004 A 
ATOM      4  C   UNL     1      31.868  22.517  17.046  0.00  0.00    +0.046 A 
ATOM      5  C   UNL     1      30.555  22.870  16.734  0.00  0.00    +0.122 A 
ATOM      6  C   UNL     1      29.694  23.291  17.756  0.00  0.00    +0.058 A 
ENDROOT
BRANCH   1   8
ATOM      7  N   UNL     1      27.957  24.090  19.903  0.00  0.00    -0.325 N 
ATOM      8  C   UNL     1      29.264  23.808  20.198  0.00  0.00    +0.242 C 
ATOM      9  O   UNL     1      29.679  23.894  21.347  0.00  0.00    -0.270 OA
ATOM     10  H   UNL     1      27.357  24.294  20.692  0.00  0.00    +0.145 HD
ATOM     11  H   UNL     1      27.519  23.808  19.040  0.00  0.00    +0.145 HD
ENDBRANCH   1   8
BRANCH   5  12
ATOM     12  O   UNL     1      29.981  22.785  15.495  0.00  0.00    -0.484 OA
BRANCH  12  13
ATOM     13  C   UNL     1      30.824  22.561  14.354  0.00  0.00    +0.208 C 
BRANCH  13  14
ATOM     14  C   UNL     1      30.960  21.095  13.987  0.00  0.00    +0.011 A 
ATOM     15  C   UNL     1      29.946  20.156  14.192  0.00  0.00    +0.010 A 
ATOM     16  C   UNL     1      30.118  18.847  13.746  0.00  0.00    +0.020 A 
ATOM     17  C   UNL     1      31.302  18.519  13.104  0.00  0.00    +0.111 A 
ATOM     18  N   UNL     1      32.307  19.392  12.896  0.00  0.00    -0.263 NA
ATOM     19  C   UNL     1      32.113  20.654  13.337  0.00  0.00    +0.118 A 
ENDBRANCH  13  14
BRANCH  13  20
ATOM     20  C   UNL     1      30.236  23.278  13.143  0.00  0.00    +0.034 C 
ATOM     21  C   UNL     1      31.123  23.700  11.996  0.00  0.00    +0.008 C 
ATOM     22  C   UNL     1      30.468  24.745  12.858  0.00  0.00    +0.008 C 
ENDBRANCH  13  20
ENDBRANCH  12  13
ENDBRANCH   5  12
TORSDOF 5
ENDMDL
MODEL 5
REMARK VINA RESULT:      -6.4      3.135      6.390
REMARK  Name = ZINC001228612316
REMARK  5 active torsions:
REMARK  status: ('A' for Active; 'I' for Inactive)
REMARK    1  A    between atoms: C_2  and  C_4
REMARK    2  A    between atoms: C_8  and  O_9
REMARK    3  A    between atoms: O_9  and  C_10
REMARK    4  A    between atoms: C_10  and  C_11
REMARK    5  A    between atoms: C_10  and  C_17
REMARK                            x       y       z     vdW  Elec       q    Type
REMARK                         _______ _______ _______ _____ _____    ______ ____
ROOT
ATOM      1  C   UNL     1      28.753  23.303  18.497  0.00  0.00    +0.040 A 
ATOM      2  C   UNL     1      27.502  23.030  19.062  0.00  0.00    +0.013 A 
ATOM      3  C   UNL     1      26.543  22.327  18.332  0.00  0.00    +0.004 A 
ATOM      4  C   UNL     1      26.827  21.890  17.035  0.00  0.00    +0.046 A 
ATOM      5  C   UNL     1      28.068  22.159  16.460  0.00  0.00    +0.122 A 
ATOM      6  C   UNL     1      29.030  22.864  17.196  0.00  0.00    +0.058 A 
ENDROOT
BRANCH   1   8
ATOM      7  N   UNL     1      30.626  24.862  18.667  0.00  0.00    -0.325 N 
ATOM      8  C   UNL     1      29.747  24.041  19.321  0.00  0.00    +0.242 C 
ATOM      9  O   UNL     1      29.763  23.954  20.543  0.00  0.00    -0.270 OA
ATOM     10  H   UNL     1      31.221  25.433  19.254  0.00  0.00    +0.145 HD
ATOM     11  H   UNL     1      30.498  25.147  17.709  0.00  0.00    +0.145 HD
ENDBRANCH   1   8
BRANCH   5  12
ATOM     12  O   UNL     1      28.437  21.849  15.179  0.00  0.00    -0.484 OA
BRANCH  12  13
ATOM     13  C   UNL     1      29.824  21.942  14.816  0.00  0.00    +0.208 C 
BRANCH  13  14
ATOM     14  C   UNL     1      30.535  20.602  14.813  0.00  0.00    +0.011 A 
ATOM     15  C   UNL     1      31.696  20.348  15.548  0.00  0.00    +0.010 A 
ATOM     16  C   UNL     1      32.237  19.064  15.561  0.00  0.00    +0.020 A 
ATOM     17  C   UNL     1      31.595  18.070  14.838  0.00  0.00    +0.111 A 
ATOM     18  N   UNL     1      30.480  18.277  14.110  0.00  0.00    -0.263 NA
ATOM     19  C   UNL     1      29.977  19.530  14.116  0.00  0.00    +0.118 A 
ENDBRANCH  13  14
BRANCH  13  20
ATOM     20  C   UNL     1      29.939  22.518  13.408  0.00  0.00    +0.034 C 
ATOM     21  C   UNL     1      31.292  22.848  12.823  0.00  0.00    +0.008 C 
ATOM     22  C   UNL     1      30.322  23.955  13.133  0.00  0.00    +0.008 C 
ENDBRANCH  13  20
ENDBRANCH  12  13
ENDBRANCH   5  12
TORSDOF 5
ENDMDL
MODEL 6
REMARK VINA RESULT:      -6.4      4.021      5.470
REMARK  Name = ZINC001228612316
REMARK  5 active torsions:
REMARK  status: ('A' for Active; 'I' for Inactive)
REMARK    1  A    between atoms: C_2  and  C_4
REMARK    2  A    between atoms: C_8  and  O_9
REMARK    3  A    between atoms: O_9  and  C_10
REMARK    4  A    between atoms: C_10  and  C_11
REMARK    5  A    between atoms: C_10  and  C_17
REMARK                            x       y       z     vdW  Elec       q    Type
REMARK                         _______ _______ _______ _____ _____    ______ ____
ROOT
ATOM      1  C   UNL     1      30.467  19.739  14.616  0.00  0.00    +0.040 A 
ATOM      2  C   UNL     1      29.361  20.500  14.222  0.00  0.00    +0.013 A 
ATOM      3  C   UNL     1      29.203  21.802  14.699  0.00  0.00    +0.004 A 
ATOM      4  C   UNL     1      30.147  22.352  15.569  0.00  0.00    +0.046 A 
ATOM      5  C   UNL     1      31.252  21.602  15.972  0.00  0.00    +0.122 A 
ATOM      6  C   UNL     1      31.409  20.296  15.490  0.00  0.00    +0.058 A 
ENDROOT
BRANCH   1   8
ATOM      7  N   UNL     1      30.565  18.219  12.706  0.00  0.00    -0.325 N 
ATOM      8  C   UNL     1      30.600  18.363  14.067  0.00  0.00    +0.242 C 
ATOM      9  O   UNL     1      30.774  17.392  14.794  0.00  0.00    -0.270 OA
ATOM     10  H   UNL     1      30.764  17.292  12.351  0.00  0.00    +0.145 HD
ATOM     11  H   UNL     1      30.666  18.996  12.071  0.00  0.00    +0.145 HD
ENDBRANCH   1   8
BRANCH   5  12
ATOM     12  O   UNL     1      32.201  22.002  16.873  0.00  0.00    -0.484 OA
BRANCH  12  13
ATOM     13  C   UNL     1      32.091  23.308  17.461  0.00  0.00    +0.208 C 
BRANCH  13  14
ATOM     14  C   UNL     1      31.346  23.310  18.782  0.00  0.00    +0.011 A 
ATOM     15  C   UNL     1      31.865  22.760  19.957  0.00  0.00    +0.010 A 
ATOM     16  C   UNL     1      31.153  22.882  21.149  0.00  0.00    +0.020 A 
ATOM     17  C   UNL     1      29.942  23.554  21.128  0.00  0.00    +0.111 A 
ATOM     18  N   UNL     1      29.402  24.090  20.015  0.00  0.00    -0.263 NA
ATOM     19  C   UNL     1      30.114  23.959  18.874  0.00  0.00    +0.118 A 
ENDBRANCH  13  14
BRANCH  13  20
ATOM     20  C   UNL     1      33.488  23.860  17.729  0.00  0.00    +0.034 C 
ATOM     21  C   UNL     1      33.698  25.338  17.956  0.00  0.00    +0.008 C 
ATOM     22  C   UNL     1      34.257  24.686  16.721  0.00  0.00    +0.008 C 
ENDBRANCH  13  20
ENDBRANCH  12  13
ENDBRANCH   5  12
TORSDOF 5
ENDMDL
MODEL 7
REMARK VINA RESULT:      -6.2      2.222      6.165
REMARK  Name = ZINC001228612316
REMARK  5 active torsions:
REMARK  status: ('A' for Active; 'I' for Inactive)
REMARK    1  A    between atoms: C_2  and  C_4
REMARK    2  A    between atoms: C_8  and  O_9
REMARK    3  A    between atoms: O_9  and  C_10
REMARK    4  A    between atoms: C_10  and  C_11
REMARK    5  A    between atoms: C_10  and  C_17
REMARK                            x       y       z     vdW  Elec       q    Type
REMARK                         _______ _______ _______ _____ _____    ______ ____
ROOT
ATOM      1  C   UNL     1      29.388  23.128  17.386  0.00  0.00    +0.040 A 
ATOM      2  C   UNL     1      28.151  22.594  17.007  0.00  0.00    +0.013 A 
ATOM      3  C   UNL     1      28.069  21.724  15.920  0.00  0.00    +0.004 A 
ATOM      4  C   UNL     1      29.219  21.380  15.205  0.00  0.00    +0.046 A 
ATOM      5  C   UNL     1      30.457  21.909  15.571  0.00  0.00    +0.122 A 
ATOM      6  C   UNL     1      30.537  22.781  16.664  0.00  0.00    +0.058 A 
ENDROOT
BRANCH   1   8
ATOM      7  N   UNL     1      28.323  24.070  19.373  0.00  0.00    -0.325 N 
ATOM      8  C   UNL     1      29.426  24.037  18.563  0.00  0.00    +0.242 C 
ATOM      9  O   UNL     1      30.417  24.707  18.828  0.00  0.00    -0.270 OA
ATOM     10  H   UNL     1      28.411  24.612  20.223  0.00  0.00    +0.145 HD
ATOM     11  H   UNL     1      27.595  23.372  19.334  0.00  0.00    +0.145 HD
ENDBRANCH   1   8
BRANCH   5  12
ATOM     12  O   UNL     1      31.637  21.706  14.908  0.00  0.00    -0.484 OA
BRANCH  12  13
ATOM     13  C   UNL     1      31.618  21.601  13.475  0.00  0.00    +0.208 C 
BRANCH  13  14
ATOM     14  C   UNL     1      31.884  22.919  12.774  0.00  0.00    +0.011 A 
ATOM     15  C   UNL     1      30.943  23.561  11.964  0.00  0.00    +0.010 A 
ATOM     16  C   UNL     1      31.235  24.814  11.428  0.00  0.00    +0.020 A 
ATOM     17  C   UNL     1      32.462  25.387  11.721  0.00  0.00    +0.111 A 
ATOM     18  N   UNL     1      33.400  24.797  12.489  0.00  0.00    -0.263 NA
ATOM     19  C   UNL     1      33.090  23.585  12.997  0.00  0.00    +0.118 A 
ENDBRANCH  13  14
BRANCH  13  20
ATOM     20  C   UNL     1      32.700  20.623  13.027  0.00  0.00    +0.034 C 
ATOM     21  C   UNL     1      32.821  20.227  11.575  0.00  0.00    +0.008 C 
ATOM     22  C   UNL     1      32.403  19.204  12.596  0.00  0.00    +0.008 C 
ENDBRANCH  13  20
ENDBRANCH  12  13
ENDBRANCH   5  12
TORSDOF 5
ENDMDL
MODEL 8
REMARK VINA RESULT:      -6.2      3.773      6.063
REMARK  Name = ZINC001228612316
REMARK  5 active torsions:
REMARK  status: ('A' for Active; 'I' for Inactive)
REMARK    1  A    between atoms: C_2  and  C_4
REMARK    2  A    between atoms: C_8  and  O_9
REMARK    3  A    between atoms: O_9  and  C_10
REMARK    4  A    between atoms: C_10  and  C_11
REMARK    5  A    between atoms: C_10  and  C_17
REMARK                            x       y       z     vdW  Elec       q    Type
REMARK                         _______ _______ _______ _____ _____    ______ ____
ROOT
ATOM      1  C   UNL     1      30.161  21.364  15.125  0.00  0.00    +0.040 A 
ATOM      2  C   UNL     1      28.768  21.424  15.240  0.00  0.00    +0.013 A 
ATOM      3  C   UNL     1      28.181  22.220  16.224  0.00  0.00    +0.004 A 
ATOM      4  C   UNL     1      28.980  22.963  17.098  0.00  0.00    +0.046 A 
ATOM      5  C   UNL     1      30.370  22.908  16.995  0.00  0.00    +0.122 A 
ATOM      6  C   UNL     1      30.956  22.109  16.004  0.00  0.00    +0.058 A 
ENDROOT
BRANCH   1   8
ATOM      7  N   UNL     1      29.939  19.538  13.517  0.00  0.00    -0.325 N 
ATOM      8  C   UNL     1      30.738  20.515  14.048  0.00  0.00    +0.242 C 
ATOM      9  O   UNL     1      31.871  20.698  13.620  0.00  0.00    -0.270 OA
ATOM     10  H   UNL     1      30.313  19.044  12.717  0.00  0.00    +0.145 HD
ATOM     11  H   UNL     1      28.942  19.508  13.664  0.00  0.00    +0.145 HD
ENDBRANCH   1   8
BRANCH   5  12
ATOM     12  O   UNL     1      31.256  23.529  17.833  0.00  0.00    -0.484 OA
BRANCH  12  13
ATOM     13  C   UNL     1      31.714  22.826  19.000  0.00  0.00    +0.208 C 
BRANCH  13  14
ATOM     14  C   UNL     1      33.211  22.583  19.005  0.00  0.00    +0.011 A 
ATOM     15  C   UNL     1      33.798  21.406  18.532  0.00  0.00    +0.010 A 
ATOM     16  C   UNL     1      35.187  21.297  18.490  0.00  0.00    +0.020 A 
ATOM     17  C   UNL     1      35.946  22.373  18.920  0.00  0.00    +0.111 A 
ATOM     18  N   UNL     1      35.419  23.520  19.391  0.00  0.00    -0.263 NA
ATOM     19  C   UNL     1      34.071  23.599  19.420  0.00  0.00    +0.118 A 
ENDBRANCH  13  14
BRANCH  13  20
ATOM     20  C   UNL     1      31.385  23.646  20.244  0.00  0.00    +0.034 C 
ATOM     21  C   UNL     1      31.192  22.969  21.580  0.00  0.00    +0.008 C 
ATOM     22  C   UNL     1      30.024  23.635  20.904  0.00  0.00    +0.008 C 
ENDBRANCH  13  20
ENDBRANCH  12  13
ENDBRANCH   5  12
TORSDOF 5
ENDMDL
MODEL 9
REMARK VINA RESULT:      -6.2      3.220      6.950
REMARK  Name = ZINC001228612316
REMARK  5 active torsions:
REMARK  status: ('A' for Active; 'I' for Inactive)
REMARK    1  A    between atoms: C_2  and  C_4
REMARK    2  A    between atoms: C_8  and  O_9
REMARK    3  A    between atoms: O_9  and  C_10
REMARK    4  A    between atoms: C_10  and  C_11
REMARK    5  A    between atoms: C_10  and  C_17
REMARK                            x       y       z     vdW  Elec       q    Type
REMARK                         _______ _______ _______ _____ _____    ______ ____
ROOT
ATOM      1  C   UNL     1      29.433  23.468  19.834  0.00  0.00    +0.040 A 
ATOM      2  C   UNL     1      30.097  23.381  21.063  0.00  0.00    +0.013 A 
ATOM      3  C   UNL     1      31.479  23.196  21.099  0.00  0.00    +0.004 A 
ATOM      4  C   UNL     1      32.208  23.099  19.910  0.00  0.00    +0.046 A 
ATOM      5  C   UNL     1      31.557  23.181  18.680  0.00  0.00    +0.122 A 
ATOM      6  C   UNL     1      30.169  23.368  18.647  0.00  0.00    +0.058 A 
ENDROOT
BRANCH   1   8
ATOM      7  N   UNL     1      27.506  24.926  20.195  0.00  0.00    -0.325 N 
ATOM      8  C   UNL     1      27.961  23.682  19.848  0.00  0.00    +0.242 C 
ATOM      9  O   UNL     1      27.177  22.797  19.527  0.00  0.00    -0.270 OA
ATOM     10  H   UNL     1      26.511  25.080  20.095  0.00  0.00    +0.145 HD
ATOM     11  H   UNL     1      28.105  25.737  20.231  0.00  0.00    +0.145 HD
ENDBRANCH   1   8
BRANCH   5  12
ATOM     12  O   UNL     1      32.147  23.028  17.454  0.00  0.00    -0.484 OA
BRANCH  12  13
ATOM     13  C   UNL     1      31.635  22.028  16.559  0.00  0.00    +0.208 C 
BRANCH  13  14
ATOM     14  C   UNL     1      31.156  22.595  15.236  0.00  0.00    +0.011 A 
ATOM     15  C   UNL     1      31.851  23.578  14.526  0.00  0.00    +0.010 A 
ATOM     16  C   UNL     1      31.389  23.981  13.275  0.00  0.00    +0.020 A 
ATOM     17  C   UNL     1      30.245  23.385  12.771  0.00  0.00    +0.111 A 
ATOM     18  N   UNL     1      29.541  22.441  13.428  0.00  0.00    -0.263 NA
ATOM     19  C   UNL     1      30.012  22.068  14.637  0.00  0.00    +0.118 A 
ENDBRANCH  13  14
BRANCH  13  20
ATOM     20  C   UNL     1      32.736  21.020  16.247  0.00  0.00    +0.034 C 
ATOM     21  C   UNL     1      32.391  19.603  15.857  0.00  0.00    +0.008 C 
ATOM     22  C   UNL     1      33.086  19.868  17.164  0.00  0.00    +0.008 C 
ENDBRANCH  13  20
ENDBRANCH  12  13
ENDBRANCH   5  12
TORSDOF 5
ENDMDL
