MODEL 1
REMARK VINA RESULT:      -7.5      0.000      0.000
REMARK  Name = ZINC000870248439
REMARK  2 active torsions:
REMARK  status: ('A' for Active; 'I' for Inactive)
REMARK    1  A    between atoms: C_2  and  C_4
REMARK    2  A    between atoms: C_7  and  C_8
REMARK                            x       y       z     vdW  Elec       q    Type
REMARK                         _______ _______ _______ _____ _____    ______ ____
ROOT
ATOM      1  C   UNL     1      30.369  20.514  14.886  0.00  0.00    +0.247 C 
ATOM      2  O   UNL     1      30.758  21.497  14.257  0.00  0.00    -0.270 OA
ATOM      3  N   UNL     1      30.806  19.209  14.619  0.00  0.00    -0.297 N 
ATOM      4  C   UNL     1      30.351  18.001  15.311  0.00  0.00    +0.108 C 
ATOM      5  C   UNL     1      31.459  16.979  15.532  0.00  0.00    +0.026 C 
ATOM      6  C   UNL     1      32.269  16.658  14.257  0.00  0.00    -0.025 C 
ATOM      7  C   UNL     1      33.479  15.789  14.682  0.00  0.00    +0.017 C 
ATOM      8  C   UNL     1      34.382  15.339  13.541  0.00  0.00    +0.069 C 
ATOM      9  S   UNL     1      33.498  14.334  12.317  0.00  0.00    -0.161 S 
ATOM     10  C   UNL     1      32.096  15.435  11.982  0.00  0.00    +0.069 C 
ATOM     11  C   UNL     1      31.386  15.859  13.263  0.00  0.00    +0.017 C 
ATOM     12  C   UNL     1      32.750  18.011  13.670  0.00  0.00    +0.026 C 
ATOM     13  C   UNL     1      31.607  18.994  13.417  0.00  0.00    +0.108 C 
ENDROOT
BRANCH   1  17
ATOM     14  C   UNL     1      27.629  21.482  18.014  0.00  0.00    +0.037 A 
ATOM     15  C   UNL     1      29.004  21.512  18.275  0.00  0.00    +0.014 A 
ATOM     16  C   UNL     1      29.903  21.104  17.289  0.00  0.00    +0.014 A 
ATOM     17  C   UNL     1      29.438  20.759  16.016  0.00  0.00    +0.037 A 
ATOM     18  C   UNL     1      28.061  20.642  15.785  0.00  0.00    +0.014 A 
ATOM     19  C   UNL     1      27.156  20.994  16.790  0.00  0.00    +0.014 A 
BRANCH  14  21
ATOM     20  N   UNL     1      27.145  22.308  20.248  0.00  0.00    -0.325 N 
ATOM     21  C   UNL     1      26.650  21.959  19.023  0.00  0.00    +0.242 C 
ATOM     22  O   UNL     1      25.465  22.086  18.756  0.00  0.00    -0.270 OA
ATOM     23  H   UNL     1      26.491  22.747  20.884  0.00  0.00    +0.145 HD
ATOM     24  H   UNL     1      28.130  22.465  20.410  0.00  0.00    +0.145 HD
ENDBRANCH  14  21
ENDBRANCH   1  17
TORSDOF 2
ENDMDL
MODEL 2
REMARK VINA RESULT:      -7.1      1.014      1.458
REMARK  Name = ZINC000870248439
REMARK  2 active torsions:
REMARK  status: ('A' for Active; 'I' for Inactive)
REMARK    1  A    between atoms: C_2  and  C_4
REMARK    2  A    between atoms: C_7  and  C_8
REMARK                            x       y       z     vdW  Elec       q    Type
REMARK                         _______ _______ _______ _____ _____    ______ ____
ROOT
ATOM      1  C   UNL     1      31.030  20.301  14.458  0.00  0.00    +0.247 C 
ATOM      2  O   UNL     1      31.588  21.167  13.785  0.00  0.00    -0.270 OA
ATOM      3  N   UNL     1      31.275  18.930  14.299  0.00  0.00    -0.297 N 
ATOM      4  C   UNL     1      30.616  17.856  15.045  0.00  0.00    +0.108 C 
ATOM      5  C   UNL     1      31.548  16.700  15.388  0.00  0.00    +0.026 C 
ATOM      6  C   UNL     1      32.349  16.172  14.179  0.00  0.00    -0.025 C 
ATOM      7  C   UNL     1      33.396  15.166  14.720  0.00  0.00    +0.017 C 
ATOM      8  C   UNL     1      34.265  14.506  13.658  0.00  0.00    +0.069 C 
ATOM      9  S   UNL     1      33.289  13.557  12.460  0.00  0.00    -0.161 S 
ATOM     10  C   UNL     1      32.085  14.826  11.983  0.00  0.00    +0.069 C 
ATOM     11  C   UNL     1      31.397  15.442  13.196  0.00  0.00    +0.017 C 
ATOM     12  C   UNL     1      33.052  17.392  13.529  0.00  0.00    +0.026 C 
ATOM     13  C   UNL     1      32.081  18.512  13.156  0.00  0.00    +0.108 C 
ENDROOT
BRANCH   1  17
ATOM     14  C   UNL     1      28.394  21.365  17.643  0.00  0.00    +0.037 A 
ATOM     15  C   UNL     1      27.863  21.089  16.378  0.00  0.00    +0.014 A 
ATOM     16  C   UNL     1      28.722  20.837  15.308  0.00  0.00    +0.014 A 
ATOM     17  C   UNL     1      30.103  20.762  15.520  0.00  0.00    +0.037 A 
ATOM     18  C   UNL     1      30.636  21.126  16.763  0.00  0.00    +0.014 A 
ATOM     19  C   UNL     1      29.781  21.438  17.823  0.00  0.00    +0.014 A 
BRANCH  14  21
ATOM     20  N   UNL     1      26.165  21.423  18.610  0.00  0.00    -0.325 N 
ATOM     21  C   UNL     1      27.506  21.585  18.812  0.00  0.00    +0.242 C 
ATOM     22  O   UNL     1      27.955  21.847  19.918  0.00  0.00    -0.270 OA
ATOM     23  H   UNL     1      25.582  21.455  19.437  0.00  0.00    +0.145 HD
ATOM     24  H   UNL     1      25.793  20.957  17.794  0.00  0.00    +0.145 HD
ENDBRANCH  14  21
ENDBRANCH   1  17
TORSDOF 2
ENDMDL
MODEL 3
REMARK VINA RESULT:      -6.8      4.508      5.869
REMARK  Name = ZINC000870248439
REMARK  2 active torsions:
REMARK  status: ('A' for Active; 'I' for Inactive)
REMARK    1  A    between atoms: C_2  and  C_4
REMARK    2  A    between atoms: C_7  and  C_8
REMARK                            x       y       z     vdW  Elec       q    Type
REMARK                         _______ _______ _______ _____ _____    ______ ____
ROOT
ATOM      1  C   UNL     1      31.687  20.262  13.516  0.00  0.00    +0.247 C 
ATOM      2  O   UNL     1      31.962  19.114  13.168  0.00  0.00    -0.270 OA
ATOM      3  N   UNL     1      32.161  21.400  12.850  0.00  0.00    -0.297 N 
ATOM      4  C   UNL     1      31.895  22.787  13.239  0.00  0.00    +0.108 C 
ATOM      5  C   UNL     1      31.695  23.719  12.051  0.00  0.00    +0.026 C 
ATOM      6  C   UNL     1      32.807  23.610  10.985  0.00  0.00    -0.025 C 
ATOM      7  C   UNL     1      32.355  24.441   9.757  0.00  0.00    +0.017 C 
ATOM      8  C   UNL     1      33.350  24.482   8.606  0.00  0.00    +0.069 C 
ATOM      9  S   UNL     1      34.941  25.205   9.094  0.00  0.00    -0.161 S 
ATOM     10  C   UNL     1      35.292  24.195  10.558  0.00  0.00    +0.069 C 
ATOM     11  C   UNL     1      34.129  24.197  11.544  0.00  0.00    +0.017 C 
ATOM     12  C   UNL     1      32.933  22.110  10.610  0.00  0.00    +0.026 C 
ATOM     13  C   UNL     1      33.180  21.210  11.821  0.00  0.00    +0.108 C 
ENDROOT
BRANCH   1  17
ATOM     14  C   UNL     1      29.019  20.998  16.766  0.00  0.00    +0.037 A 
ATOM     15  C   UNL     1      30.347  20.652  17.036  0.00  0.00    +0.014 A 
ATOM     16  C   UNL     1      31.201  20.315  15.986  0.00  0.00    +0.014 A 
ATOM     17  C   UNL     1      30.758  20.417  14.662  0.00  0.00    +0.037 A 
ATOM     18  C   UNL     1      29.406  20.675  14.399  0.00  0.00    +0.014 A 
ATOM     19  C   UNL     1      28.533  20.955  15.453  0.00  0.00    +0.014 A 
BRANCH  14  21
ATOM     20  N   UNL     1      26.776  21.525  17.542  0.00  0.00    -0.325 N 
ATOM     21  C   UNL     1      28.101  21.413  17.857  0.00  0.00    +0.242 C 
ATOM     22  O   UNL     1      28.501  21.593  18.997  0.00  0.00    -0.270 OA
ATOM     23  H   UNL     1      26.146  21.687  18.317  0.00  0.00    +0.145 HD
ATOM     24  H   UNL     1      26.386  21.132  16.696  0.00  0.00    +0.145 HD
ENDBRANCH  14  21
ENDBRANCH   1  17
TORSDOF 2
ENDMDL
MODEL 4
REMARK VINA RESULT:      -6.8      4.302      8.427
REMARK  Name = ZINC000870248439
REMARK  2 active torsions:
REMARK  status: ('A' for Active; 'I' for Inactive)
REMARK    1  A    between atoms: C_2  and  C_4
REMARK    2  A    between atoms: C_7  and  C_8
REMARK                            x       y       z     vdW  Elec       q    Type
REMARK                         _______ _______ _______ _____ _____    ______ ____
ROOT
ATOM      1  C   UNL     1      32.447  17.098  11.952  0.00  0.00    +0.247 C 
ATOM      2  O   UNL     1      32.681  17.683  10.895  0.00  0.00    -0.270 OA
ATOM      3  N   UNL     1      31.977  17.747  13.102  0.00  0.00    -0.297 N 
ATOM      4  C   UNL     1      31.715  17.109  14.394  0.00  0.00    +0.108 C 
ATOM      5  C   UNL     1      30.490  17.669  15.106  0.00  0.00    +0.026 C 
ATOM      6  C   UNL     1      30.477  19.210  15.197  0.00  0.00    -0.025 C 
ATOM      7  C   UNL     1      29.088  19.630  15.739  0.00  0.00    +0.017 C 
ATOM      8  C   UNL     1      28.899  21.129  15.933  0.00  0.00    +0.069 C 
ATOM      9  S   UNL     1      30.086  21.827  17.114  0.00  0.00    -0.161 S 
ATOM     10  C   UNL     1      31.627  21.194  16.397  0.00  0.00    +0.069 C 
ATOM     11  C   UNL     1      31.578  19.686  16.181  0.00  0.00    +0.017 C 
ATOM     12  C   UNL     1      30.688  19.753  13.760  0.00  0.00    +0.026 C 
ATOM     13  C   UNL     1      31.952  19.208  13.094  0.00  0.00    +0.108 C 
ENDROOT
BRANCH   1  17
ATOM     14  C   UNL     1      32.939  12.869  12.277  0.00  0.00    +0.037 A 
ATOM     15  C   UNL     1      34.042  13.663  11.944  0.00  0.00    +0.014 A 
ATOM     16  C   UNL     1      33.872  15.032  11.740  0.00  0.00    +0.014 A 
ATOM     17  C   UNL     1      32.623  15.624  11.963  0.00  0.00    +0.037 A 
ATOM     18  C   UNL     1      31.504  14.818  12.207  0.00  0.00    +0.014 A 
ATOM     19  C   UNL     1      31.661  13.437  12.354  0.00  0.00    +0.014 A 
BRANCH  14  21
ATOM     20  N   UNL     1      33.401  10.617  11.488  0.00  0.00    -0.325 N 
ATOM     21  C   UNL     1      33.097  11.419  12.553  0.00  0.00    +0.242 C 
ATOM     22  O   UNL     1      33.014  10.969  13.685  0.00  0.00    -0.270 OA
ATOM     23  H   UNL     1      33.627   9.655  11.707  0.00  0.00    +0.145 HD
ATOM     24  H   UNL     1      33.732  10.987  10.609  0.00  0.00    +0.145 HD
ENDBRANCH  14  21
ENDBRANCH   1  17
TORSDOF 2
ENDMDL
MODEL 5
REMARK VINA RESULT:      -6.7      2.714      4.338
REMARK  Name = ZINC000870248439
REMARK  2 active torsions:
REMARK  status: ('A' for Active; 'I' for Inactive)
REMARK    1  A    between atoms: C_2  and  C_4
REMARK    2  A    between atoms: C_7  and  C_8
REMARK                            x       y       z     vdW  Elec       q    Type
REMARK                         _______ _______ _______ _____ _____    ______ ____
ROOT
ATOM      1  C   UNL     1      32.329  16.683  15.879  0.00  0.00    +0.247 C 
ATOM      2  O   UNL     1      32.581  16.413  17.053  0.00  0.00    -0.270 OA
ATOM      3  N   UNL     1      32.648  15.833  14.811  0.00  0.00    -0.297 N 
ATOM      4  C   UNL     1      32.405  16.118  13.395  0.00  0.00    +0.108 C 
ATOM      5  C   UNL     1      31.981  14.890  12.598  0.00  0.00    +0.026 C 
ATOM      6  C   UNL     1      32.903  13.669  12.804  0.00  0.00    -0.025 C 
ATOM      7  C   UNL     1      32.226  12.457  12.115  0.00  0.00    +0.017 C 
ATOM      8  C   UNL     1      33.014  11.156  12.182  0.00  0.00    +0.069 C 
ATOM      9  S   UNL     1      34.639  11.292  11.387  0.00  0.00    -0.161 S 
ATOM     10  C   UNL     1      35.262  12.771  12.230  0.00  0.00    +0.069 C 
ATOM     11  C   UNL     1      34.279  13.934  12.140  0.00  0.00    +0.017 C 
ATOM     12  C   UNL     1      33.014  13.434  14.333  0.00  0.00    +0.026 C 
ATOM     13  C   UNL     1      33.488  14.672  15.095  0.00  0.00    +0.108 C 
ENDROOT
BRANCH   1  17
ATOM     14  C   UNL     1      30.254  20.385  15.413  0.00  0.00    +0.037 A 
ATOM     15  C   UNL     1      29.534  19.186  15.364  0.00  0.00    +0.014 A 
ATOM     16  C   UNL     1      30.214  17.969  15.418  0.00  0.00    +0.014 A 
ATOM     17  C   UNL     1      31.599  17.948  15.617  0.00  0.00    +0.037 A 
ATOM     18  C   UNL     1      32.326  19.144  15.575  0.00  0.00    +0.014 A 
ATOM     19  C   UNL     1      31.654  20.363  15.461  0.00  0.00    +0.014 A 
BRANCH  14  21
ATOM     20  N   UNL     1      28.191  21.668  15.467  0.00  0.00    -0.325 N 
ATOM     21  C   UNL     1      29.556  21.695  15.411  0.00  0.00    +0.242 C 
ATOM     22  O   UNL     1      30.173  22.750  15.414  0.00  0.00    -0.270 OA
ATOM     23  H   UNL     1      27.733  22.563  15.589  0.00  0.00    +0.145 HD
ATOM     24  H   UNL     1      27.676  20.840  15.730  0.00  0.00    +0.145 HD
ENDBRANCH  14  21
ENDBRANCH   1  17
TORSDOF 2
ENDMDL
MODEL 6
REMARK VINA RESULT:      -6.6      2.701      4.371
REMARK  Name = ZINC000870248439
REMARK  2 active torsions:
REMARK  status: ('A' for Active; 'I' for Inactive)
REMARK    1  A    between atoms: C_2  and  C_4
REMARK    2  A    between atoms: C_7  and  C_8
REMARK                            x       y       z     vdW  Elec       q    Type
REMARK                         _______ _______ _______ _____ _____    ______ ____
ROOT
ATOM      1  C   UNL     1      29.011  22.080  19.036  0.00  0.00    +0.247 C 
ATOM      2  O   UNL     1      29.705  22.122  20.051  0.00  0.00    -0.270 OA
ATOM      3  N   UNL     1      29.468  21.569  17.814  0.00  0.00    -0.297 N 
ATOM      4  C   UNL     1      28.700  21.527  16.568  0.00  0.00    +0.108 C 
ATOM      5  C   UNL     1      28.948  20.266  15.749  0.00  0.00    +0.026 C 
ATOM      6  C   UNL     1      30.444  19.955  15.529  0.00  0.00    -0.025 C 
ATOM      7  C   UNL     1      30.535  18.549  14.884  0.00  0.00    +0.017 C 
ATOM      8  C   UNL     1      31.946  18.080  14.556  0.00  0.00    +0.069 C 
ATOM      9  S   UNL     1      32.785  19.183  13.385  0.00  0.00    -0.161 S 
ATOM     10  C   UNL     1      32.530  20.766  14.230  0.00  0.00    +0.069 C 
ATOM     11  C   UNL     1      31.063  21.002  14.568  0.00  0.00    +0.017 C 
ATOM     12  C   UNL     1      31.120  19.957  16.926  0.00  0.00    +0.026 C 
ATOM     13  C   UNL     1      30.890  21.255  17.699  0.00  0.00    +0.108 C 
ENDROOT
BRANCH   1  17
ATOM     14  C   UNL     1      24.979  23.485  19.096  0.00  0.00    +0.037 A 
ATOM     15  C   UNL     1      25.985  24.267  19.674  0.00  0.00    +0.014 A 
ATOM     16  C   UNL     1      27.288  23.774  19.747  0.00  0.00    +0.014 A 
ATOM     17  C   UNL     1      27.607  22.546  19.157  0.00  0.00    +0.037 A 
ATOM     18  C   UNL     1      26.585  21.726  18.660  0.00  0.00    +0.014 A 
ATOM     19  C   UNL     1      25.268  22.192  18.640  0.00  0.00    +0.014 A 
BRANCH  14  21
ATOM     20  N   UNL     1      23.400  25.010  18.054  0.00  0.00    -0.325 N 
ATOM     21  C   UNL     1      23.595  24.002  18.956  0.00  0.00    +0.242 C 
ATOM     22  O   UNL     1      22.663  23.515  19.577  0.00  0.00    -0.270 OA
ATOM     23  H   UNL     1      22.437  25.270  17.879  0.00  0.00    +0.145 HD
ATOM     24  H   UNL     1      24.083  25.246  17.349  0.00  0.00    +0.145 HD
ENDBRANCH  14  21
ENDBRANCH   1  17
TORSDOF 2
ENDMDL
MODEL 7
REMARK VINA RESULT:      -6.6      4.088      7.721
REMARK  Name = ZINC000870248439
REMARK  2 active torsions:
REMARK  status: ('A' for Active; 'I' for Inactive)
REMARK    1  A    between atoms: C_2  and  C_4
REMARK    2  A    between atoms: C_7  and  C_8
REMARK                            x       y       z     vdW  Elec       q    Type
REMARK                         _______ _______ _______ _____ _____    ______ ____
ROOT
ATOM      1  C   UNL     1      30.666  19.861  14.940  0.00  0.00    +0.247 C 
ATOM      2  O   UNL     1      29.602  20.350  14.564  0.00  0.00    -0.270 OA
ATOM      3  N   UNL     1      31.441  20.408  15.972  0.00  0.00    -0.297 N 
ATOM      4  C   UNL     1      32.730  19.890  16.436  0.00  0.00    +0.108 C 
ATOM      5  C   UNL     1      32.915  19.996  17.945  0.00  0.00    +0.026 C 
ATOM      6  C   UNL     1      32.607  21.400  18.508  0.00  0.00    -0.025 C 
ATOM      7  C   UNL     1      32.624  21.293  20.054  0.00  0.00    +0.017 C 
ATOM      8  C   UNL     1      32.375  22.601  20.793  0.00  0.00    +0.069 C 
ATOM      9  S   UNL     1      33.619  23.862  20.404  0.00  0.00    -0.161 S 
ATOM     10  C   UNL     1      33.535  23.815  18.593  0.00  0.00    +0.069 C 
ATOM     11  C   UNL     1      33.701  22.400  18.051  0.00  0.00    +0.017 C 
ATOM     12  C   UNL     1      31.194  21.794  18.005  0.00  0.00    +0.026 C 
ATOM     13  C   UNL     1      31.059  21.721  16.484  0.00  0.00    +0.108 C 
ENDROOT
BRANCH   1  17
ATOM     14  C   UNL     1      31.725  16.291  12.850  0.00  0.00    +0.037 A 
ATOM     15  C   UNL     1      30.886  16.207  13.966  0.00  0.00    +0.014 A 
ATOM     16  C   UNL     1      30.613  17.353  14.714  0.00  0.00    +0.014 A 
ATOM     17  C   UNL     1      31.096  18.597  14.292  0.00  0.00    +0.037 A 
ATOM     18  C   UNL     1      32.007  18.666  13.230  0.00  0.00    +0.014 A 
ATOM     19  C   UNL     1      32.330  17.509  12.514  0.00  0.00    +0.014 A 
BRANCH  14  21
ATOM     20  N   UNL     1      33.129  15.123  11.247  0.00  0.00    -0.325 N 
ATOM     21  C   UNL     1      31.992  15.101  12.004  0.00  0.00    +0.242 C 
ATOM     22  O   UNL     1      31.259  14.124  12.023  0.00  0.00    -0.270 OA
ATOM     23  H   UNL     1      33.364  14.261  10.771  0.00  0.00    +0.145 HD
ATOM     24  H   UNL     1      33.875  15.785  11.408  0.00  0.00    +0.145 HD
ENDBRANCH  14  21
ENDBRANCH   1  17
TORSDOF 2
ENDMDL
MODEL 8
REMARK VINA RESULT:      -6.5      1.453      2.051
REMARK  Name = ZINC000870248439
REMARK  2 active torsions:
REMARK  status: ('A' for Active; 'I' for Inactive)
REMARK    1  A    between atoms: C_2  and  C_4
REMARK    2  A    between atoms: C_7  and  C_8
REMARK                            x       y       z     vdW  Elec       q    Type
REMARK                         _______ _______ _______ _____ _____    ______ ____
ROOT
ATOM      1  C   UNL     1      31.748  20.210  14.990  0.00  0.00    +0.247 C 
ATOM      2  O   UNL     1      32.301  21.061  14.295  0.00  0.00    -0.270 OA
ATOM      3  N   UNL     1      32.223  18.898  15.122  0.00  0.00    -0.297 N 
ATOM      4  C   UNL     1      31.587  17.836  15.905  0.00  0.00    +0.108 C 
ATOM      5  C   UNL     1      32.586  16.929  16.614  0.00  0.00    +0.026 C 
ATOM      6  C   UNL     1      33.699  16.392  15.688  0.00  0.00    -0.025 C 
ATOM      7  C   UNL     1      34.744  15.680  16.584  0.00  0.00    +0.017 C 
ATOM      8  C   UNL     1      35.910  15.048  15.837  0.00  0.00    +0.069 C 
ATOM      9  S   UNL     1      35.368  13.779  14.660  0.00  0.00    -0.161 S 
ATOM     10  C   UNL     1      34.118  14.727  13.751  0.00  0.00    +0.069 C 
ATOM     11  C   UNL     1      33.101  15.371  14.686  0.00  0.00    +0.017 C 
ATOM     12  C   UNL     1      34.335  17.618  14.981  0.00  0.00    +0.026 C 
ATOM     13  C   UNL     1      33.310  18.478  14.241  0.00  0.00    +0.108 C 
ENDROOT
BRANCH   1  17
ATOM     14  C   UNL     1      28.342  21.195  17.369  0.00  0.00    +0.037 A 
ATOM     15  C   UNL     1      28.155  20.765  16.051  0.00  0.00    +0.014 A 
ATOM     16  C   UNL     1      29.263  20.534  15.235  0.00  0.00    +0.014 A 
ATOM     17  C   UNL     1      30.555  20.638  15.762  0.00  0.00    +0.037 A 
ATOM     18  C   UNL     1      30.741  21.155  17.050  0.00  0.00    +0.014 A 
ATOM     19  C   UNL     1      29.633  21.444  17.851  0.00  0.00    +0.014 A 
BRANCH  14  21
ATOM     20  N   UNL     1      27.468  21.676  19.585  0.00  0.00    -0.325 N 
ATOM     21  C   UNL     1      27.186  21.398  18.277  0.00  0.00    +0.242 C 
ATOM     22  O   UNL     1      26.035  21.372  17.866  0.00  0.00    -0.270 OA
ATOM     23  H   UNL     1      26.679  21.933  20.166  0.00  0.00    +0.145 HD
ATOM     24  H   UNL     1      28.387  21.962  19.892  0.00  0.00    +0.145 HD
ENDBRANCH  14  21
ENDBRANCH   1  17
TORSDOF 2
ENDMDL
MODEL 9
REMARK VINA RESULT:      -6.3      6.030      9.326
REMARK  Name = ZINC000870248439
REMARK  2 active torsions:
REMARK  status: ('A' for Active; 'I' for Inactive)
REMARK    1  A    between atoms: C_2  and  C_4
REMARK    2  A    between atoms: C_7  and  C_8
REMARK                            x       y       z     vdW  Elec       q    Type
REMARK                         _______ _______ _______ _____ _____    ______ ____
ROOT
ATOM      1  C   UNL     1      32.293  23.525  10.438  0.00  0.00    +0.247 C 
ATOM      2  O   UNL     1      31.529  24.489  10.408  0.00  0.00    -0.270 OA
ATOM      3  N   UNL     1      32.409  22.673  11.545  0.00  0.00    -0.297 N 
ATOM      4  C   UNL     1      33.325  21.534  11.649  0.00  0.00    +0.108 C 
ATOM      5  C   UNL     1      32.723  20.343  12.384  0.00  0.00    +0.026 C 
ATOM      6  C   UNL     1      32.083  20.711  13.740  0.00  0.00    -0.025 C 
ATOM      7  C   UNL     1      31.332  19.456  14.254  0.00  0.00    +0.017 C 
ATOM      8  C   UNL     1      30.660  19.618  15.611  0.00  0.00    +0.069 C 
ATOM      9  S   UNL     1      31.846  20.017  16.924  0.00  0.00    -0.161 S 
ATOM     10  C   UNL     1      32.681  21.430  16.154  0.00  0.00    +0.069 C 
ATOM     11  C   UNL     1      33.190  21.097  14.755  0.00  0.00    +0.017 C 
ATOM     12  C   UNL     1      31.088  21.870  13.475  0.00  0.00    +0.026 C 
ATOM     13  C   UNL     1      31.736  23.067  12.779  0.00  0.00    +0.108 C 
ENDROOT
BRANCH   1  17
ATOM     14  C   UNL     1      34.694  22.514   7.056  0.00  0.00    +0.037 A 
ATOM     15  C   UNL     1      34.881  23.751   7.683  0.00  0.00    +0.014 A 
ATOM     16  C   UNL     1      34.037  24.131   8.727  0.00  0.00    +0.014 A 
ATOM     17  C   UNL     1      33.072  23.240   9.208  0.00  0.00    +0.037 A 
ATOM     18  C   UNL     1      32.827  22.043   8.522  0.00  0.00    +0.014 A 
ATOM     19  C   UNL     1      33.632  21.685   7.438  0.00  0.00    +0.014 A 
BRANCH  14  21
ATOM     20  N   UNL     1      36.843  22.643   5.927  0.00  0.00    -0.325 N 
ATOM     21  C   UNL     1      35.608  22.059   5.979  0.00  0.00    +0.242 C 
ATOM     22  O   UNL     1      35.295  21.165   5.207  0.00  0.00    -0.270 OA
ATOM     23  H   UNL     1      37.499  22.240   5.269  0.00  0.00    +0.145 HD
ATOM     24  H   UNL     1      37.221  23.179   6.695  0.00  0.00    +0.145 HD
ENDBRANCH  14  21
ENDBRANCH   1  17
TORSDOF 2
ENDMDL
