MODEL 1
REMARK VINA RESULT:      -6.8      0.000      0.000
REMARK  Name = ZINC000543478179
REMARK  8 active torsions:
REMARK  status: ('A' for Active; 'I' for Inactive)
REMARK    1  A    between atoms: C_1  and  C_2
REMARK    2  A    between atoms: C_2  and  N_3
REMARK    3  A    between atoms: N_9  and  C_10
REMARK    4  A    between atoms: C_10  and  C_11
REMARK    5  A    between atoms: C_10  and  C_12
REMARK    6  A    between atoms: C_15  and  O_16
REMARK    7  A    between atoms: O_16  and  C_17
REMARK    8  A    between atoms: C_17  and  C_18
REMARK                            x       y       z     vdW  Elec       q    Type
REMARK                         _______ _______ _______ _____ _____    ______ ____
ROOT
ATOM      1  C   UNL     1      30.182  21.843  14.589  0.00  0.00    +0.102 C 
ATOM      2  C   UNL     1      30.343  20.330  14.388  0.00  0.00    +0.033 C 
ENDROOT
BRANCH   1   9
ATOM      3  N   UNL     1      31.639  23.326  20.634  0.00  0.00    -0.299 N 
ATOM      4  C   UNL     1      30.292  22.779  20.464  0.00  0.00    +0.127 C 
ATOM      5  C   UNL     1      29.569  23.400  19.264  0.00  0.00    +0.129 C 
ATOM      6  N   UNL     1      30.353  23.164  18.056  0.00  0.00    -0.275 N 
ATOM      7  C   UNL     1      29.757  22.589  16.942  0.00  0.00    +0.303 C 
ATOM      8  O   UNL     1      28.569  22.298  16.895  0.00  0.00    -0.253 OA
ATOM      9  N   UNL     1      30.614  22.337  15.899  0.00  0.00    -0.293 N 
ATOM     10  C   UNL     1      31.761  23.556  18.150  0.00  0.00    +0.205 C 
ATOM     11  C   UNL     1      32.341  23.842  19.547  0.00  0.00    +0.233 C 
ATOM     12  O   UNL     1      33.443  24.378  19.666  0.00  0.00    -0.274 OA
ATOM     13  H   UNL     1      31.399  22.963  15.848  0.00  0.00    +0.151 HD
BRANCH   3  15
ATOM     14  C   UNL     1      31.762  21.837  22.601  0.00  0.00    +0.024 C 
ATOM     15  C   UNL     1      32.380  23.012  21.854  0.00  0.00    +0.104 C 
ENDBRANCH   3  15
ENDBRANCH   1   9
BRANCH   1  16
ATOM     16  C   UNL     1      30.981  22.590  13.527  0.00  0.00    -0.024 A 
ATOM     17  C   UNL     1      32.148  22.009  12.997  0.00  0.00    +0.009 A 
ATOM     18  C   UNL     1      32.949  22.697  12.091  0.00  0.00    +0.049 A 
ATOM     19  C   UNL     1      32.628  24.005  11.726  0.00  0.00    +0.156 A 
ATOM     20  C   UNL     1      31.437  24.565  12.196  0.00  0.00    +0.165 A 
ATOM     21  F   UNL     1      31.078  25.803  11.824  0.00  0.00    -0.202 F 
ATOM     22  C   UNL     1      30.618  23.872  13.092  0.00  0.00    +0.047 A 
BRANCH  19  23
ATOM     23  O   UNL     1      33.431  24.790  10.941  0.00  0.00    -0.489 OA
BRANCH  23  24
ATOM     24  C   UNL     1      33.764  24.216   9.674  0.00  0.00    +0.232 C 
BRANCH  24  25
ATOM     25  C   UNL     1      32.506  23.962   8.910  0.00  0.00    +0.027 C 
ATOM     26  C   UNL     1      32.398  22.766   8.001  0.00  0.00    +0.007 C 
ATOM     27  C   UNL     1      32.460  24.150   7.413  0.00  0.00    +0.007 C 
ENDBRANCH  24  25
ENDBRANCH  23  24
ENDBRANCH  19  23
ENDBRANCH   1  16
TORSDOF 6
ENDMDL
MODEL 2
REMARK VINA RESULT:      -6.3      5.770      9.787
REMARK  Name = ZINC000543478179
REMARK  8 active torsions:
REMARK  status: ('A' for Active; 'I' for Inactive)
REMARK    1  A    between atoms: C_1  and  C_2
REMARK    2  A    between atoms: C_2  and  N_3
REMARK    3  A    between atoms: N_9  and  C_10
REMARK    4  A    between atoms: C_10  and  C_11
REMARK    5  A    between atoms: C_10  and  C_12
REMARK    6  A    between atoms: C_15  and  O_16
REMARK    7  A    between atoms: O_16  and  C_17
REMARK    8  A    between atoms: C_17  and  C_18
REMARK                            x       y       z     vdW  Elec       q    Type
REMARK                         _______ _______ _______ _____ _____    ______ ____
ROOT
ATOM      1  C   UNL     1      34.247  18.151  12.346  0.00  0.00    +0.102 C 
ATOM      2  C   UNL     1      34.741  16.852  11.695  0.00  0.00    +0.033 C 
ENDROOT
BRANCH   1   9
ATOM      3  N   UNL     1      34.326  23.032   8.218  0.00  0.00    -0.299 N 
ATOM      4  C   UNL     1      35.452  23.025   9.153  0.00  0.00    +0.127 C 
ATOM      5  C   UNL     1      35.003  22.734  10.588  0.00  0.00    +0.129 C 
ATOM      6  N   UNL     1      34.323  21.442  10.626  0.00  0.00    -0.275 N 
ATOM      7  C   UNL     1      34.723  20.474  11.537  0.00  0.00    +0.303 C 
ATOM      8  O   UNL     1      35.608  20.657  12.362  0.00  0.00    -0.253 OA
ATOM      9  N   UNL     1      34.068  19.272  11.419  0.00  0.00    -0.293 N 
ATOM     10  C   UNL     1      33.253  21.282   9.641  0.00  0.00    +0.205 C 
ATOM     11  C   UNL     1      33.174  22.298   8.486  0.00  0.00    +0.233 C 
ATOM     12  O   UNL     1      32.179  22.339   7.761  0.00  0.00    -0.274 OA
ATOM     13  H   UNL     1      33.132  19.345  11.059  0.00  0.00    +0.151 HD
BRANCH   3  15
ATOM     14  C   UNL     1      35.274  22.481   6.004  0.00  0.00    +0.024 C 
ATOM     15  C   UNL     1      34.543  23.512   6.854  0.00  0.00    +0.104 C 
ENDBRANCH   3  15
ENDBRANCH   1   9
BRANCH   1  16
ATOM     16  C   UNL     1      32.910  17.905  13.035  0.00  0.00    -0.024 A 
ATOM     17  C   UNL     1      32.576  18.639  14.189  0.00  0.00    +0.009 A 
ATOM     18  C   UNL     1      31.403  18.381  14.892  0.00  0.00    +0.049 A 
ATOM     19  C   UNL     1      30.555  17.350  14.487  0.00  0.00    +0.156 A 
ATOM     20  C   UNL     1      30.845  16.661  13.307  0.00  0.00    +0.165 A 
ATOM     21  F   UNL     1      30.024  15.696  12.866  0.00  0.00    -0.202 F 
ATOM     22  C   UNL     1      32.013  16.928  12.584  0.00  0.00    +0.047 A 
BRANCH  19  23
ATOM     23  O   UNL     1      29.453  16.954  15.197  0.00  0.00    -0.489 OA
BRANCH  23  24
ATOM     24  C   UNL     1      28.260  17.683  14.895  0.00  0.00    +0.232 C 
BRANCH  24  25
ATOM     25  C   UNL     1      27.838  18.448  16.106  0.00  0.00    +0.027 C 
ATOM     26  C   UNL     1      26.409  18.898  16.260  0.00  0.00    +0.007 C 
ATOM     27  C   UNL     1      27.490  19.914  16.011  0.00  0.00    +0.007 C 
ENDBRANCH  24  25
ENDBRANCH  23  24
ENDBRANCH  19  23
ENDBRANCH   1  16
TORSDOF 6
ENDMDL
MODEL 3
REMARK VINA RESULT:      -6.3      3.917      5.875
REMARK  Name = ZINC000543478179
REMARK  8 active torsions:
REMARK  status: ('A' for Active; 'I' for Inactive)
REMARK    1  A    between atoms: C_1  and  C_2
REMARK    2  A    between atoms: C_2  and  N_3
REMARK    3  A    between atoms: N_9  and  C_10
REMARK    4  A    between atoms: C_10  and  C_11
REMARK    5  A    between atoms: C_10  and  C_12
REMARK    6  A    between atoms: C_15  and  O_16
REMARK    7  A    between atoms: O_16  and  C_17
REMARK    8  A    between atoms: C_17  and  C_18
REMARK                            x       y       z     vdW  Elec       q    Type
REMARK                         _______ _______ _______ _____ _____    ______ ____
ROOT
ATOM      1  C   UNL     1      33.492  22.890  16.238  0.00  0.00    +0.102 C 
ATOM      2  C   UNL     1      33.994  24.029  15.339  0.00  0.00    +0.033 C 
ENDROOT
BRANCH   1   9
ATOM      3  N   UNL     1      34.672  23.530  22.488  0.00  0.00    -0.299 N 
ATOM      4  C   UNL     1      34.984  22.203  21.957  0.00  0.00    +0.127 C 
ATOM      5  C   UNL     1      33.876  21.679  21.039  0.00  0.00    +0.129 C 
ATOM      6  N   UNL     1      33.680  22.617  19.937  0.00  0.00    -0.275 N 
ATOM      7  C   UNL     1      33.709  22.163  18.626  0.00  0.00    +0.303 C 
ATOM      8  O   UNL     1      33.851  20.985  18.328  0.00  0.00    -0.253 OA
ATOM      9  N   UNL     1      33.601  23.150  17.676  0.00  0.00    -0.293 N 
ATOM     10  C   UNL     1      33.485  24.010  20.343  0.00  0.00    +0.205 C 
ATOM     11  C   UNL     1      33.832  24.396  21.793  0.00  0.00    +0.233 C 
ATOM     12  O   UNL     1      33.487  25.489  22.245  0.00  0.00    -0.274 OA
ATOM     13  H   UNL     1      33.078  23.956  17.975  0.00  0.00    +0.151 HD
BRANCH   3  15
ATOM     14  C   UNL     1      35.497  23.198  24.793  0.00  0.00    +0.024 C 
ATOM     15  C   UNL     1      35.511  24.081  23.551  0.00  0.00    +0.104 C 
ENDBRANCH   3  15
ENDBRANCH   1   9
BRANCH   1  16
ATOM     16  C   UNL     1      32.027  22.601  15.931  0.00  0.00    -0.024 A 
ATOM     17  C   UNL     1      31.029  23.044  16.819  0.00  0.00    +0.009 A 
ATOM     18  C   UNL     1      29.690  22.725  16.615  0.00  0.00    +0.049 A 
ATOM     19  C   UNL     1      29.318  21.914  15.543  0.00  0.00    +0.156 A 
ATOM     20  C   UNL     1      30.293  21.523  14.621  0.00  0.00    +0.165 A 
ATOM     21  F   UNL     1      29.959  20.783  13.554  0.00  0.00    -0.202 F 
ATOM     22  C   UNL     1      31.639  21.857  14.808  0.00  0.00    +0.047 A 
BRANCH  19  23
ATOM     23  O   UNL     1      28.043  21.453  15.349  0.00  0.00    -0.489 OA
BRANCH  23  24
ATOM     24  C   UNL     1      27.287  21.282  16.552  0.00  0.00    +0.232 C 
BRANCH  24  25
ATOM     25  C   UNL     1      27.291  19.836  16.926  0.00  0.00    +0.027 C 
ATOM     26  C   UNL     1      27.487  18.779  15.871  0.00  0.00    +0.007 C 
ATOM     27  C   UNL     1      26.145  18.934  16.535  0.00  0.00    +0.007 C 
ENDBRANCH  24  25
ENDBRANCH  23  24
ENDBRANCH  19  23
ENDBRANCH   1  16
TORSDOF 6
ENDMDL
MODEL 4
REMARK VINA RESULT:      -6.2      3.782      8.614
REMARK  Name = ZINC000543478179
REMARK  8 active torsions:
REMARK  status: ('A' for Active; 'I' for Inactive)
REMARK    1  A    between atoms: C_1  and  C_2
REMARK    2  A    between atoms: C_2  and  N_3
REMARK    3  A    between atoms: N_9  and  C_10
REMARK    4  A    between atoms: C_10  and  C_11
REMARK    5  A    between atoms: C_10  and  C_12
REMARK    6  A    between atoms: C_15  and  O_16
REMARK    7  A    between atoms: O_16  and  C_17
REMARK    8  A    between atoms: C_17  and  C_18
REMARK                            x       y       z     vdW  Elec       q    Type
REMARK                         _______ _______ _______ _____ _____    ______ ____
ROOT
ATOM      1  C   UNL     1      30.432  22.156  14.811  0.00  0.00    +0.102 C 
ATOM      2  C   UNL     1      30.901  23.215  13.804  0.00  0.00    +0.033 C 
ENDROOT
BRANCH   1   9
ATOM      3  N   UNL     1      32.493  16.283  13.356  0.00  0.00    -0.299 N 
ATOM      4  C   UNL     1      31.054  16.471  13.169  0.00  0.00    +0.127 C 
ATOM      5  C   UNL     1      30.416  17.212  14.349  0.00  0.00    +0.129 C 
ATOM      6  N   UNL     1      31.066  18.509  14.510  0.00  0.00    -0.275 N 
ATOM      7  C   UNL     1      30.302  19.666  14.565  0.00  0.00    +0.303 C 
ATOM      8  O   UNL     1      29.079  19.663  14.527  0.00  0.00    -0.253 OA
ATOM      9  N   UNL     1      31.029  20.830  14.630  0.00  0.00    -0.293 N 
ATOM     10  C   UNL     1      32.528  18.460  14.579  0.00  0.00    +0.205 C 
ATOM     11  C   UNL     1      33.229  17.158  14.151  0.00  0.00    +0.233 C 
ATOM     12  O   UNL     1      34.425  16.988  14.391  0.00  0.00    -0.274 OA
ATOM     13  H   UNL     1      31.925  20.734  15.076  0.00  0.00    +0.151 HD
BRANCH   3  15
ATOM     14  C   UNL     1      33.112  15.886  10.998  0.00  0.00    +0.024 C 
ATOM     15  C   UNL     1      33.216  15.403  12.438  0.00  0.00    +0.104 C 
ENDBRANCH   3  15
ENDBRANCH   1   9
BRANCH   1  16
ATOM     16  C   UNL     1      30.754  22.617  16.228  0.00  0.00    -0.024 A 
ATOM     17  C   UNL     1      32.085  22.588  16.684  0.00  0.00    +0.009 A 
ATOM     18  C   UNL     1      32.405  22.920  17.997  0.00  0.00    +0.049 A 
ATOM     19  C   UNL     1      31.395  23.245  18.903  0.00  0.00    +0.156 A 
ATOM     20  C   UNL     1      30.079  23.341  18.443  0.00  0.00    +0.165 A 
ATOM     21  F   UNL     1      29.093  23.698  19.279  0.00  0.00    -0.202 F 
ATOM     22  C   UNL     1      29.753  23.027  17.119  0.00  0.00    +0.047 A 
BRANCH  19  23
ATOM     23  O   UNL     1      31.617  23.459  20.238  0.00  0.00    -0.489 OA
BRANCH  23  24
ATOM     24  C   UNL     1      32.940  23.139  20.677  0.00  0.00    +0.232 C 
BRANCH  24  25
ATOM     25  C   UNL     1      32.871  21.998  21.638  0.00  0.00    +0.027 C 
ATOM     26  C   UNL     1      31.660  21.818  22.516  0.00  0.00    +0.007 C 
ATOM     27  C   UNL     1      32.971  22.235  23.126  0.00  0.00    +0.007 C 
ENDBRANCH  24  25
ENDBRANCH  23  24
ENDBRANCH  19  23
ENDBRANCH   1  16
TORSDOF 6
ENDMDL
MODEL 5
REMARK VINA RESULT:      -6.1      2.758      8.954
REMARK  Name = ZINC000543478179
REMARK  8 active torsions:
REMARK  status: ('A' for Active; 'I' for Inactive)
REMARK    1  A    between atoms: C_1  and  C_2
REMARK    2  A    between atoms: C_2  and  N_3
REMARK    3  A    between atoms: N_9  and  C_10
REMARK    4  A    between atoms: C_10  and  C_11
REMARK    5  A    between atoms: C_10  and  C_12
REMARK    6  A    between atoms: C_15  and  O_16
REMARK    7  A    between atoms: O_16  and  C_17
REMARK    8  A    between atoms: C_17  and  C_18
REMARK                            x       y       z     vdW  Elec       q    Type
REMARK                         _______ _______ _______ _____ _____    ______ ____
ROOT
ATOM      1  C   UNL     1      30.771  21.423  14.592  0.00  0.00    +0.102 C 
ATOM      2  C   UNL     1      29.249  21.413  14.393  0.00  0.00    +0.033 C 
ENDROOT
BRANCH   1   9
ATOM      3  N   UNL     1      33.762  23.445   9.317  0.00  0.00    -0.299 N 
ATOM      4  C   UNL     1      33.687  21.989   9.436  0.00  0.00    +0.127 C 
ATOM      5  C   UNL     1      34.035  21.512  10.850  0.00  0.00    +0.129 C 
ATOM      6  N   UNL     1      33.121  22.133  11.805  0.00  0.00    -0.275 N 
ATOM      7  C   UNL     1      32.421  21.346  12.709  0.00  0.00    +0.303 C 
ATOM      8  O   UNL     1      32.558  20.132  12.785  0.00  0.00    -0.253 OA
ATOM      9  N   UNL     1      31.529  22.032  13.496  0.00  0.00    -0.293 N 
ATOM     10  C   UNL     1      33.013  23.589  11.695  0.00  0.00    +0.205 C 
ATOM     11  C   UNL     1      33.572  24.262  10.428  0.00  0.00    +0.233 C 
ATOM     12  O   UNL     1      33.702  25.486  10.380  0.00  0.00    -0.274 OA
ATOM     13  H   UNL     1      31.785  22.989  13.672  0.00  0.00    +0.151 HD
BRANCH   3  15
ATOM     14  C   UNL     1      32.255  24.040   7.451  0.00  0.00    +0.024 C 
ATOM     15  C   UNL     1      33.681  24.050   7.988  0.00  0.00    +0.104 C 
ENDBRANCH   3  15
ENDBRANCH   1   9
BRANCH   1  16
ATOM     16  C   UNL     1      31.118  22.181  15.869  0.00  0.00    -0.024 A 
ATOM     17  C   UNL     1      32.462  22.285  16.274  0.00  0.00    +0.009 A 
ATOM     18  C   UNL     1      32.807  22.896  17.476  0.00  0.00    +0.049 A 
ATOM     19  C   UNL     1      31.813  23.376  18.328  0.00  0.00    +0.156 A 
ATOM     20  C   UNL     1      30.481  23.336  17.905  0.00  0.00    +0.165 A 
ATOM     21  F   UNL     1      29.508  23.834  18.682  0.00  0.00    -0.202 F 
ATOM     22  C   UNL     1      30.129  22.742  16.688  0.00  0.00    +0.047 A 
BRANCH  19  23
ATOM     23  O   UNL     1      32.064  23.872  19.580  0.00  0.00    -0.489 OA
BRANCH  23  24
ATOM     24  C   UNL     1      32.962  23.078  20.362  0.00  0.00    +0.232 C 
BRANCH  24  25
ATOM     25  C   UNL     1      32.205  21.942  20.966  0.00  0.00    +0.027 C 
ATOM     26  C   UNL     1      30.886  22.188  21.652  0.00  0.00    +0.007 C 
ATOM     27  C   UNL     1      32.091  21.801  22.465  0.00  0.00    +0.007 C 
ENDBRANCH  24  25
ENDBRANCH  23  24
ENDBRANCH  19  23
ENDBRANCH   1  16
TORSDOF 6
ENDMDL
MODEL 6
REMARK VINA RESULT:      -6.0      3.693      8.914
REMARK  Name = ZINC000543478179
REMARK  8 active torsions:
REMARK  status: ('A' for Active; 'I' for Inactive)
REMARK    1  A    between atoms: C_1  and  C_2
REMARK    2  A    between atoms: C_2  and  N_3
REMARK    3  A    between atoms: N_9  and  C_10
REMARK    4  A    between atoms: C_10  and  C_11
REMARK    5  A    between atoms: C_10  and  C_12
REMARK    6  A    between atoms: C_15  and  O_16
REMARK    7  A    between atoms: O_16  and  C_17
REMARK    8  A    between atoms: C_17  and  C_18
REMARK                            x       y       z     vdW  Elec       q    Type
REMARK                         _______ _______ _______ _____ _____    ______ ____
ROOT
ATOM      1  C   UNL     1      33.566  21.857  14.644  0.00  0.00    +0.102 C 
ATOM      2  C   UNL     1      34.032  20.463  15.088  0.00  0.00    +0.033 C 
ENDROOT
BRANCH   1   9
ATOM      3  N   UNL     1      35.158  23.334   8.632  0.00  0.00    -0.299 N 
ATOM      4  C   UNL     1      35.728  24.233   9.636  0.00  0.00    +0.127 C 
ATOM      5  C   UNL     1      34.695  24.642  10.691  0.00  0.00    +0.129 C 
ATOM      6  N   UNL     1      34.173  23.444  11.342  0.00  0.00    -0.275 N 
ATOM      7  C   UNL     1      34.182  23.345  12.726  0.00  0.00    +0.303 C 
ATOM      8  O   UNL     1      34.575  24.245  13.458  0.00  0.00    -0.253 OA
ATOM      9  N   UNL     1      33.747  22.139  13.218  0.00  0.00    -0.293 N 
ATOM     10  C   UNL     1      33.688  22.409  10.427  0.00  0.00    +0.205 C 
ATOM     11  C   UNL     1      34.070  22.521   8.939  0.00  0.00    +0.233 C 
ATOM     12  O   UNL     1      33.518  21.809   8.099  0.00  0.00    -0.274 OA
ATOM     13  H   UNL     1      33.078  21.671  12.632  0.00  0.00    +0.151 HD
BRANCH   3  15
ATOM     14  C   UNL     1      35.443  23.808   6.224  0.00  0.00    +0.024 C 
ATOM     15  C   UNL     1      35.939  23.027   7.435  0.00  0.00    +0.104 C 
ENDBRANCH   3  15
ENDBRANCH   1   9
BRANCH   1  16
ATOM     16  C   UNL     1      32.085  22.028  14.963  0.00  0.00    -0.024 A 
ATOM     17  C   UNL     1      31.699  22.652  16.165  0.00  0.00    +0.009 A 
ATOM     18  C   UNL     1      30.359  22.750  16.528  0.00  0.00    +0.049 A 
ATOM     19  C   UNL     1      29.372  22.183  15.722  0.00  0.00    +0.156 A 
ATOM     20  C   UNL     1      29.740  21.620  14.497  0.00  0.00    +0.165 A 
ATOM     21  F   UNL     1      28.808  21.110  13.679  0.00  0.00    -0.202 F 
ATOM     22  C   UNL     1      31.083  21.536  14.116  0.00  0.00    +0.047 A 
BRANCH  19  23
ATOM     23  O   UNL     1      28.049  22.126  16.074  0.00  0.00    -0.489 OA
BRANCH  23  24
ATOM     24  C   UNL     1      27.714  21.041  16.945  0.00  0.00    +0.232 C 
BRANCH  24  25
ATOM     25  C   UNL     1      26.986  19.998  16.162  0.00  0.00    +0.027 C 
ATOM     26  C   UNL     1      26.504  18.741  16.838  0.00  0.00    +0.007 C 
ATOM     27  C   UNL     1      27.637  18.672  15.850  0.00  0.00    +0.007 C 
ENDBRANCH  24  25
ENDBRANCH  23  24
ENDBRANCH  19  23
ENDBRANCH   1  16
TORSDOF 6
ENDMDL
MODEL 7
REMARK VINA RESULT:      -6.0      1.230      1.760
REMARK  Name = ZINC000543478179
REMARK  8 active torsions:
REMARK  status: ('A' for Active; 'I' for Inactive)
REMARK    1  A    between atoms: C_1  and  C_2
REMARK    2  A    between atoms: C_2  and  N_3
REMARK    3  A    between atoms: N_9  and  C_10
REMARK    4  A    between atoms: C_10  and  C_11
REMARK    5  A    between atoms: C_10  and  C_12
REMARK    6  A    between atoms: C_15  and  O_16
REMARK    7  A    between atoms: O_16  and  C_17
REMARK    8  A    between atoms: C_17  and  C_18
REMARK                            x       y       z     vdW  Elec       q    Type
REMARK                         _______ _______ _______ _____ _____    ______ ____
ROOT
ATOM      1  C   UNL     1      31.018  21.523  14.322  0.00  0.00    +0.102 C 
ATOM      2  C   UNL     1      31.740  20.199  14.034  0.00  0.00    +0.033 C 
ENDROOT
BRANCH   1   9
ATOM      3  N   UNL     1      31.696  23.454  20.378  0.00  0.00    -0.299 N 
ATOM      4  C   UNL     1      30.338  23.030  20.038  0.00  0.00    +0.127 C 
ATOM      5  C   UNL     1      29.883  23.597  18.689  0.00  0.00    +0.129 C 
ATOM      6  N   UNL     1      30.809  23.163  17.648  0.00  0.00    -0.275 N 
ATOM      7  C   UNL     1      30.328  22.541  16.504  0.00  0.00    +0.303 C 
ATOM      8  O   UNL     1      29.135  22.367  16.289  0.00  0.00    -0.253 OA
ATOM      9  N   UNL     1      31.299  22.101  15.639  0.00  0.00    -0.293 N 
ATOM     10  C   UNL     1      32.222  23.418  17.936  0.00  0.00    +0.205 C 
ATOM     11  C   UNL     1      32.611  23.784  19.381  0.00  0.00    +0.233 C 
ATOM     12  O   UNL     1      33.736  24.216  19.632  0.00  0.00    -0.274 OA
ATOM     13  H   UNL     1      32.149  22.637  15.664  0.00  0.00    +0.151 HD
BRANCH   3  15
ATOM     14  C   UNL     1      31.615  21.911  22.306  0.00  0.00    +0.024 C 
ATOM     15  C   UNL     1      32.202  23.191  21.725  0.00  0.00    +0.104 C 
ENDBRANCH   3  15
ENDBRANCH   1   9
BRANCH   1  16
ATOM     16  C   UNL     1      31.406  22.558  13.272  0.00  0.00    -0.024 A 
ATOM     17  C   UNL     1      32.556  22.356  12.486  0.00  0.00    +0.009 A 
ATOM     18  C   UNL     1      32.987  23.318  11.578  0.00  0.00    +0.049 A 
ATOM     19  C   UNL     1      32.306  24.530  11.466  0.00  0.00    +0.156 A 
ATOM     20  C   UNL     1      31.127  24.713  12.194  0.00  0.00    +0.165 A 
ATOM     21  F   UNL     1      30.424  25.849  12.072  0.00  0.00    -0.202 F 
ATOM     22  C   UNL     1      30.676  23.741  13.094  0.00  0.00    +0.047 A 
BRANCH  19  23
ATOM     23  O   UNL     1      32.740  25.574  10.692  0.00  0.00    -0.489 OA
BRANCH  23  24
ATOM     24  C   UNL     1      33.884  25.276   9.886  0.00  0.00    +0.232 C 
BRANCH  24  25
ATOM     25  C   UNL     1      34.794  26.461   9.878  0.00  0.00    +0.027 C 
ATOM     26  C   UNL     1      36.063  26.438   9.067  0.00  0.00    +0.007 C 
ATOM     27  C   UNL     1      36.134  26.410  10.570  0.00  0.00    +0.007 C 
ENDBRANCH  24  25
ENDBRANCH  23  24
ENDBRANCH  19  23
ENDBRANCH   1  16
TORSDOF 6
ENDMDL
MODEL 8
REMARK VINA RESULT:      -6.0      4.308      5.997
REMARK  Name = ZINC000543478179
REMARK  8 active torsions:
REMARK  status: ('A' for Active; 'I' for Inactive)
REMARK    1  A    between atoms: C_1  and  C_2
REMARK    2  A    between atoms: C_2  and  N_3
REMARK    3  A    between atoms: N_9  and  C_10
REMARK    4  A    between atoms: C_10  and  C_11
REMARK    5  A    between atoms: C_10  and  C_12
REMARK    6  A    between atoms: C_15  and  O_16
REMARK    7  A    between atoms: O_16  and  C_17
REMARK    8  A    between atoms: C_17  and  C_18
REMARK                            x       y       z     vdW  Elec       q    Type
REMARK                         _______ _______ _______ _____ _____    ______ ____
ROOT
ATOM      1  C   UNL     1      32.120  24.351  11.980  0.00  0.00    +0.102 C 
ATOM      2  C   UNL     1      30.686  24.866  11.796  0.00  0.00    +0.033 C 
ENDROOT
BRANCH   1   9
ATOM      3  N   UNL     1      31.828  18.190  13.661  0.00  0.00    -0.299 N 
ATOM      4  C   UNL     1      31.322  19.109  14.681  0.00  0.00    +0.127 C 
ATOM      5  C   UNL     1      32.246  20.316  14.873  0.00  0.00    +0.129 C 
ATOM      6  N   UNL     1      32.388  21.020  13.602  0.00  0.00    -0.275 N 
ATOM      7  C   UNL     1      32.145  22.385  13.533  0.00  0.00    +0.303 C 
ATOM      8  O   UNL     1      31.852  23.062  14.509  0.00  0.00    -0.253 OA
ATOM      9  N   UNL     1      32.225  22.918  12.269  0.00  0.00    -0.293 N 
ATOM     10  C   UNL     1      32.768  20.174  12.469  0.00  0.00    +0.205 C 
ATOM     11  C   UNL     1      32.652  18.647  12.635  0.00  0.00    +0.233 C 
ATOM     12  O   UNL     1      33.156  17.891  11.805  0.00  0.00    -0.274 OA
ATOM     13  H   UNL     1      32.857  22.434  11.656  0.00  0.00    +0.151 HD
BRANCH   3  15
ATOM     14  C   UNL     1      29.775  16.878  14.069  0.00  0.00    +0.024 C 
ATOM     15  C   UNL     1      31.192  16.882  13.511  0.00  0.00    +0.104 C 
ENDBRANCH   3  15
ENDBRANCH   1   9
BRANCH   1  16
ATOM     16  C   UNL     1      32.931  24.627  10.720  0.00  0.00    -0.024 A 
ATOM     17  C   UNL     1      32.319  24.506   9.458  0.00  0.00    +0.009 A 
ATOM     18  C   UNL     1      33.050  24.667   8.284  0.00  0.00    +0.049 A 
ATOM     19  C   UNL     1      34.422  24.908   8.341  0.00  0.00    +0.156 A 
ATOM     20  C   UNL     1      35.025  25.095   9.588  0.00  0.00    +0.165 A 
ATOM     21  F   UNL     1      36.334  25.375   9.673  0.00  0.00    -0.202 F 
ATOM     22  C   UNL     1      34.293  24.954  10.772  0.00  0.00    +0.047 A 
BRANCH  19  23
ATOM     23  O   UNL     1      35.230  24.952   7.235  0.00  0.00    -0.489 OA
BRANCH  23  24
ATOM     24  C   UNL     1      35.033  23.872   6.316  0.00  0.00    +0.232 C 
BRANCH  24  25
ATOM     25  C   UNL     1      35.802  22.684   6.792  0.00  0.00    +0.027 C 
ATOM     26  C   UNL     1      35.761  21.392   6.017  0.00  0.00    +0.007 C 
ATOM     27  C   UNL     1      35.090  21.481   7.361  0.00  0.00    +0.007 C 
ENDBRANCH  24  25
ENDBRANCH  23  24
ENDBRANCH  19  23
ENDBRANCH   1  16
TORSDOF 6
ENDMDL
MODEL 9
REMARK VINA RESULT:      -5.9      4.467      9.591
REMARK  Name = ZINC000543478179
REMARK  8 active torsions:
REMARK  status: ('A' for Active; 'I' for Inactive)
REMARK    1  A    between atoms: C_1  and  C_2
REMARK    2  A    between atoms: C_2  and  N_3
REMARK    3  A    between atoms: N_9  and  C_10
REMARK    4  A    between atoms: C_10  and  C_11
REMARK    5  A    between atoms: C_10  and  C_12
REMARK    6  A    between atoms: C_15  and  O_16
REMARK    7  A    between atoms: O_16  and  C_17
REMARK    8  A    between atoms: C_17  and  C_18
REMARK                            x       y       z     vdW  Elec       q    Type
REMARK                         _______ _______ _______ _____ _____    ______ ____
ROOT
ATOM      1  C   UNL     1      33.489  23.792  12.722  0.00  0.00    +0.102 C 
ATOM      2  C   UNL     1      34.668  24.058  13.668  0.00  0.00    +0.033 C 
ENDROOT
BRANCH   1   9
ATOM      3  N   UNL     1      35.249  22.314   6.757  0.00  0.00    -0.299 N 
ATOM      4  C   UNL     1      34.459  23.542   6.857  0.00  0.00    +0.127 C 
ATOM      5  C   UNL     1      33.249  23.370   7.780  0.00  0.00    +0.129 C 
ATOM      6  N   UNL     1      33.709  22.971   9.107  0.00  0.00    -0.275 N 
ATOM      7  C   UNL     1      33.297  23.680  10.227  0.00  0.00    +0.303 C 
ATOM      8  O   UNL     1      32.517  24.621  10.173  0.00  0.00    -0.253 OA
ATOM      9  N   UNL     1      33.864  23.265  11.407  0.00  0.00    -0.293 N 
ATOM     10  C   UNL     1      34.617  21.822   9.123  0.00  0.00    +0.205 C 
ATOM     11  C   UNL     1      35.248  21.380   7.790  0.00  0.00    +0.233 C 
ATOM     12  O   UNL     1      35.839  20.303   7.709  0.00  0.00    -0.274 OA
ATOM     13  H   UNL     1      34.114  22.291  11.426  0.00  0.00    +0.151 HD
BRANCH   3  15
ATOM     14  C   UNL     1      35.855  21.451   4.523  0.00  0.00    +0.024 C 
ATOM     15  C   UNL     1      36.305  22.234   5.749  0.00  0.00    +0.104 C 
ENDBRANCH   3  15
ENDBRANCH   1   9
BRANCH   1  16
ATOM     16  C   UNL     1      32.531  22.794  13.363  0.00  0.00    -0.024 A 
ATOM     17  C   UNL     1      32.664  21.422  13.080  0.00  0.00    +0.009 A 
ATOM     18  C   UNL     1      31.756  20.492  13.579  0.00  0.00    +0.049 A 
ATOM     19  C   UNL     1      30.664  20.916  14.336  0.00  0.00    +0.156 A 
ATOM     20  C   UNL     1      30.561  22.267  14.677  0.00  0.00    +0.165 A 
ATOM     21  F   UNL     1      29.549  22.698  15.443  0.00  0.00    -0.202 F 
ATOM     22  C   UNL     1      31.481  23.205  14.195  0.00  0.00    +0.047 A 
BRANCH  19  23
ATOM     23  O   UNL     1      29.663  20.080  14.753  0.00  0.00    -0.489 OA
BRANCH  23  24
ATOM     24  C   UNL     1      29.984  18.687  14.677  0.00  0.00    +0.232 C 
BRANCH  24  25
ATOM     25  C   UNL     1      28.730  17.891  14.837  0.00  0.00    +0.027 C 
ATOM     26  C   UNL     1      28.724  16.647  15.687  0.00  0.00    +0.007 C 
ATOM     27  C   UNL     1      28.592  16.533  14.192  0.00  0.00    +0.007 C 
ENDBRANCH  24  25
ENDBRANCH  23  24
ENDBRANCH  19  23
ENDBRANCH   1  16
TORSDOF 6
ENDMDL
