MODEL 1
REMARK VINA RESULT:      -7.0      0.000      0.000
REMARK  Name = ZINC000870248439
REMARK  2 active torsions:
REMARK  status: ('A' for Active; 'I' for Inactive)
REMARK    1  A    between atoms: C_2  and  C_4
REMARK    2  A    between atoms: C_7  and  C_8
REMARK                            x       y       z     vdW  Elec       q    Type
REMARK                         _______ _______ _______ _____ _____    ______ ____
ROOT
ATOM      1  C   UNL     1      34.070  17.452  13.305  0.00  0.00    +0.247 C 
ATOM      2  O   UNL     1      35.027  17.365  12.536  0.00  0.00    -0.270 OA
ATOM      3  N   UNL     1      33.863  18.552  14.149  0.00  0.00    -0.297 N 
ATOM      4  C   UNL     1      32.742  18.721  15.070  0.00  0.00    +0.108 C 
ATOM      5  C   UNL     1      32.146  20.114  15.047  0.00  0.00    +0.026 C 
ATOM      6  C   UNL     1      33.205  21.216  15.225  0.00  0.00    -0.025 C 
ATOM      7  C   UNL     1      32.512  22.571  14.956  0.00  0.00    +0.017 C 
ATOM      8  C   UNL     1      33.408  23.788  15.146  0.00  0.00    +0.069 C 
ATOM      9  S   UNL     1      34.065  23.911  16.834  0.00  0.00    -0.161 S 
ATOM     10  C   UNL     1      34.760  22.246  17.007  0.00  0.00    +0.069 C 
ATOM     11  C   UNL     1      33.727  21.177  16.685  0.00  0.00    +0.017 C 
ATOM     12  C   UNL     1      34.326  20.961  14.178  0.00  0.00    +0.026 C 
ATOM     13  C   UNL     1      34.916  19.554  14.260  0.00  0.00    +0.108 C 
ENDROOT
BRANCH   1  17
ATOM     14  C   UNL     1      31.447  14.082  13.297  0.00  0.00    +0.037 A 
ATOM     15  C   UNL     1      31.860  14.631  12.083  0.00  0.00    +0.014 A 
ATOM     16  C   UNL     1      32.617  15.796  12.081  0.00  0.00    +0.014 A 
ATOM     17  C   UNL     1      33.064  16.358  13.284  0.00  0.00    +0.037 A 
ATOM     18  C   UNL     1      32.596  15.848  14.499  0.00  0.00    +0.014 A 
ATOM     19  C   UNL     1      31.777  14.714  14.503  0.00  0.00    +0.014 A 
BRANCH  14  21
ATOM     20  N   UNL     1      30.263  12.333  12.097  0.00  0.00    -0.325 N 
ATOM     21  C   UNL     1      30.644  12.837  13.313  0.00  0.00    +0.242 C 
ATOM     22  O   UNL     1      30.361  12.272  14.362  0.00  0.00    -0.270 OA
ATOM     23  H   UNL     1      29.796  11.430  12.126  0.00  0.00    +0.145 HD
ATOM     24  H   UNL     1      30.699  12.608  11.234  0.00  0.00    +0.145 HD
ENDBRANCH  14  21
ENDBRANCH   1  17
TORSDOF 2
ENDMDL
MODEL 2
REMARK VINA RESULT:      -6.7      4.248      7.084
REMARK  Name = ZINC000870248439
REMARK  2 active torsions:
REMARK  status: ('A' for Active; 'I' for Inactive)
REMARK    1  A    between atoms: C_2  and  C_4
REMARK    2  A    between atoms: C_7  and  C_8
REMARK                            x       y       z     vdW  Elec       q    Type
REMARK                         _______ _______ _______ _____ _____    ______ ____
ROOT
ATOM      1  C   UNL     1      33.062  18.112  14.045  0.00  0.00    +0.247 C 
ATOM      2  O   UNL     1      32.541  17.038  14.346  0.00  0.00    -0.270 OA
ATOM      3  N   UNL     1      34.070  18.231  13.080  0.00  0.00    -0.297 N 
ATOM      4  C   UNL     1      34.716  19.475  12.668  0.00  0.00    +0.108 C 
ATOM      5  C   UNL     1      34.885  19.600  11.167  0.00  0.00    +0.026 C 
ATOM      6  C   UNL     1      35.566  18.369  10.543  0.00  0.00    -0.025 C 
ATOM      7  C   UNL     1      35.473  18.518   9.007  0.00  0.00    +0.017 C 
ATOM      8  C   UNL     1      36.153  17.405   8.222  0.00  0.00    +0.069 C 
ATOM      9  S   UNL     1      37.927  17.281   8.586  0.00  0.00    -0.161 S 
ATOM     10  C   UNL     1      37.857  17.191  10.394  0.00  0.00    +0.069 C 
ATOM     11  C   UNL     1      37.054  18.345  10.976  0.00  0.00    +0.017 C 
ATOM     12  C   UNL     1      34.782  17.111  11.015  0.00  0.00    +0.026 C 
ATOM     13  C   UNL     1      34.662  17.015  12.535  0.00  0.00    +0.108 C 
ENDROOT
BRANCH   1  17
ATOM     14  C   UNL     1      31.255  21.481  15.949  0.00  0.00    +0.037 A 
ATOM     15  C   UNL     1      31.448  21.498  14.567  0.00  0.00    +0.014 A 
ATOM     16  C   UNL     1      32.140  20.457  13.960  0.00  0.00    +0.014 A 
ATOM     17  C   UNL     1      32.543  19.340  14.704  0.00  0.00    +0.037 A 
ATOM     18  C   UNL     1      32.410  19.353  16.096  0.00  0.00    +0.014 A 
ATOM     19  C   UNL     1      31.775  20.432  16.719  0.00  0.00    +0.014 A 
BRANCH  14  21
ATOM     20  N   UNL     1      31.043  23.840  16.486  0.00  0.00    -0.325 N 
ATOM     21  C   UNL     1      30.515  22.582  16.608  0.00  0.00    +0.242 C 
ATOM     22  O   UNL     1      29.466  22.380  17.206  0.00  0.00    -0.270 OA
ATOM     23  H   UNL     1      30.472  24.592  16.862  0.00  0.00    +0.145 HD
ATOM     24  H   UNL     1      31.730  24.076  15.789  0.00  0.00    +0.145 HD
ENDBRANCH  14  21
ENDBRANCH   1  17
TORSDOF 2
ENDMDL
MODEL 3
REMARK VINA RESULT:      -6.5      1.418      1.586
REMARK  Name = ZINC000870248439
REMARK  2 active torsions:
REMARK  status: ('A' for Active; 'I' for Inactive)
REMARK    1  A    between atoms: C_2  and  C_4
REMARK    2  A    between atoms: C_7  and  C_8
REMARK                            x       y       z     vdW  Elec       q    Type
REMARK                         _______ _______ _______ _____ _____    ______ ____
ROOT
ATOM      1  C   UNL     1      34.714  17.531  14.383  0.00  0.00    +0.247 C 
ATOM      2  O   UNL     1      35.791  16.964  14.567  0.00  0.00    -0.270 OA
ATOM      3  N   UNL     1      34.530  18.907  14.574  0.00  0.00    -0.297 N 
ATOM      4  C   UNL     1      33.285  19.640  14.359  0.00  0.00    +0.108 C 
ATOM      5  C   UNL     1      33.476  20.955  13.631  0.00  0.00    +0.026 C 
ATOM      6  C   UNL     1      34.555  21.840  14.278  0.00  0.00    -0.025 C 
ATOM      7  C   UNL     1      34.811  23.029  13.324  0.00  0.00    +0.017 C 
ATOM      8  C   UNL     1      35.820  24.047  13.840  0.00  0.00    +0.069 C 
ATOM      9  S   UNL     1      35.312  24.794  15.414  0.00  0.00    -0.161 S 
ATOM     10  C   UNL     1      34.986  23.289  16.369  0.00  0.00    +0.069 C 
ATOM     11  C   UNL     1      34.024  22.365  15.637  0.00  0.00    +0.017 C 
ATOM     12  C   UNL     1      35.840  20.977  14.427  0.00  0.00    +0.026 C 
ATOM     13  C   UNL     1      35.604  19.676  15.192  0.00  0.00    +0.108 C 
ENDROOT
BRANCH   1  17
ATOM     14  C   UNL     1      31.650  14.894  13.007  0.00  0.00    +0.037 A 
ATOM     15  C   UNL     1      32.505  15.493  12.081  0.00  0.00    +0.014 A 
ATOM     16  C   UNL     1      33.425  16.440  12.512  0.00  0.00    +0.014 A 
ATOM     17  C   UNL     1      33.580  16.713  13.877  0.00  0.00    +0.037 A 
ATOM     18  C   UNL     1      32.681  16.165  14.797  0.00  0.00    +0.014 A 
ATOM     19  C   UNL     1      31.707  15.263  14.358  0.00  0.00    +0.014 A 
BRANCH  14  21
ATOM     20  N   UNL     1      30.335  13.884  11.232  0.00  0.00    -0.325 N 
ATOM     21  C   UNL     1      30.667  13.879  12.561  0.00  0.00    +0.242 C 
ATOM     22  O   UNL     1      30.198  13.058  13.339  0.00  0.00    -0.270 OA
ATOM     23  H   UNL     1      29.734  13.121  10.929  0.00  0.00    +0.145 HD
ATOM     24  H   UNL     1      30.891  14.348  10.535  0.00  0.00    +0.145 HD
ENDBRANCH  14  21
ENDBRANCH   1  17
TORSDOF 2
ENDMDL
MODEL 4
REMARK VINA RESULT:      -6.4      5.372      7.557
REMARK  Name = ZINC000870248439
REMARK  2 active torsions:
REMARK  status: ('A' for Active; 'I' for Inactive)
REMARK    1  A    between atoms: C_2  and  C_4
REMARK    2  A    between atoms: C_7  and  C_8
REMARK                            x       y       z     vdW  Elec       q    Type
REMARK                         _______ _______ _______ _____ _____    ______ ____
ROOT
ATOM      1  C   UNL     1      34.219  20.654  12.387  0.00  0.00    +0.247 C 
ATOM      2  O   UNL     1      34.589  19.481  12.335  0.00  0.00    -0.270 OA
ATOM      3  N   UNL     1      34.550  21.606  11.414  0.00  0.00    -0.297 N 
ATOM      4  C   UNL     1      34.131  23.005  11.410  0.00  0.00    +0.108 C 
ATOM      5  C   UNL     1      33.670  23.495  10.052  0.00  0.00    +0.026 C 
ATOM      6  C   UNL     1      34.691  23.201   8.939  0.00  0.00    -0.025 C 
ATOM      7  C   UNL     1      34.013  23.536   7.591  0.00  0.00    +0.017 C 
ATOM      8  C   UNL     1      34.908  23.357   6.371  0.00  0.00    +0.069 C 
ATOM      9  S   UNL     1      36.391  24.402   6.438  0.00  0.00    -0.161 S 
ATOM     10  C   UNL     1      37.007  23.947   8.080  0.00  0.00    +0.069 C 
ATOM     11  C   UNL     1      35.930  24.111   9.141  0.00  0.00    +0.017 C 
ATOM     12  C   UNL     1      35.038  21.687   9.010  0.00  0.00    +0.026 C 
ATOM     13  C   UNL     1      35.525  21.248  10.390  0.00  0.00    +0.108 C 
ENDROOT
BRANCH   1  17
ATOM     14  C   UNL     1      31.657  22.115  15.476  0.00  0.00    +0.037 A 
ATOM     15  C   UNL     1      33.026  22.000  15.719  0.00  0.00    +0.014 A 
ATOM     16  C   UNL     1      33.845  21.418  14.760  0.00  0.00    +0.014 A 
ATOM     17  C   UNL     1      33.329  21.049  13.511  0.00  0.00    +0.037 A 
ATOM     18  C   UNL     1      31.949  21.101  13.292  0.00  0.00    +0.014 A 
ATOM     19  C   UNL     1      31.111  21.624  14.282  0.00  0.00    +0.014 A 
BRANCH  14  21
ATOM     20  N   UNL     1      31.003  24.058  16.779  0.00  0.00    -0.325 N 
ATOM     21  C   UNL     1      30.773  22.739  16.488  0.00  0.00    +0.242 C 
ATOM     22  O   UNL     1      29.863  22.113  17.016  0.00  0.00    -0.270 OA
ATOM     23  H   UNL     1      30.328  24.492  17.402  0.00  0.00    +0.145 HD
ATOM     24  H   UNL     1      31.545  24.660  16.182  0.00  0.00    +0.145 HD
ENDBRANCH  14  21
ENDBRANCH   1  17
TORSDOF 2
ENDMDL
MODEL 5
REMARK VINA RESULT:      -6.3      3.369      5.542
REMARK  Name = ZINC000870248439
REMARK  2 active torsions:
REMARK  status: ('A' for Active; 'I' for Inactive)
REMARK    1  A    between atoms: C_2  and  C_4
REMARK    2  A    between atoms: C_7  and  C_8
REMARK                            x       y       z     vdW  Elec       q    Type
REMARK                         _______ _______ _______ _____ _____    ______ ____
ROOT
ATOM      1  C   UNL     1      32.622  22.521  16.031  0.00  0.00    +0.247 C 
ATOM      2  O   UNL     1      31.485  22.973  15.898  0.00  0.00    -0.270 OA
ATOM      3  N   UNL     1      33.693  23.273  16.532  0.00  0.00    -0.297 N 
ATOM      4  C   UNL     1      35.058  22.791  16.727  0.00  0.00    +0.108 C 
ATOM      5  C   UNL     1      35.666  23.218  18.047  0.00  0.00    +0.026 C 
ATOM      6  C   UNL     1      35.555  24.734  18.289  0.00  0.00    -0.025 C 
ATOM      7  C   UNL     1      35.998  25.003  19.745  0.00  0.00    +0.017 C 
ATOM      8  C   UNL     1      36.005  26.473  20.142  0.00  0.00    +0.069 C 
ATOM      9  S   UNL     1      37.119  27.467  19.109  0.00  0.00    -0.161 S 
ATOM     10  C   UNL     1      36.521  26.981  17.469  0.00  0.00    +0.069 C 
ATOM     11  C   UNL     1      36.507  25.468  17.310  0.00  0.00    +0.017 C 
ATOM     12  C   UNL     1      34.065  25.131  18.092  0.00  0.00    +0.026 C 
ATOM     13  C   UNL     1      33.505  24.705  16.736  0.00  0.00    +0.108 C 
ENDROOT
BRANCH   1  17
ATOM     14  C   UNL     1      32.895  18.379  15.028  0.00  0.00    +0.037 A 
ATOM     15  C   UNL     1      32.957  18.765  16.368  0.00  0.00    +0.014 A 
ATOM     16  C   UNL     1      32.986  20.116  16.690  0.00  0.00    +0.014 A 
ATOM     17  C   UNL     1      32.840  21.089  15.694  0.00  0.00    +0.037 A 
ATOM     18  C   UNL     1      32.845  20.707  14.349  0.00  0.00    +0.014 A 
ATOM     19  C   UNL     1      32.884  19.349  14.017  0.00  0.00    +0.014 A 
BRANCH  14  21
ATOM     20  N   UNL     1      32.724  16.640  13.342  0.00  0.00    -0.325 N 
ATOM     21  C   UNL     1      32.858  16.942  14.671  0.00  0.00    +0.242 C 
ATOM     22  O   UNL     1      32.971  16.068  15.522  0.00  0.00    -0.270 OA
ATOM     23  H   UNL     1      32.797  15.653  13.108  0.00  0.00    +0.145 HD
ATOM     24  H   UNL     1      32.902  17.308  12.612  0.00  0.00    +0.145 HD
ENDBRANCH  14  21
ENDBRANCH   1  17
TORSDOF 2
ENDMDL
MODEL 6
REMARK VINA RESULT:      -6.2      2.955      3.885
REMARK  Name = ZINC000870248439
REMARK  2 active torsions:
REMARK  status: ('A' for Active; 'I' for Inactive)
REMARK    1  A    between atoms: C_2  and  C_4
REMARK    2  A    between atoms: C_7  and  C_8
REMARK                            x       y       z     vdW  Elec       q    Type
REMARK                         _______ _______ _______ _____ _____    ______ ____
ROOT
ATOM      1  C   UNL     1      32.981  18.688  15.136  0.00  0.00    +0.247 C 
ATOM      2  O   UNL     1      32.129  19.532  14.856  0.00  0.00    -0.270 OA
ATOM      3  N   UNL     1      33.921  18.859  16.161  0.00  0.00    -0.297 N 
ATOM      4  C   UNL     1      34.944  17.892  16.551  0.00  0.00    +0.108 C 
ATOM      5  C   UNL     1      35.077  17.725  18.051  0.00  0.00    +0.026 C 
ATOM      6  C   UNL     1      35.249  19.066  18.785  0.00  0.00    -0.025 C 
ATOM      7  C   UNL     1      35.143  18.781  20.300  0.00  0.00    +0.017 C 
ATOM      8  C   UNL     1      35.349  20.001  21.189  0.00  0.00    +0.069 C 
ATOM      9  S   UNL     1      36.980  20.764  20.955  0.00  0.00    -0.161 S 
ATOM     10  C   UNL     1      36.966  20.956  19.154  0.00  0.00    +0.069 C 
ATOM     11  C   UNL     1      36.652  19.640  18.458  0.00  0.00    +0.017 C 
ATOM     12  C   UNL     1      34.095  20.001  18.326  0.00  0.00    +0.026 C 
ATOM     13  C   UNL     1      34.019  20.162  16.809  0.00  0.00    +0.108 C 
ENDROOT
BRANCH   1  17
ATOM     14  C   UNL     1      32.657  15.148  12.770  0.00  0.00    +0.037 A 
ATOM     15  C   UNL     1      32.066  15.184  14.033  0.00  0.00    +0.014 A 
ATOM     16  C   UNL     1      32.268  16.288  14.852  0.00  0.00    +0.014 A 
ATOM     17  C   UNL     1      32.961  17.409  14.379  0.00  0.00    +0.037 A 
ATOM     18  C   UNL     1      33.610  17.348  13.141  0.00  0.00    +0.014 A 
ATOM     19  C   UNL     1      33.466  16.209  12.342  0.00  0.00    +0.014 A 
BRANCH  14  21
ATOM     20  N   UNL     1      31.187  13.813  11.372  0.00  0.00    -0.325 N 
ATOM     21  C   UNL     1      32.446  13.979  11.885  0.00  0.00    +0.242 C 
ATOM     22  O   UNL     1      33.362  13.217  11.602  0.00  0.00    -0.270 OA
ATOM     23  H   UNL     1      31.087  13.063  10.693  0.00  0.00    +0.145 HD
ATOM     24  H   UNL     1      30.504  14.551  11.359  0.00  0.00    +0.145 HD
ENDBRANCH  14  21
ENDBRANCH   1  17
TORSDOF 2
ENDMDL
MODEL 7
REMARK VINA RESULT:      -6.2      4.176      7.467
REMARK  Name = ZINC000870248439
REMARK  2 active torsions:
REMARK  status: ('A' for Active; 'I' for Inactive)
REMARK    1  A    between atoms: C_2  and  C_4
REMARK    2  A    between atoms: C_7  and  C_8
REMARK                            x       y       z     vdW  Elec       q    Type
REMARK                         _______ _______ _______ _____ _____    ______ ____
ROOT
ATOM      1  C   UNL     1      34.914  19.045  15.132  0.00  0.00    +0.247 C 
ATOM      2  O   UNL     1      35.829  19.114  15.952  0.00  0.00    -0.270 OA
ATOM      3  N   UNL     1      34.952  18.209  14.008  0.00  0.00    -0.297 N 
ATOM      4  C   UNL     1      33.894  18.072  13.010  0.00  0.00    +0.108 C 
ATOM      5  C   UNL     1      33.620  16.635  12.615  0.00  0.00    +0.026 C 
ATOM      6  C   UNL     1      34.896  15.879  12.204  0.00  0.00    -0.025 C 
ATOM      7  C   UNL     1      34.520  14.388  12.049  0.00  0.00    +0.017 C 
ATOM      8  C   UNL     1      35.661  13.492  11.586  0.00  0.00    +0.069 C 
ATOM      9  S   UNL     1      36.325  13.992   9.971  0.00  0.00    -0.161 S 
ATOM     10  C   UNL     1      36.636  15.746  10.304  0.00  0.00    +0.069 C 
ATOM     11  C   UNL     1      35.393  16.436  10.845  0.00  0.00    +0.017 C 
ATOM     12  C   UNL     1      35.935  16.061  13.346  0.00  0.00    +0.026 C 
ATOM     13  C   UNL     1      36.200  17.526  13.689  0.00  0.00    +0.108 C 
ENDROOT
BRANCH   1  17
ATOM     14  C   UNL     1      31.577  21.508  16.151  0.00  0.00    +0.037 A 
ATOM     15  C   UNL     1      31.607  20.183  16.585  0.00  0.00    +0.014 A 
ATOM     16  C   UNL     1      32.631  19.346  16.158  0.00  0.00    +0.014 A 
ATOM     17  C   UNL     1      33.691  19.850  15.393  0.00  0.00    +0.037 A 
ATOM     18  C   UNL     1      33.628  21.158  14.903  0.00  0.00    +0.014 A 
ATOM     19  C   UNL     1      32.561  21.984  15.274  0.00  0.00    +0.014 A 
BRANCH  14  21
ATOM     20  N   UNL     1      30.769  23.754  16.602  0.00  0.00    -0.325 N 
ATOM     21  C   UNL     1      30.493  22.412  16.602  0.00  0.00    +0.242 C 
ATOM     22  O   UNL     1      29.395  21.980  16.929  0.00  0.00    -0.270 OA
ATOM     23  H   UNL     1      29.984  24.361  16.823  0.00  0.00    +0.145 HD
ATOM     24  H   UNL     1      31.540  24.150  16.092  0.00  0.00    +0.145 HD
ENDBRANCH  14  21
ENDBRANCH   1  17
TORSDOF 2
ENDMDL
MODEL 8
REMARK VINA RESULT:      -6.2      5.873      8.061
REMARK  Name = ZINC000870248439
REMARK  2 active torsions:
REMARK  status: ('A' for Active; 'I' for Inactive)
REMARK    1  A    between atoms: C_2  and  C_4
REMARK    2  A    between atoms: C_7  and  C_8
REMARK                            x       y       z     vdW  Elec       q    Type
REMARK                         _______ _______ _______ _____ _____    ______ ____
ROOT
ATOM      1  C   UNL     1      35.231  21.996  12.351  0.00  0.00    +0.247 C 
ATOM      2  O   UNL     1      36.159  21.304  12.771  0.00  0.00    -0.270 OA
ATOM      3  N   UNL     1      35.221  22.572  11.074  0.00  0.00    -0.297 N 
ATOM      4  C   UNL     1      34.147  23.387  10.512  0.00  0.00    +0.108 C 
ATOM      5  C   UNL     1      33.810  23.037   9.077  0.00  0.00    +0.026 C 
ATOM      6  C   UNL     1      35.049  23.017   8.165  0.00  0.00    -0.025 C 
ATOM      7  C   UNL     1      34.611  22.432   6.803  0.00  0.00    +0.017 C 
ATOM      8  C   UNL     1      35.710  22.392   5.749  0.00  0.00    +0.069 C 
ATOM      9  S   UNL     1      36.373  24.040   5.374  0.00  0.00    -0.161 S 
ATOM     10  C   UNL     1      36.759  24.598   7.054  0.00  0.00    +0.069 C 
ATOM     11  C   UNL     1      35.552  24.471   7.971  0.00  0.00    +0.017 C 
ATOM     12  C   UNL     1      36.109  22.098   8.835  0.00  0.00    +0.026 C 
ATOM     13  C   UNL     1      36.437  22.508  10.270  0.00  0.00    +0.108 C 
ENDROOT
BRANCH   1  17
ATOM     14  C   UNL     1      32.003  22.317  15.129  0.00  0.00    +0.037 A 
ATOM     15  C   UNL     1      31.964  21.328  14.145  0.00  0.00    +0.014 A 
ATOM     16  C   UNL     1      32.952  21.294  13.170  0.00  0.00    +0.014 A 
ATOM     17  C   UNL     1      34.045  22.169  13.231  0.00  0.00    +0.037 A 
ATOM     18  C   UNL     1      34.051  23.201  14.175  0.00  0.00    +0.014 A 
ATOM     19  C   UNL     1      33.021  23.280  15.117  0.00  0.00    +0.014 A 
BRANCH  14  21
ATOM     20  N   UNL     1      30.616  23.599  16.656  0.00  0.00    -0.325 N 
ATOM     21  C   UNL     1      30.959  22.361  16.178  0.00  0.00    +0.242 C 
ATOM     22  O   UNL     1      30.408  21.343  16.576  0.00  0.00    -0.270 OA
ATOM     23  H   UNL     1      29.833  23.615  17.304  0.00  0.00    +0.145 HD
ATOM     24  H   UNL     1      30.841  24.450  16.170  0.00  0.00    +0.145 HD
ENDBRANCH  14  21
ENDBRANCH   1  17
TORSDOF 2
ENDMDL
MODEL 9
REMARK VINA RESULT:      -6.2     13.304     15.582
REMARK  Name = ZINC000870248439
REMARK  2 active torsions:
REMARK  status: ('A' for Active; 'I' for Inactive)
REMARK    1  A    between atoms: C_2  and  C_4
REMARK    2  A    between atoms: C_7  and  C_8
REMARK                            x       y       z     vdW  Elec       q    Type
REMARK                         _______ _______ _______ _____ _____    ______ ____
ROOT
ATOM      1  C   UNL     1      24.949  28.856  20.705  0.00  0.00    +0.247 C 
ATOM      2  O   UNL     1      25.709  29.815  20.571  0.00  0.00    -0.270 OA
ATOM      3  N   UNL     1      23.689  28.786  20.094  0.00  0.00    -0.297 N 
ATOM      4  C   UNL     1      22.750  27.672  20.202  0.00  0.00    +0.108 C 
ATOM      5  C   UNL     1      22.113  27.289  18.881  0.00  0.00    +0.026 C 
ATOM      6  C   UNL     1      21.492  28.493  18.151  0.00  0.00    -0.025 C 
ATOM      7  C   UNL     1      21.088  28.017  16.737  0.00  0.00    +0.017 C 
ATOM      8  C   UNL     1      20.398  29.076  15.887  0.00  0.00    +0.069 C 
ATOM      9  S   UNL     1      18.866  29.688  16.646  0.00  0.00    -0.161 S 
ATOM     10  C   UNL     1      19.497  30.123  18.288  0.00  0.00    +0.069 C 
ATOM     11  C   UNL     1      20.232  28.955  18.927  0.00  0.00    +0.017 C 
ATOM     12  C   UNL     1      22.582  29.598  18.061  0.00  0.00    +0.026 C 
ATOM     13  C   UNL     1      23.173  29.971  19.419  0.00  0.00    +0.108 C 
ENDROOT
BRANCH   1  17
ATOM     14  C   UNL     1      26.053  25.353  22.883  0.00  0.00    +0.037 A 
ATOM     15  C   UNL     1      25.355  26.371  23.532  0.00  0.00    +0.014 A 
ATOM     16  C   UNL     1      25.096  27.559  22.862  0.00  0.00    +0.014 A 
ATOM     17  C   UNL     1      25.429  27.701  21.508  0.00  0.00    +0.037 A 
ATOM     18  C   UNL     1      26.186  26.709  20.876  0.00  0.00    +0.014 A 
ATOM     19  C   UNL     1      26.508  25.539  21.570  0.00  0.00    +0.014 A 
BRANCH  14  21
ATOM     20  N   UNL     1      27.600  23.576  23.473  0.00  0.00    -0.325 N 
ATOM     21  C   UNL     1      26.330  24.078  23.585  0.00  0.00    +0.242 C 
ATOM     22  O   UNL     1      25.474  23.518  24.257  0.00  0.00    -0.270 OA
ATOM     23  H   UNL     1      27.796  22.754  24.039  0.00  0.00    +0.145 HD
ATOM     24  H   UNL     1      28.380  24.134  23.170  0.00  0.00    +0.145 HD
ENDBRANCH  14  21
ENDBRANCH   1  17
TORSDOF 2
ENDMDL
