MODEL 1
REMARK VINA RESULT:      -7.0      0.000      0.000
REMARK  Name = ZINC000329563636
REMARK  3 active torsions:
REMARK  status: ('A' for Active; 'I' for Inactive)
REMARK    1  A    between atoms: C_1  and  C_2
REMARK    2  A    between atoms: C_2  and  N_3
REMARK    3  A    between atoms: N_9  and  C_10
REMARK                            x       y       z     vdW  Elec       q    Type
REMARK                         _______ _______ _______ _____ _____    ______ ____
ROOT
ATOM      1  C   UNL     1      32.711  21.370  15.545  0.00  0.00    +0.112 C 
ATOM      2  C   UNL     1      32.352  19.885  15.440  0.00  0.00    +0.075 C 
ATOM      3  C   UNL     1      31.320  19.543  14.354  0.00  0.00    +0.113 C 
ATOM      4  C   UNL     1      31.910  19.347  12.934  0.00  0.00    +0.048 C 
ATOM      5  C   UNL     1      31.752  17.867  12.603  0.00  0.00    +0.004 C 
ATOM      6  C   UNL     1      30.518  17.448  13.378  0.00  0.00    +0.004 C 
ATOM      7  C   UNL     1      30.684  18.173  14.702  0.00  0.00    +0.048 C 
ATOM      8  O   UNL     1      30.251  20.507  14.308  0.00  0.00    -0.485 OA
ATOM      9  C   UNL     1      30.692  21.788  14.105  0.00  0.00    +0.126 A 
ATOM     10  C   UNL     1      29.897  22.628  13.328  0.00  0.00    +0.046 A 
ATOM     11  C   UNL     1      30.317  23.931  13.055  0.00  0.00    +0.004 A 
ATOM     12  C   UNL     1      31.521  24.400  13.576  0.00  0.00    +0.001 A 
ATOM     13  C   UNL     1      32.298  23.566  14.379  0.00  0.00    +0.009 A 
ATOM     14  C   UNL     1      31.888  22.250  14.650  0.00  0.00    +0.015 A 
ENDROOT
BRANCH   1  21
ATOM     15  N   UNL     1      32.823  24.545  20.978  0.00  0.00    -0.299 N 
ATOM     16  C   UNL     1      34.112  24.467  20.293  0.00  0.00    +0.127 C 
ATOM     17  C   UNL     1      34.433  23.050  19.826  0.00  0.00    +0.129 C 
ATOM     18  N   UNL     1      33.348  22.575  18.978  0.00  0.00    -0.275 N 
ATOM     19  C   UNL     1      33.622  22.218  17.678  0.00  0.00    +0.303 C 
ATOM     20  O   UNL     1      34.754  22.278  17.200  0.00  0.00    -0.253 OA
ATOM     21  N   UNL     1      32.553  21.821  16.928  0.00  0.00    -0.292 N 
ATOM     22  C   UNL     1      32.031  22.582  19.620  0.00  0.00    +0.205 C 
ATOM     23  C   UNL     1      31.801  23.636  20.724  0.00  0.00    +0.233 C 
ATOM     24  O   UNL     1      30.732  23.661  21.338  0.00  0.00    -0.274 OA
ATOM     25  H   UNL     1      31.752  21.446  17.407  0.00  0.00    +0.151 HD
BRANCH  15  27
ATOM     26  C   UNL     1      33.320  25.557  23.175  0.00  0.00    +0.024 C 
ATOM     27  C   UNL     1      32.575  25.683  21.857  0.00  0.00    +0.104 C 
ENDBRANCH  15  27
ENDBRANCH   1  21
TORSDOF 2
ENDMDL
MODEL 2
REMARK VINA RESULT:      -6.9      3.433      7.642
REMARK  Name = ZINC000329563636
REMARK  3 active torsions:
REMARK  status: ('A' for Active; 'I' for Inactive)
REMARK    1  A    between atoms: C_1  and  C_2
REMARK    2  A    between atoms: C_2  and  N_3
REMARK    3  A    between atoms: N_9  and  C_10
REMARK                            x       y       z     vdW  Elec       q    Type
REMARK                         _______ _______ _______ _____ _____    ______ ____
ROOT
ATOM      1  C   UNL     1      32.266  22.491  16.382  0.00  0.00    +0.112 C 
ATOM      2  C   UNL     1      32.861  23.304  17.535  0.00  0.00    +0.075 C 
ATOM      3  C   UNL     1      31.850  23.753  18.602  0.00  0.00    +0.113 C 
ATOM      4  C   UNL     1      31.550  22.698  19.698  0.00  0.00    +0.048 C 
ATOM      5  C   UNL     1      32.140  23.245  20.993  0.00  0.00    +0.004 C 
ATOM      6  C   UNL     1      32.063  24.749  20.826  0.00  0.00    +0.004 C 
ATOM      7  C   UNL     1      32.457  24.952  19.374  0.00  0.00    +0.048 C 
ATOM      8  O   UNL     1      30.617  24.207  18.013  0.00  0.00    -0.485 OA
ATOM      9  C   UNL     1      30.023  23.265  17.215  0.00  0.00    +0.126 A 
ATOM     10  C   UNL     1      28.631  23.210  17.210  0.00  0.00    +0.046 A 
ATOM     11  C   UNL     1      27.974  22.243  16.447  0.00  0.00    +0.004 A 
ATOM     12  C   UNL     1      28.708  21.346  15.675  0.00  0.00    +0.001 A 
ATOM     13  C   UNL     1      30.100  21.425  15.658  0.00  0.00    +0.009 A 
ATOM     14  C   UNL     1      30.769  22.388  16.432  0.00  0.00    +0.015 A 
ENDROOT
BRANCH   1  21
ATOM     15  N   UNL     1      33.156  23.844  10.300  0.00  0.00    -0.299 N 
ATOM     16  C   UNL     1      33.404  22.447  10.655  0.00  0.00    +0.127 C 
ATOM     17  C   UNL     1      34.271  22.314  11.903  0.00  0.00    +0.129 C 
ATOM     18  N   UNL     1      33.640  23.038  12.997  0.00  0.00    -0.275 N 
ATOM     19  C   UNL     1      33.282  22.353  14.135  0.00  0.00    +0.303 C 
ATOM     20  O   UNL     1      33.479  21.147  14.271  0.00  0.00    -0.253 OA
ATOM     21  N   UNL     1      32.658  23.085  15.104  0.00  0.00    -0.292 N 
ATOM     22  C   UNL     1      33.405  24.459  12.726  0.00  0.00    +0.205 C 
ATOM     23  C   UNL     1      33.188  24.859  11.251  0.00  0.00    +0.233 C 
ATOM     24  O   UNL     1      33.036  26.045  10.951  0.00  0.00    -0.274 OA
ATOM     25  H   UNL     1      32.829  24.077  15.132  0.00  0.00    +0.151 HD
BRANCH  15  27
ATOM     26  C   UNL     1      32.828  22.929   8.030  0.00  0.00    +0.024 C 
ATOM     27  C   UNL     1      32.747  24.147   8.933  0.00  0.00    +0.104 C 
ENDBRANCH  15  27
ENDBRANCH   1  21
TORSDOF 2
ENDMDL
MODEL 3
REMARK VINA RESULT:      -6.5      4.237      8.374
REMARK  Name = ZINC000329563636
REMARK  3 active torsions:
REMARK  status: ('A' for Active; 'I' for Inactive)
REMARK    1  A    between atoms: C_1  and  C_2
REMARK    2  A    between atoms: C_2  and  N_3
REMARK    3  A    between atoms: N_9  and  C_10
REMARK                            x       y       z     vdW  Elec       q    Type
REMARK                         _______ _______ _______ _____ _____    ______ ____
ROOT
ATOM      1  C   UNL     1      32.650  22.989  14.441  0.00  0.00    +0.112 C 
ATOM      2  C   UNL     1      31.316  23.513  14.983  0.00  0.00    +0.075 C 
ATOM      3  C   UNL     1      30.701  22.673  16.113  0.00  0.00    +0.113 C 
ATOM      4  C   UNL     1      31.234  23.000  17.531  0.00  0.00    +0.048 C 
ATOM      5  C   UNL     1      30.076  23.641  18.288  0.00  0.00    +0.004 C 
ATOM      6  C   UNL     1      28.841  23.023  17.664  0.00  0.00    +0.004 C 
ATOM      7  C   UNL     1      29.186  22.992  16.185  0.00  0.00    +0.048 C 
ATOM      8  O   UNL     1      30.825  21.261  15.858  0.00  0.00    -0.485 OA
ATOM      9  C   UNL     1      32.123  20.861  15.673  0.00  0.00    +0.126 A 
ATOM     10  C   UNL     1      32.486  19.606  16.157  0.00  0.00    +0.046 A 
ATOM     11  C   UNL     1      33.804  19.164  16.031  0.00  0.00    +0.004 A 
ATOM     12  C   UNL     1      34.752  19.969  15.404  0.00  0.00    +0.001 A 
ATOM     13  C   UNL     1      34.377  21.211  14.893  0.00  0.00    +0.009 A 
ATOM     14  C   UNL     1      33.055  21.667  15.025  0.00  0.00    +0.015 A 
ENDROOT
BRANCH   1  21
ATOM     15  N   UNL     1      33.889  22.462   8.294  0.00  0.00    -0.299 N 
ATOM     16  C   UNL     1      34.648  23.507   8.979  0.00  0.00    +0.127 C 
ATOM     17  C   UNL     1      33.762  24.378   9.865  0.00  0.00    +0.129 C 
ATOM     18  N   UNL     1      33.054  23.526  10.809  0.00  0.00    -0.275 N 
ATOM     19  C   UNL     1      33.239  23.723  12.158  0.00  0.00    +0.303 C 
ATOM     20  O   UNL     1      33.980  24.599  12.603  0.00  0.00    -0.253 OA
ATOM     21  N   UNL     1      32.577  22.862  12.986  0.00  0.00    -0.292 N 
ATOM     22  C   UNL     1      32.233  22.484  10.186  0.00  0.00    +0.205 C 
ATOM     23  C   UNL     1      32.696  21.965   8.808  0.00  0.00    +0.233 C 
ATOM     24  O   UNL     1      32.021  21.125   8.209  0.00  0.00    -0.274 OA
ATOM     25  H   UNL     1      31.741  22.422  12.640  0.00  0.00    +0.151 HD
BRANCH  15  27
ATOM     26  C   UNL     1      35.408  22.802   6.377  0.00  0.00    +0.024 C 
ATOM     27  C   UNL     1      34.472  21.852   7.104  0.00  0.00    +0.104 C 
ENDBRANCH  15  27
ENDBRANCH   1  21
TORSDOF 2
ENDMDL
MODEL 4
REMARK VINA RESULT:      -6.5     13.655     15.679
REMARK  Name = ZINC000329563636
REMARK  3 active torsions:
REMARK  status: ('A' for Active; 'I' for Inactive)
REMARK    1  A    between atoms: C_1  and  C_2
REMARK    2  A    between atoms: C_2  and  N_3
REMARK    3  A    between atoms: N_9  and  C_10
REMARK                            x       y       z     vdW  Elec       q    Type
REMARK                         _______ _______ _______ _____ _____    ______ ____
ROOT
ATOM      1  C   UNL     1      19.795  27.148  18.819  0.00  0.00    +0.112 C 
ATOM      2  C   UNL     1      20.629  27.267  20.098  0.00  0.00    +0.075 C 
ATOM      3  C   UNL     1      21.896  26.400  20.129  0.00  0.00    +0.113 C 
ATOM      4  C   UNL     1      23.134  27.032  19.442  0.00  0.00    +0.048 C 
ATOM      5  C   UNL     1      24.130  27.342  20.554  0.00  0.00    +0.004 C 
ATOM      6  C   UNL     1      23.841  26.293  21.610  0.00  0.00    +0.004 C 
ATOM      7  C   UNL     1      22.325  26.217  21.608  0.00  0.00    +0.048 C 
ATOM      8  O   UNL     1      21.659  25.086  19.591  0.00  0.00    -0.485 OA
ATOM      9  C   UNL     1      21.176  25.110  18.309  0.00  0.00    +0.126 A 
ATOM     10  C   UNL     1      21.592  24.099  17.444  0.00  0.00    +0.046 A 
ATOM     11  C   UNL     1      21.164  24.097  16.116  0.00  0.00    +0.004 A 
ATOM     12  C   UNL     1      20.304  25.093  15.658  0.00  0.00    +0.001 A 
ATOM     13  C   UNL     1      19.864  26.084  16.535  0.00  0.00    +0.009 A 
ATOM     14  C   UNL     1      20.300  26.100  17.871  0.00  0.00    +0.015 A 
ENDROOT
BRANCH   1  21
ATOM     15  N   UNL     1      13.547  26.395  18.851  0.00  0.00    -0.299 N 
ATOM     16  C   UNL     1      13.999  27.698  18.365  0.00  0.00    +0.127 C 
ATOM     17  C   UNL     1      15.049  28.322  19.279  0.00  0.00    +0.129 C 
ATOM     18  N   UNL     1      16.160  27.393  19.428  0.00  0.00    -0.275 N 
ATOM     19  C   UNL     1      17.418  27.783  19.031  0.00  0.00    +0.303 C 
ATOM     20  O   UNL     1      17.646  28.895  18.557  0.00  0.00    -0.253 OA
ATOM     21  N   UNL     1      18.404  26.848  19.160  0.00  0.00    -0.292 N 
ATOM     22  C   UNL     1      15.783  26.079  19.957  0.00  0.00    +0.205 C 
ATOM     23  C   UNL     1      14.348  25.595  19.658  0.00  0.00    +0.233 C 
ATOM     24  O   UNL     1      13.953  24.522  20.119  0.00  0.00    -0.274 OA
ATOM     25  H   UNL     1      18.283  26.125  19.849  0.00  0.00    +0.151 HD
BRANCH  15  27
ATOM     26  C   UNL     1      12.369  25.331  16.959  0.00  0.00    +0.024 C 
ATOM     27  C   UNL     1      12.268  25.884  18.370  0.00  0.00    +0.104 C 
ENDBRANCH  15  27
ENDBRANCH   1  21
TORSDOF 2
ENDMDL
MODEL 5
REMARK VINA RESULT:      -6.4      2.388      4.402
REMARK  Name = ZINC000329563636
REMARK  3 active torsions:
REMARK  status: ('A' for Active; 'I' for Inactive)
REMARK    1  A    between atoms: C_1  and  C_2
REMARK    2  A    between atoms: C_2  and  N_3
REMARK    3  A    between atoms: N_9  and  C_10
REMARK                            x       y       z     vdW  Elec       q    Type
REMARK                         _______ _______ _______ _____ _____    ______ ____
ROOT
ATOM      1  C   UNL     1      31.791  21.136  13.280  0.00  0.00    +0.112 C 
ATOM      2  C   UNL     1      32.870  21.607  12.300  0.00  0.00    +0.075 C 
ATOM      3  C   UNL     1      33.550  20.487  11.497  0.00  0.00    +0.113 C 
ATOM      4  C   UNL     1      32.790  20.050  10.218  0.00  0.00    +0.048 C 
ATOM      5  C   UNL     1      33.645  20.497   9.038  0.00  0.00    +0.004 C 
ATOM      6  C   UNL     1      35.062  20.458   9.574  0.00  0.00    +0.004 C 
ATOM      7  C   UNL     1      34.910  21.018  10.978  0.00  0.00    +0.048 C 
ATOM      8  O   UNL     1      33.828  19.335  12.316  0.00  0.00    -0.485 OA
ATOM      9  C   UNL     1      32.711  18.824  12.921  0.00  0.00    +0.126 A 
ATOM     10  C   UNL     1      32.635  17.440  13.071  0.00  0.00    +0.046 A 
ATOM     11  C   UNL     1      31.502  16.862  13.644  0.00  0.00    +0.004 A 
ATOM     12  C   UNL     1      30.454  17.667  14.085  0.00  0.00    +0.001 A 
ATOM     13  C   UNL     1      30.548  19.053  13.962  0.00  0.00    +0.009 A 
ATOM     14  C   UNL     1      31.681  19.643  13.377  0.00  0.00    +0.015 A 
ENDROOT
BRANCH   1  21
ATOM     15  N   UNL     1      31.532  22.915  19.311  0.00  0.00    -0.299 N 
ATOM     16  C   UNL     1      30.339  23.241  18.530  0.00  0.00    +0.127 C 
ATOM     17  C   UNL     1      30.685  23.889  17.193  0.00  0.00    +0.129 C 
ATOM     18  N   UNL     1      31.582  23.008  16.458  0.00  0.00    -0.275 N 
ATOM     19  C   UNL     1      31.192  22.532  15.227  0.00  0.00    +0.303 C 
ATOM     20  O   UNL     1      30.112  22.827  14.716  0.00  0.00    -0.253 OA
ATOM     21  N   UNL     1      32.061  21.679  14.612  0.00  0.00    -0.292 N 
ATOM     22  C   UNL     1      32.821  22.678  17.166  0.00  0.00    +0.205 C 
ATOM     23  C   UNL     1      32.762  22.678  18.708  0.00  0.00    +0.233 C 
ATOM     24  O   UNL     1      33.783  22.459  19.363  0.00  0.00    -0.274 OA
ATOM     25  H   UNL     1      33.036  21.739  14.855  0.00  0.00    +0.151 HD
BRANCH  15  27
ATOM     26  C   UNL     1      30.349  23.655  21.349  0.00  0.00    +0.024 C 
ATOM     27  C   UNL     1      31.382  22.718  20.749  0.00  0.00    +0.104 C 
ENDBRANCH  15  27
ENDBRANCH   1  21
TORSDOF 2
ENDMDL
MODEL 6
REMARK VINA RESULT:      -6.4     22.614     25.095
REMARK  Name = ZINC000329563636
REMARK  3 active torsions:
REMARK  status: ('A' for Active; 'I' for Inactive)
REMARK    1  A    between atoms: C_1  and  C_2
REMARK    2  A    between atoms: C_2  and  N_3
REMARK    3  A    between atoms: N_9  and  C_10
REMARK                            x       y       z     vdW  Elec       q    Type
REMARK                         _______ _______ _______ _____ _____    ______ ____
ROOT
ATOM      1  C   UNL     1      20.312  10.385   0.128  0.00  0.00    +0.112 C 
ATOM      2  C   UNL     1      19.961  10.934  -1.258  0.00  0.00    +0.075 C 
ATOM      3  C   UNL     1      18.774  11.909  -1.288  0.00  0.00    +0.113 C 
ATOM      4  C   UNL     1      19.133  13.381  -0.960  0.00  0.00    +0.048 C 
ATOM      5  C   UNL     1      18.944  14.167  -2.253  0.00  0.00    +0.004 C 
ATOM      6  C   UNL     1      17.856  13.410  -2.988  0.00  0.00    +0.004 C 
ATOM      7  C   UNL     1      18.221  11.958  -2.735  0.00  0.00    +0.048 C 
ATOM      8  O   UNL     1      17.699  11.469  -0.437  0.00  0.00    -0.485 OA
ATOM      9  C   UNL     1      18.084  11.288   0.865  0.00  0.00    +0.126 A 
ATOM     10  C   UNL     1      17.163  11.611   1.861  0.00  0.00    +0.046 A 
ATOM     11  C   UNL     1      17.516  11.484   3.205  0.00  0.00    +0.004 A 
ATOM     12  C   UNL     1      18.781  11.016   3.553  0.00  0.00    +0.001 A 
ATOM     13  C   UNL     1      19.688  10.664   2.554  0.00  0.00    +0.009 A 
ATOM     14  C   UNL     1      19.344  10.799   1.198  0.00  0.00    +0.015 A 
ENDROOT
BRANCH   1  21
ATOM     15  N   UNL     1      20.874   4.256   1.444  0.00  0.00    -0.299 N 
ATOM     16  C   UNL     1      21.946   5.093   1.980  0.00  0.00    +0.127 C 
ATOM     17  C   UNL     1      22.497   6.062   0.938  0.00  0.00    +0.129 C 
ATOM     18  N   UNL     1      21.402   6.867   0.415  0.00  0.00    -0.275 N 
ATOM     19  C   UNL     1      21.448   8.235   0.558  0.00  0.00    +0.303 C 
ATOM     20  O   UNL     1      22.385   8.811   1.108  0.00  0.00    -0.253 OA
ATOM     21  N   UNL     1      20.370   8.924   0.082  0.00  0.00    -0.292 N 
ATOM     22  C   UNL     1      20.311   6.090  -0.181  0.00  0.00    +0.205 C 
ATOM     23  C   UNL     1      20.085   4.669   0.375  0.00  0.00    +0.233 C 
ATOM     24  O   UNL     1      19.217   3.946  -0.118  0.00  0.00    -0.274 OA
ATOM     25  H   UNL     1      19.823   8.501  -0.650  0.00  0.00    +0.151 HD
BRANCH  15  27
ATOM     26  C   UNL     1      21.489   1.882   1.734  0.00  0.00    +0.024 C 
ATOM     27  C   UNL     1      20.557   3.012   2.137  0.00  0.00    +0.104 C 
ENDBRANCH  15  27
ENDBRANCH   1  21
TORSDOF 2
ENDMDL
MODEL 7
REMARK VINA RESULT:      -6.3     21.719     23.787
REMARK  Name = ZINC000329563636
REMARK  3 active torsions:
REMARK  status: ('A' for Active; 'I' for Inactive)
REMARK    1  A    between atoms: C_1  and  C_2
REMARK    2  A    between atoms: C_2  and  N_3
REMARK    3  A    between atoms: N_9  and  C_10
REMARK                            x       y       z     vdW  Elec       q    Type
REMARK                         _______ _______ _______ _____ _____    ______ ____
ROOT
ATOM      1  C   UNL     1      22.341   3.632  27.165  0.00  0.00    +0.112 C 
ATOM      2  C   UNL     1      22.701   3.907  25.702  0.00  0.00    +0.075 C 
ATOM      3  C   UNL     1      24.118   4.457  25.475  0.00  0.00    +0.113 C 
ATOM      4  C   UNL     1      25.228   3.378  25.390  0.00  0.00    +0.048 C 
ATOM      5  C   UNL     1      25.722   3.383  23.948  0.00  0.00    +0.004 C 
ATOM      6  C   UNL     1      25.500   4.810  23.488  0.00  0.00    +0.004 C 
ATOM      7  C   UNL     1      24.152   5.158  24.093  0.00  0.00    +0.048 C 
ATOM      8  O   UNL     1      24.472   5.445  26.461  0.00  0.00    -0.485 OA
ATOM      9  C   UNL     1      24.385   4.977  27.746  0.00  0.00    +0.126 A 
ATOM     10  C   UNL     1      25.326   5.438  28.665  0.00  0.00    +0.046 A 
ATOM     11  C   UNL     1      25.309   4.964  29.977  0.00  0.00    +0.004 A 
ATOM     12  C   UNL     1      24.340   4.046  30.376  0.00  0.00    +0.001 A 
ATOM     13  C   UNL     1      23.380   3.612  29.461  0.00  0.00    +0.009 A 
ATOM     14  C   UNL     1      23.397   4.076  28.135  0.00  0.00    +0.015 A 
ENDROOT
BRANCH   1  21
ATOM     15  N   UNL     1      17.191   5.880  30.000  0.00  0.00    -0.299 N 
ATOM     16  C   UNL     1      17.443   4.459  30.236  0.00  0.00    +0.127 C 
ATOM     17  C   UNL     1      17.766   3.709  28.947  0.00  0.00    +0.129 C 
ATOM     18  N   UNL     1      18.899   4.351  28.297  0.00  0.00    -0.275 N 
ATOM     19  C   UNL     1      20.045   3.623  28.074  0.00  0.00    +0.303 C 
ATOM     20  O   UNL     1      20.151   2.441  28.400  0.00  0.00    -0.253 OA
ATOM     21  N   UNL     1      21.082   4.299  27.499  0.00  0.00    -0.292 N 
ATOM     22  C   UNL     1      18.695   5.769  27.988  0.00  0.00    +0.205 C 
ATOM     23  C   UNL     1      17.733   6.550  28.909  0.00  0.00    +0.233 C 
ATOM     24  O   UNL     1      17.480   7.733  28.673  0.00  0.00    -0.274 OA
ATOM     25  H   UNL     1      20.867   5.105  26.936  0.00  0.00    +0.151 HD
BRANCH  15  27
ATOM     26  C   UNL     1      17.262   6.832  32.278  0.00  0.00    +0.024 C 
ATOM     27  C   UNL     1      16.450   6.626  31.011  0.00  0.00    +0.104 C 
ENDBRANCH  15  27
ENDBRANCH   1  21
TORSDOF 2
ENDMDL
MODEL 8
REMARK VINA RESULT:      -6.3      4.774      9.427
REMARK  Name = ZINC000329563636
REMARK  3 active torsions:
REMARK  status: ('A' for Active; 'I' for Inactive)
REMARK    1  A    between atoms: C_1  and  C_2
REMARK    2  A    between atoms: C_2  and  N_3
REMARK    3  A    between atoms: N_9  and  C_10
REMARK                            x       y       z     vdW  Elec       q    Type
REMARK                         _______ _______ _______ _____ _____    ______ ____
ROOT
ATOM      1  C   UNL     1      33.004  18.692  13.406  0.00  0.00    +0.112 C 
ATOM      2  C   UNL     1      31.670  19.419  13.206  0.00  0.00    +0.075 C 
ATOM      3  C   UNL     1      31.166  20.198  14.431  0.00  0.00    +0.113 C 
ATOM      4  C   UNL     1      31.752  21.625  14.581  0.00  0.00    +0.048 C 
ATOM      5  C   UNL     1      30.598  22.590  14.333  0.00  0.00    +0.004 C 
ATOM      6  C   UNL     1      29.372  21.823  14.786  0.00  0.00    +0.004 C 
ATOM      7  C   UNL     1      29.640  20.419  14.273  0.00  0.00    +0.048 C 
ATOM      8  O   UNL     1      31.364  19.460  15.652  0.00  0.00    -0.485 OA
ATOM      9  C   UNL     1      32.671  19.110  15.863  0.00  0.00    +0.126 A 
ATOM     10  C   UNL     1      33.135  19.112  17.178  0.00  0.00    +0.046 A 
ATOM     11  C   UNL     1      34.469  18.803  17.447  0.00  0.00    +0.004 A 
ATOM     12  C   UNL     1      35.333  18.473  16.406  0.00  0.00    +0.001 A 
ATOM     13  C   UNL     1      34.857  18.442  15.095  0.00  0.00    +0.009 A 
ATOM     14  C   UNL     1      33.518  18.762  14.814  0.00  0.00    +0.015 A 
ENDROOT
BRANCH   1  21
ATOM     15  N   UNL     1      33.917  12.604  12.101  0.00  0.00    -0.299 N 
ATOM     16  C   UNL     1      34.916  13.504  11.529  0.00  0.00    +0.127 C 
ATOM     17  C   UNL     1      34.281  14.707  10.838  0.00  0.00    +0.129 C 
ATOM     18  N   UNL     1      33.421  15.398  11.787  0.00  0.00    -0.275 N 
ATOM     19  C   UNL     1      33.684  16.713  12.095  0.00  0.00    +0.303 C 
ATOM     20  O   UNL     1      34.619  17.335  11.593  0.00  0.00    -0.253 OA
ATOM     21  N   UNL     1      32.863  17.287  13.023  0.00  0.00    -0.292 N 
ATOM     22  C   UNL     1      32.364  14.563  12.365  0.00  0.00    +0.205 C 
ATOM     23  C   UNL     1      32.656  13.053  12.480  0.00  0.00    +0.233 C 
ATOM     24  O   UNL     1      31.789  12.289  12.910  0.00  0.00    -0.274 OA
ATOM     25  H   UNL     1      31.939  16.907  13.136  0.00  0.00    +0.151 HD
BRANCH  15  27
ATOM     26  C   UNL     1      34.118  10.319  11.186  0.00  0.00    +0.024 C 
ATOM     27  C   UNL     1      34.309  11.228  12.387  0.00  0.00    +0.104 C 
ENDBRANCH  15  27
ENDBRANCH   1  21
TORSDOF 2
ENDMDL
MODEL 9
REMARK VINA RESULT:      -6.2      1.730      3.700
REMARK  Name = ZINC000329563636
REMARK  3 active torsions:
REMARK  status: ('A' for Active; 'I' for Inactive)
REMARK    1  A    between atoms: C_1  and  C_2
REMARK    2  A    between atoms: C_2  and  N_3
REMARK    3  A    between atoms: N_9  and  C_10
REMARK                            x       y       z     vdW  Elec       q    Type
REMARK                         _______ _______ _______ _____ _____    ______ ____
ROOT
ATOM      1  C   UNL     1      30.446  23.125  14.722  0.00  0.00    +0.112 C 
ATOM      2  C   UNL     1      31.321  24.152  13.996  0.00  0.00    +0.075 C 
ATOM      3  C   UNL     1      32.158  23.588  12.838  0.00  0.00    +0.113 C 
ATOM      4  C   UNL     1      31.411  23.488  11.483  0.00  0.00    +0.048 C 
ATOM      5  C   UNL     1      32.057  24.516  10.561  0.00  0.00    +0.004 C 
ATOM      6  C   UNL     1      33.487  24.606  11.054  0.00  0.00    +0.004 C 
ATOM      7  C   UNL     1      33.330  24.565  12.564  0.00  0.00    +0.048 C 
ATOM      8  O   UNL     1      32.738  22.312  13.169  0.00  0.00    -0.485 OA
ATOM      9  C   UNL     1      31.805  21.376  13.532  0.00  0.00    +0.126 A 
ATOM     10  C   UNL     1      32.037  20.055  13.154  0.00  0.00    +0.046 A 
ATOM     11  C   UNL     1      31.101  19.067  13.462  0.00  0.00    +0.004 A 
ATOM     12  C   UNL     1      29.944  19.396  14.164  0.00  0.00    +0.001 A 
ATOM     13  C   UNL     1      29.731  20.714  14.568  0.00  0.00    +0.009 A 
ATOM     14  C   UNL     1      30.664  21.716  14.253  0.00  0.00    +0.015 A 
ENDROOT
BRANCH   1  21
ATOM     15  N   UNL     1      32.348  24.667  20.520  0.00  0.00    -0.299 N 
ATOM     16  C   UNL     1      33.406  24.676  19.511  0.00  0.00    +0.127 C 
ATOM     17  C   UNL     1      33.387  23.421  18.643  0.00  0.00    +0.129 C 
ATOM     18  N   UNL     1      32.071  23.286  18.036  0.00  0.00    -0.275 N 
ATOM     19  C   UNL     1      31.964  23.278  16.664  0.00  0.00    +0.303 C 
ATOM     20  O   UNL     1      32.942  23.376  15.924  0.00  0.00    -0.253 OA
ATOM     21  N   UNL     1      30.698  23.190  16.162  0.00  0.00    -0.292 N 
ATOM     22  C   UNL     1      30.965  23.223  18.995  0.00  0.00    +0.205 C 
ATOM     23  C   UNL     1      31.171  23.948  20.342  0.00  0.00    +0.233 C 
ATOM     24  O   UNL     1      30.299  23.889  21.211  0.00  0.00    -0.274 OA
ATOM     25  H   UNL     1      29.990  22.764  16.736  0.00  0.00    +0.151 HD
BRANCH  15  27
ATOM     26  C   UNL     1      33.274  24.865  22.801  0.00  0.00    +0.024 C 
ATOM     27  C   UNL     1      32.495  25.535  21.683  0.00  0.00    +0.104 C 
ENDBRANCH  15  27
ENDBRANCH   1  21
TORSDOF 2
ENDMDL
