MODEL 1
REMARK VINA RESULT:      -6.4      0.000      0.000
REMARK  Name = ZINC000826139982
REMARK  4 active torsions:
REMARK  status: ('A' for Active; 'I' for Inactive)
REMARK    1  A    between atoms: C_2  and  C_4
REMARK    2  A    between atoms: C_8  and  C_10
REMARK    3  A    between atoms: C_14  and  S_15
REMARK    4  A    between atoms: S_15  and  C_16
REMARK                            x       y       z     vdW  Elec       q    Type
REMARK                         _______ _______ _______ _____ _____    ______ ____
ROOT
ATOM      1  C   UNL     1      32.581  22.619  16.684  0.00  0.00    +0.093 C 
ATOM      2  C   UNL     1      33.728  23.174  15.840  0.00  0.00    +0.033 C 
ATOM      3  C   UNL     1      32.995  24.086  14.867  0.00  0.00    +0.109 C 
ATOM      4  N   UNL     1      31.838  23.281  14.505  0.00  0.00    -0.297 N 
ATOM      5  C   UNL     1      31.059  23.259  13.354  0.00  0.00    +0.247 C 
ATOM      6  O   UNL     1      30.029  22.581  13.302  0.00  0.00    -0.270 OA
ATOM      7  C   UNL     1      31.436  22.487  15.669  0.00  0.00    +0.120 C 
ENDROOT
BRANCH   5   8
ATOM      8  C   UNL     1      31.412  24.064  12.145  0.00  0.00    +0.038 A 
ATOM      9  C   UNL     1      30.947  25.358  11.917  0.00  0.00    +0.013 A 
ATOM     10  C   UNL     1      31.238  26.026  10.725  0.00  0.00    +0.002 A 
ATOM     11  C   UNL     1      32.117  25.458   9.808  0.00  0.00    +0.015 A 
ATOM     12  C   UNL     1      32.739  24.241  10.098  0.00  0.00    +0.017 A 
ATOM     13  C   UNL     1      32.352  23.528  11.243  0.00  0.00    +0.028 A 
BRANCH  12  14
ATOM     14  S   UNL     1      33.997  23.580   9.025  0.00  0.00    -0.016 S 
BRANCH  14  15
ATOM     15  C   UNL     1      33.002  22.991   7.637  0.00  0.00    +0.448 C 
ATOM     16  F   UNL     1      31.927  22.252   8.002  0.00  0.00    -0.160 F 
ATOM     17  F   UNL     1      32.537  24.028   6.900  0.00  0.00    -0.160 F 
ATOM     18  F   UNL     1      33.748  22.217   6.810  0.00  0.00    -0.160 F 
ENDBRANCH  14  15
ENDBRANCH  12  14
ENDBRANCH   5   8
BRANCH   1  20
ATOM     19  N   UNL     1      31.031  24.137  17.820  0.00  0.00    -0.329 N 
ATOM     20  C   UNL     1      32.265  23.562  17.835  0.00  0.00    +0.215 C 
ATOM     21  O   UNL     1      33.030  23.787  18.768  0.00  0.00    -0.276 OA
ATOM     22  H   UNL     1      30.784  24.693  18.629  0.00  0.00    +0.145 HD
ATOM     23  H   UNL     1      30.302  23.874  17.174  0.00  0.00    +0.145 HD
ENDBRANCH   1  20
TORSDOF 4
ENDMDL
MODEL 2
REMARK VINA RESULT:      -6.0      5.351      7.698
REMARK  Name = ZINC000826139982
REMARK  4 active torsions:
REMARK  status: ('A' for Active; 'I' for Inactive)
REMARK    1  A    between atoms: C_2  and  C_4
REMARK    2  A    between atoms: C_8  and  C_10
REMARK    3  A    between atoms: C_14  and  S_15
REMARK    4  A    between atoms: S_15  and  C_16
REMARK                            x       y       z     vdW  Elec       q    Type
REMARK                         _______ _______ _______ _____ _____    ______ ____
ROOT
ATOM      1  C   UNL     1      32.417  23.757  11.196  0.00  0.00    +0.093 C 
ATOM      2  C   UNL     1      31.186  24.502  11.713  0.00  0.00    +0.033 C 
ATOM      3  C   UNL     1      31.390  24.443  13.220  0.00  0.00    +0.109 C 
ATOM      4  N   UNL     1      31.836  23.071  13.417  0.00  0.00    -0.297 N 
ATOM      5  C   UNL     1      31.724  22.217  14.507  0.00  0.00    +0.247 C 
ATOM      6  O   UNL     1      32.295  21.123  14.512  0.00  0.00    -0.270 OA
ATOM      7  C   UNL     1      32.635  22.668  12.257  0.00  0.00    +0.120 C 
ENDROOT
BRANCH   5   8
ATOM      8  C   UNL     1      30.938  22.586  15.723  0.00  0.00    +0.038 A 
ATOM      9  C   UNL     1      31.409  23.445  16.716  0.00  0.00    +0.013 A 
ATOM     10  C   UNL     1      30.665  23.680  17.874  0.00  0.00    +0.002 A 
ATOM     11  C   UNL     1      29.375  23.170  17.986  0.00  0.00    +0.015 A 
ATOM     12  C   UNL     1      28.812  22.456  16.924  0.00  0.00    +0.017 A 
ATOM     13  C   UNL     1      29.609  22.131  15.817  0.00  0.00    +0.028 A 
BRANCH  12  14
ATOM     14  S   UNL     1      27.107  21.944  16.972  0.00  0.00    -0.016 S 
BRANCH  14  15
ATOM     15  C   UNL     1      27.265  20.248  17.573  0.00  0.00    +0.448 C 
ATOM     16  F   UNL     1      26.082  19.615  17.756  0.00  0.00    -0.160 F 
ATOM     17  F   UNL     1      27.987  19.494  16.710  0.00  0.00    -0.160 F 
ATOM     18  F   UNL     1      27.913  20.222  18.764  0.00  0.00    -0.160 F 
ENDBRANCH  14  15
ENDBRANCH  12  14
ENDBRANCH   5   8
BRANCH   1  20
ATOM     19  N   UNL     1      34.731  24.365  11.720  0.00  0.00    -0.329 N 
ATOM     20  C   UNL     1      33.594  24.711  11.055  0.00  0.00    +0.215 C 
ATOM     21  O   UNL     1      33.579  25.721  10.358  0.00  0.00    -0.276 OA
ATOM     22  H   UNL     1      35.541  24.948  11.557  0.00  0.00    +0.145 HD
ATOM     23  H   UNL     1      34.860  23.474  12.176  0.00  0.00    +0.145 HD
ENDBRANCH   1  20
TORSDOF 4
ENDMDL
MODEL 3
REMARK VINA RESULT:      -5.9      4.925      7.740
REMARK  Name = ZINC000826139982
REMARK  4 active torsions:
REMARK  status: ('A' for Active; 'I' for Inactive)
REMARK    1  A    between atoms: C_2  and  C_4
REMARK    2  A    between atoms: C_8  and  C_10
REMARK    3  A    between atoms: C_14  and  S_15
REMARK    4  A    between atoms: S_15  and  C_16
REMARK                            x       y       z     vdW  Elec       q    Type
REMARK                         _______ _______ _______ _____ _____    ______ ____
ROOT
ATOM      1  C   UNL     1      35.437  22.986   6.842  0.00  0.00    +0.093 C 
ATOM      2  C   UNL     1      34.030  22.440   7.083  0.00  0.00    +0.033 C 
ATOM      3  C   UNL     1      33.371  23.582   7.842  0.00  0.00    +0.109 C 
ATOM      4  N   UNL     1      34.419  23.979   8.771  0.00  0.00    -0.297 N 
ATOM      5  C   UNL     1      34.358  24.571  10.026  0.00  0.00    +0.247 C 
ATOM      6  O   UNL     1      35.385  24.949  10.596  0.00  0.00    -0.270 OA
ATOM      7  C   UNL     1      35.718  23.795   8.117  0.00  0.00    +0.120 C 
ENDROOT
BRANCH   5   8
ATOM      8  C   UNL     1      33.059  24.800  10.729  0.00  0.00    +0.038 A 
ATOM      9  C   UNL     1      32.162  25.811  10.385  0.00  0.00    +0.013 A 
ATOM     10  C   UNL     1      31.007  26.033  11.137  0.00  0.00    +0.002 A 
ATOM     11  C   UNL     1      30.664  25.152  12.159  0.00  0.00    +0.015 A 
ATOM     12  C   UNL     1      31.454  24.026  12.405  0.00  0.00    +0.017 A 
ATOM     13  C   UNL     1      32.670  23.878  11.720  0.00  0.00    +0.028 A 
BRANCH  12  14
ATOM     14  S   UNL     1      30.946  22.795  13.587  0.00  0.00    -0.016 S 
BRANCH  14  15
ATOM     15  C   UNL     1      32.295  22.877  14.784  0.00  0.00    +0.448 C 
ATOM     16  F   UNL     1      32.768  24.128  14.997  0.00  0.00    -0.160 F 
ATOM     17  F   UNL     1      31.905  22.392  15.987  0.00  0.00    -0.160 F 
ATOM     18  F   UNL     1      33.345  22.125  14.372  0.00  0.00    -0.160 F 
ENDBRANCH  14  15
ENDBRANCH  12  14
ENDBRANCH   5   8
BRANCH   1  20
ATOM     19  N   UNL     1      35.661  25.161   5.740  0.00  0.00    -0.329 N 
ATOM     20  C   UNL     1      35.470  23.824   5.573  0.00  0.00    +0.215 C 
ATOM     21  O   UNL     1      35.379  23.359   4.441  0.00  0.00    -0.276 OA
ATOM     22  H   UNL     1      35.774  25.708   4.896  0.00  0.00    +0.145 HD
ATOM     23  H   UNL     1      35.901  25.584   6.625  0.00  0.00    +0.145 HD
ENDBRANCH   1  20
TORSDOF 4
ENDMDL
MODEL 4
REMARK VINA RESULT:      -5.7      3.171      4.257
REMARK  Name = ZINC000826139982
REMARK  4 active torsions:
REMARK  status: ('A' for Active; 'I' for Inactive)
REMARK    1  A    between atoms: C_2  and  C_4
REMARK    2  A    between atoms: C_8  and  C_10
REMARK    3  A    between atoms: C_14  and  S_15
REMARK    4  A    between atoms: S_15  and  C_16
REMARK                            x       y       z     vdW  Elec       q    Type
REMARK                         _______ _______ _______ _____ _____    ______ ____
ROOT
ATOM      1  C   UNL     1      31.130  18.402  14.700  0.00  0.00    +0.093 C 
ATOM      2  C   UNL     1      30.029  19.417  14.393  0.00  0.00    +0.033 C 
ATOM      3  C   UNL     1      30.604  20.156  13.194  0.00  0.00    +0.109 C 
ATOM      4  N   UNL     1      31.996  20.336  13.582  0.00  0.00    -0.297 N 
ATOM      5  C   UNL     1      32.927  21.306  13.234  0.00  0.00    +0.247 C 
ATOM      6  O   UNL     1      34.108  21.199  13.577  0.00  0.00    -0.270 OA
ATOM      7  C   UNL     1      32.416  19.174  14.369  0.00  0.00    +0.120 C 
ENDROOT
BRANCH   5   8
ATOM      8  C   UNL     1      32.556  22.501  12.416  0.00  0.00    +0.038 A 
ATOM      9  C   UNL     1      31.642  23.468  12.833  0.00  0.00    +0.013 A 
ATOM     10  C   UNL     1      31.268  24.514  11.987  0.00  0.00    +0.002 A 
ATOM     11  C   UNL     1      31.912  24.683  10.765  0.00  0.00    +0.015 A 
ATOM     12  C   UNL     1      32.959  23.831  10.404  0.00  0.00    +0.017 A 
ATOM     13  C   UNL     1      33.248  22.719  11.209  0.00  0.00    +0.028 A 
BRANCH  12  14
ATOM     14  S   UNL     1      33.913  24.131   8.930  0.00  0.00    -0.016 S 
BRANCH  14  15
ATOM     15  C   UNL     1      32.912  23.288   7.685  0.00  0.00    +0.448 C 
ATOM     16  F   UNL     1      32.165  24.121   6.922  0.00  0.00    -0.160 F 
ATOM     17  F   UNL     1      33.692  22.571   6.842  0.00  0.00    -0.160 F 
ATOM     18  F   UNL     1      32.054  22.417   8.272  0.00  0.00    -0.160 F 
ENDBRANCH  14  15
ENDBRANCH  12  14
ENDBRANCH   5   8
BRANCH   1  20
ATOM     19  N   UNL     1      32.067  16.633  13.290  0.00  0.00    -0.329 N 
ATOM     20  C   UNL     1      30.944  17.147  13.861  0.00  0.00    +0.215 C 
ATOM     21  O   UNL     1      29.870  16.571  13.717  0.00  0.00    -0.276 OA
ATOM     22  H   UNL     1      31.963  15.750  12.807  0.00  0.00    +0.145 HD
ATOM     23  H   UNL     1      32.999  16.962  13.498  0.00  0.00    +0.145 HD
ENDBRANCH   1  20
TORSDOF 4
ENDMDL
MODEL 5
REMARK VINA RESULT:      -5.7      3.348      4.404
REMARK  Name = ZINC000826139982
REMARK  4 active torsions:
REMARK  status: ('A' for Active; 'I' for Inactive)
REMARK    1  A    between atoms: C_2  and  C_4
REMARK    2  A    between atoms: C_8  and  C_10
REMARK    3  A    between atoms: C_14  and  S_15
REMARK    4  A    between atoms: S_15  and  C_16
REMARK                            x       y       z     vdW  Elec       q    Type
REMARK                         _______ _______ _______ _____ _____    ______ ____
ROOT
ATOM      1  C   UNL     1      31.248  19.126  14.586  0.00  0.00    +0.093 C 
ATOM      2  C   UNL     1      30.048  20.060  14.431  0.00  0.00    +0.033 C 
ATOM      3  C   UNL     1      30.459  20.911  13.239  0.00  0.00    +0.109 C 
ATOM      4  N   UNL     1      31.860  21.186  13.527  0.00  0.00    -0.297 N 
ATOM      5  C   UNL     1      32.679  22.250  13.168  0.00  0.00    +0.247 C 
ATOM      6  O   UNL     1      33.889  22.223  13.409  0.00  0.00    -0.270 OA
ATOM      7  C   UNL     1      32.436  20.022  14.204  0.00  0.00    +0.120 C 
ENDROOT
BRANCH   5   8
ATOM      8  C   UNL     1      32.147  23.453  12.459  0.00  0.00    +0.038 A 
ATOM      9  C   UNL     1      31.220  24.332  13.018  0.00  0.00    +0.013 A 
ATOM     10  C   UNL     1      30.691  25.388  12.272  0.00  0.00    +0.002 A 
ATOM     11  C   UNL     1      31.192  25.660  11.003  0.00  0.00    +0.015 A 
ATOM     12  C   UNL     1      32.249  24.903  10.492  0.00  0.00    +0.017 A 
ATOM     13  C   UNL     1      32.693  23.777  11.202  0.00  0.00    +0.028 A 
BRANCH  12  14
ATOM     14  S   UNL     1      33.022  25.340   8.948  0.00  0.00    -0.016 S 
BRANCH  14  15
ATOM     15  C   UNL     1      34.214  26.584   9.490  0.00  0.00    +0.448 C 
ATOM     16  F   UNL     1      34.969  26.201  10.547  0.00  0.00    -0.160 F 
ATOM     17  F   UNL     1      35.068  26.904   8.489  0.00  0.00    -0.160 F 
ATOM     18  F   UNL     1      33.579  27.726   9.854  0.00  0.00    -0.160 F 
ENDBRANCH  14  15
ENDBRANCH  12  14
ENDBRANCH   5   8
BRANCH   1  20
ATOM     19  N   UNL     1      30.037  17.093  13.956  0.00  0.00    -0.329 N 
ATOM     20  C   UNL     1      31.093  17.909  13.687  0.00  0.00    +0.215 C 
ATOM     21  O   UNL     1      31.826  17.662  12.734  0.00  0.00    -0.276 OA
ATOM     22  H   UNL     1      29.878  16.334  13.307  0.00  0.00    +0.145 HD
ATOM     23  H   UNL     1      29.310  17.323  14.618  0.00  0.00    +0.145 HD
ENDBRANCH   1  20
TORSDOF 4
ENDMDL
MODEL 6
REMARK VINA RESULT:      -5.7      4.932      5.999
REMARK  Name = ZINC000826139982
REMARK  4 active torsions:
REMARK  status: ('A' for Active; 'I' for Inactive)
REMARK    1  A    between atoms: C_2  and  C_4
REMARK    2  A    between atoms: C_8  and  C_10
REMARK    3  A    between atoms: C_14  and  S_15
REMARK    4  A    between atoms: S_15  and  C_16
REMARK                            x       y       z     vdW  Elec       q    Type
REMARK                         _______ _______ _______ _____ _____    ______ ____
ROOT
ATOM      1  C   UNL     1      30.257  23.778  17.719  0.00  0.00    +0.093 C 
ATOM      2  C   UNL     1      29.534  23.552  16.392  0.00  0.00    +0.033 C 
ATOM      3  C   UNL     1      30.111  22.220  15.939  0.00  0.00    +0.109 C 
ATOM      4  N   UNL     1      31.525  22.375  16.248  0.00  0.00    -0.297 N 
ATOM      5  C   UNL     1      32.657  21.806  15.679  0.00  0.00    +0.247 C 
ATOM      6  O   UNL     1      33.770  21.975  16.184  0.00  0.00    -0.270 OA
ATOM      7  C   UNL     1      31.652  23.190  17.459  0.00  0.00    +0.120 C 
ENDROOT
BRANCH   5   8
ATOM      8  C   UNL     1      32.582  20.951  14.456  0.00  0.00    +0.038 A 
ATOM      9  C   UNL     1      32.971  21.381  13.187  0.00  0.00    +0.013 A 
ATOM     10  C   UNL     1      32.792  20.568  12.067  0.00  0.00    +0.002 A 
ATOM     11  C   UNL     1      32.351  19.257  12.223  0.00  0.00    +0.015 A 
ATOM     12  C   UNL     1      32.127  18.744  13.504  0.00  0.00    +0.017 A 
ATOM     13  C   UNL     1      32.201  19.604  14.610  0.00  0.00    +0.028 A 
BRANCH  12  14
ATOM     14  S   UNL     1      31.732  17.024  13.742  0.00  0.00    -0.016 S 
BRANCH  14  15
ATOM     15  C   UNL     1      30.014  17.129  14.289  0.00  0.00    +0.448 C 
ATOM     16  F   UNL     1      29.198  16.205  13.727  0.00  0.00    -0.160 F 
ATOM     17  F   UNL     1      29.923  16.974  15.631  0.00  0.00    -0.160 F 
ATOM     18  F   UNL     1      29.492  18.345  13.992  0.00  0.00    -0.160 F 
ENDBRANCH  14  15
ENDBRANCH  12  14
ENDBRANCH   5   8
BRANCH   1  20
ATOM     19  N   UNL     1      30.256  22.743  19.938  0.00  0.00    -0.329 N 
ATOM     20  C   UNL     1      29.512  23.092  18.853  0.00  0.00    +0.215 C 
ATOM     21  O   UNL     1      28.302  22.884  18.853  0.00  0.00    -0.276 OA
ATOM     22  H   UNL     1      29.749  22.368  20.730  0.00  0.00    +0.145 HD
ATOM     23  H   UNL     1      31.216  23.026  20.070  0.00  0.00    +0.145 HD
ENDBRANCH   1  20
TORSDOF 4
ENDMDL
MODEL 7
REMARK VINA RESULT:      -5.6      2.916      3.865
REMARK  Name = ZINC000826139982
REMARK  4 active torsions:
REMARK  status: ('A' for Active; 'I' for Inactive)
REMARK    1  A    between atoms: C_2  and  C_4
REMARK    2  A    between atoms: C_8  and  C_10
REMARK    3  A    between atoms: C_14  and  S_15
REMARK    4  A    between atoms: S_15  and  C_16
REMARK                            x       y       z     vdW  Elec       q    Type
REMARK                         _______ _______ _______ _____ _____    ______ ____
ROOT
ATOM      1  C   UNL     1      27.995  21.692  17.518  0.00  0.00    +0.093 C 
ATOM      2  C   UNL     1      29.285  22.423  17.892  0.00  0.00    +0.033 C 
ATOM      3  C   UNL     1      29.619  23.157  16.603  0.00  0.00    +0.109 C 
ATOM      4  N   UNL     1      29.347  22.145  15.593  0.00  0.00    -0.297 N 
ATOM      5  C   UNL     1      29.877  21.948  14.324  0.00  0.00    +0.247 C 
ATOM      6  O   UNL     1      29.406  21.093  13.568  0.00  0.00    -0.270 OA
ATOM      7  C   UNL     1      28.220  21.325  16.044  0.00  0.00    +0.120 C 
ENDROOT
BRANCH   5   8
ATOM      8  C   UNL     1      31.014  22.769  13.806  0.00  0.00    +0.038 A 
ATOM      9  C   UNL     1      32.345  22.561  14.169  0.00  0.00    +0.013 A 
ATOM     10  C   UNL     1      33.352  23.419  13.723  0.00  0.00    +0.002 A 
ATOM     11  C   UNL     1      33.059  24.412  12.793  0.00  0.00    +0.015 A 
ATOM     12  C   UNL     1      31.765  24.524  12.277  0.00  0.00    +0.017 A 
ATOM     13  C   UNL     1      30.740  23.732  12.816  0.00  0.00    +0.028 A 
BRANCH  12  14
ATOM     14  S   UNL     1      31.404  25.668  10.961  0.00  0.00    -0.016 S 
BRANCH  14  15
ATOM     15  C   UNL     1      32.414  24.997   9.623  0.00  0.00    +0.448 C 
ATOM     16  F   UNL     1      32.010  25.371   8.385  0.00  0.00    -0.160 F 
ATOM     17  F   UNL     1      33.706  25.382   9.751  0.00  0.00    -0.160 F 
ATOM     18  F   UNL     1      32.398  23.641   9.647  0.00  0.00    -0.160 F 
ENDBRANCH  14  15
ENDBRANCH  12  14
ENDBRANCH   5   8
BRANCH   1  20
ATOM     19  N   UNL     1      26.825  23.380  18.852  0.00  0.00    -0.329 N 
ATOM     20  C   UNL     1      26.791  22.594  17.741  0.00  0.00    +0.215 C 
ATOM     21  O   UNL     1      25.841  22.675  16.968  0.00  0.00    -0.276 OA
ATOM     22  H   UNL     1      26.071  24.045  18.957  0.00  0.00    +0.145 HD
ATOM     23  H   UNL     1      27.641  23.479  19.439  0.00  0.00    +0.145 HD
ENDBRANCH   1  20
TORSDOF 4
ENDMDL
MODEL 8
REMARK VINA RESULT:      -5.6      4.978      7.575
REMARK  Name = ZINC000826139982
REMARK  4 active torsions:
REMARK  status: ('A' for Active; 'I' for Inactive)
REMARK    1  A    between atoms: C_2  and  C_4
REMARK    2  A    between atoms: C_8  and  C_10
REMARK    3  A    between atoms: C_14  and  S_15
REMARK    4  A    between atoms: S_15  and  C_16
REMARK                            x       y       z     vdW  Elec       q    Type
REMARK                         _______ _______ _______ _____ _____    ______ ____
ROOT
ATOM      1  C   UNL     1      33.404  25.321   8.747  0.00  0.00    +0.093 C 
ATOM      2  C   UNL     1      34.417  24.649   9.673  0.00  0.00    +0.033 C 
ATOM      3  C   UNL     1      33.520  23.806  10.567  0.00  0.00    +0.109 C 
ATOM      4  N   UNL     1      32.419  24.717  10.846  0.00  0.00    -0.297 N 
ATOM      5  C   UNL     1      31.553  24.806  11.929  0.00  0.00    +0.247 C 
ATOM      6  O   UNL     1      30.593  25.581  11.906  0.00  0.00    -0.270 OA
ATOM      7  C   UNL     1      32.196  25.556   9.666  0.00  0.00    +0.120 C 
ENDROOT
BRANCH   5   8
ATOM      8  C   UNL     1      31.724  23.960  13.149  0.00  0.00    +0.038 A 
ATOM      9  C   UNL     1      32.855  24.000  13.964  0.00  0.00    +0.013 A 
ATOM     10  C   UNL     1      32.995  23.120  15.039  0.00  0.00    +0.002 A 
ATOM     11  C   UNL     1      31.941  22.285  15.397  0.00  0.00    +0.015 A 
ATOM     12  C   UNL     1      30.729  22.356  14.705  0.00  0.00    +0.017 A 
ATOM     13  C   UNL     1      30.639  23.160  13.558  0.00  0.00    +0.028 A 
BRANCH  12  14
ATOM     14  S   UNL     1      29.311  21.427  15.250  0.00  0.00    -0.016 S 
BRANCH  14  15
ATOM     15  C   UNL     1      28.682  22.487  16.570  0.00  0.00    +0.448 C 
ATOM     16  F   UNL     1      29.027  22.081  17.816  0.00  0.00    -0.160 F 
ATOM     17  F   UNL     1      29.132  23.756  16.429  0.00  0.00    -0.160 F 
ATOM     18  F   UNL     1      27.327  22.538  16.536  0.00  0.00    -0.160 F 
ENDBRANCH  14  15
ENDBRANCH  12  14
ENDBRANCH   5   8
BRANCH   1  20
ATOM     19  N   UNL     1      33.612  24.812   6.361  0.00  0.00    -0.329 N 
ATOM     20  C   UNL     1      33.095  24.423   7.558  0.00  0.00    +0.215 C 
ATOM     21  O   UNL     1      32.460  23.376   7.636  0.00  0.00    -0.276 OA
ATOM     22  H   UNL     1      33.486  24.173   5.587  0.00  0.00    +0.145 HD
ATOM     23  H   UNL     1      34.272  25.570   6.259  0.00  0.00    +0.145 HD
ENDBRANCH   1  20
TORSDOF 4
ENDMDL
MODEL 9
REMARK VINA RESULT:      -5.5      4.395      7.052
REMARK  Name = ZINC000826139982
REMARK  4 active torsions:
REMARK  status: ('A' for Active; 'I' for Inactive)
REMARK    1  A    between atoms: C_2  and  C_4
REMARK    2  A    between atoms: C_8  and  C_10
REMARK    3  A    between atoms: C_14  and  S_15
REMARK    4  A    between atoms: S_15  and  C_16
REMARK                            x       y       z     vdW  Elec       q    Type
REMARK                         _______ _______ _______ _____ _____    ______ ____
ROOT
ATOM      1  C   UNL     1      33.854  24.125   8.469  0.00  0.00    +0.093 C 
ATOM      2  C   UNL     1      34.790  23.602   9.558  0.00  0.00    +0.033 C 
ATOM      3  C   UNL     1      33.809  23.099  10.606  0.00  0.00    +0.109 C 
ATOM      4  N   UNL     1      32.810  24.158  10.625  0.00  0.00    -0.297 N 
ATOM      5  C   UNL     1      31.957  24.598  11.630  0.00  0.00    +0.247 C 
ATOM      6  O   UNL     1      31.084  25.437  11.394  0.00  0.00    -0.270 OA
ATOM      7  C   UNL     1      32.677  24.700   9.270  0.00  0.00    +0.120 C 
ENDROOT
BRANCH   5   8
ATOM      8  C   UNL     1      32.037  24.064  13.024  0.00  0.00    +0.038 A 
ATOM      9  C   UNL     1      33.098  24.326  13.891  0.00  0.00    +0.013 A 
ATOM     10  C   UNL     1      33.161  23.725  15.150  0.00  0.00    +0.002 A 
ATOM     11  C   UNL     1      32.090  22.966  15.611  0.00  0.00    +0.015 A 
ATOM     12  C   UNL     1      30.937  22.838  14.832  0.00  0.00    +0.017 A 
ATOM     13  C   UNL     1      30.932  23.350  13.526  0.00  0.00    +0.028 A 
BRANCH  12  14
ATOM     14  S   UNL     1      29.490  22.020  15.470  0.00  0.00    -0.016 S 
BRANCH  14  15
ATOM     15  C   UNL     1      29.602  20.415  14.650  0.00  0.00    +0.448 C 
ATOM     16  F   UNL     1      29.000  19.407  15.326  0.00  0.00    -0.160 F 
ATOM     17  F   UNL     1      29.037  20.459  13.420  0.00  0.00    -0.160 F 
ATOM     18  F   UNL     1      30.898  20.055  14.481  0.00  0.00    -0.160 F 
ENDBRANCH  14  15
ENDBRANCH  12  14
ENDBRANCH   5   8
BRANCH   1  20
ATOM     19  N   UNL     1      34.440  22.500   6.734  0.00  0.00    -0.329 N 
ATOM     20  C   UNL     1      33.454  22.999   7.528  0.00  0.00    +0.215 C 
ATOM     21  O   UNL     1      32.330  22.508   7.484  0.00  0.00    -0.276 OA
ATOM     22  H   UNL     1      34.201  21.693   6.173  0.00  0.00    +0.145 HD
ATOM     23  H   UNL     1      35.414  22.747   6.833  0.00  0.00    +0.145 HD
ENDBRANCH   1  20
TORSDOF 4
ENDMDL
