MODEL 1
REMARK VINA RESULT:      -7.6      0.000      0.000
REMARK  Name = ZINC000583127796
REMARK  2 active torsions:
REMARK  status: ('A' for Active; 'I' for Inactive)
REMARK    1  A    between atoms: C_2  and  C_4
REMARK    2  A    between atoms: C_7  and  C_8
REMARK                            x       y       z     vdW  Elec       q    Type
REMARK                         _______ _______ _______ _____ _____    ______ ____
ROOT
ATOM      1  C   UNL     1      30.939  19.337  16.505  0.00  0.00    +0.247 C 
ATOM      2  O   UNL     1      32.090  19.685  16.763  0.00  0.00    -0.270 OA
ATOM      3  N   UNL     1      29.813  20.034  16.972  0.00  0.00    -0.297 N 
ATOM      4  C   UNL     1      28.411  19.699  16.711  0.00  0.00    +0.108 C 
ATOM      5  C   UNL     1      27.639  20.863  16.116  0.00  0.00    +0.020 C 
ATOM      6  C   UNL     1      27.824  22.129  16.932  0.00  0.00    +0.011 C 
ATOM      7  C   UNL     1      29.313  22.475  17.181  0.00  0.00    -0.004 C 
ATOM      8  C   UNL     1      29.340  23.697  18.125  0.00  0.00    +0.020 C 
ATOM      9  C   UNL     1      30.647  24.443  17.959  0.00  0.00    +0.070 C 
ATOM     10  S   UNL     1      30.943  24.419  16.184  0.00  0.00    -0.160 S 
ATOM     11  C   UNL     1      30.020  22.888  15.870  0.00  0.00    +0.077 C 
ATOM     12  C   UNL     1      30.015  21.234  17.800  0.00  0.00    +0.115 C 
ENDROOT
BRANCH   1  16
ATOM     13  C   UNL     1      30.488  16.299  13.527  0.00  0.00    +0.037 A 
ATOM     14  C   UNL     1      29.379  16.676  14.290  0.00  0.00    +0.014 A 
ATOM     15  C   UNL     1      29.533  17.582  15.343  0.00  0.00    +0.014 A 
ATOM     16  C   UNL     1      30.772  18.189  15.570  0.00  0.00    +0.037 A 
ATOM     17  C   UNL     1      31.901  17.733  14.874  0.00  0.00    +0.014 A 
ATOM     18  C   UNL     1      31.760  16.779  13.862  0.00  0.00    +0.014 A 
BRANCH  13  20
ATOM     19  N   UNL     1      29.078  15.021  12.014  0.00  0.00    -0.325 N 
ATOM     20  C   UNL     1      30.347  15.394  12.358  0.00  0.00    +0.242 C 
ATOM     21  O   UNL     1      31.316  15.043  11.702  0.00  0.00    -0.270 OA
ATOM     22  H   UNL     1      28.988  14.512  11.142  0.00  0.00    +0.145 HD
ATOM     23  H   UNL     1      28.262  15.510  12.354  0.00  0.00    +0.145 HD
ENDBRANCH  13  20
ENDBRANCH   1  16
TORSDOF 2
ENDMDL
MODEL 2
REMARK VINA RESULT:      -7.2      2.977      6.977
REMARK  Name = ZINC000583127796
REMARK  2 active torsions:
REMARK  status: ('A' for Active; 'I' for Inactive)
REMARK    1  A    between atoms: C_2  and  C_4
REMARK    2  A    between atoms: C_7  and  C_8
REMARK                            x       y       z     vdW  Elec       q    Type
REMARK                         _______ _______ _______ _____ _____    ______ ____
ROOT
ATOM      1  C   UNL     1      30.094  19.292  15.411  0.00  0.00    +0.247 C 
ATOM      2  O   UNL     1      29.775  19.740  14.311  0.00  0.00    -0.270 OA
ATOM      3  N   UNL     1      31.045  18.271  15.567  0.00  0.00    -0.297 N 
ATOM      4  C   UNL     1      31.492  17.683  16.833  0.00  0.00    +0.108 C 
ATOM      5  C   UNL     1      33.000  17.739  16.997  0.00  0.00    +0.020 C 
ATOM      6  C   UNL     1      33.714  17.183  15.778  0.00  0.00    +0.011 C 
ATOM      7  C   UNL     1      33.240  17.831  14.453  0.00  0.00    -0.004 C 
ATOM      8  C   UNL     1      33.949  17.080  13.306  0.00  0.00    +0.020 C 
ATOM      9  C   UNL     1      34.022  17.967  12.081  0.00  0.00    +0.070 C 
ATOM     10  S   UNL     1      34.420  19.593  12.741  0.00  0.00    -0.160 S 
ATOM     11  C   UNL     1      33.668  19.314  14.369  0.00  0.00    +0.077 C 
ATOM     12  C   UNL     1      31.693  17.714  14.368  0.00  0.00    +0.115 C 
ENDROOT
BRANCH   1  16
ATOM     13  C   UNL     1      28.197  21.416  18.603  0.00  0.00    +0.037 A 
ATOM     14  C   UNL     1      29.540  21.678  18.313  0.00  0.00    +0.014 A 
ATOM     15  C   UNL     1      30.207  20.913  17.352  0.00  0.00    +0.014 A 
ATOM     16  C   UNL     1      29.508  19.957  16.609  0.00  0.00    +0.037 A 
ATOM     17  C   UNL     1      28.195  19.626  16.973  0.00  0.00    +0.014 A 
ATOM     18  C   UNL     1      27.545  20.347  17.977  0.00  0.00    +0.014 A 
BRANCH  13  20
ATOM     19  N   UNL     1      26.807  23.358  19.063  0.00  0.00    -0.325 N 
ATOM     20  C   UNL     1      27.439  22.256  19.567  0.00  0.00    +0.242 C 
ATOM     21  O   UNL     1      27.343  21.945  20.744  0.00  0.00    -0.270 OA
ATOM     22  H   UNL     1      26.192  23.845  19.705  0.00  0.00    +0.145 HD
ATOM     23  H   UNL     1      26.639  23.477  18.074  0.00  0.00    +0.145 HD
ENDBRANCH  13  20
ENDBRANCH   1  16
TORSDOF 2
ENDMDL
MODEL 3
REMARK VINA RESULT:      -7.1      4.932      7.190
REMARK  Name = ZINC000583127796
REMARK  2 active torsions:
REMARK  status: ('A' for Active; 'I' for Inactive)
REMARK    1  A    between atoms: C_2  and  C_4
REMARK    2  A    between atoms: C_7  and  C_8
REMARK                            x       y       z     vdW  Elec       q    Type
REMARK                         _______ _______ _______ _____ _____    ______ ____
ROOT
ATOM      1  C   UNL     1      32.570  23.802  14.099  0.00  0.00    +0.247 C 
ATOM      2  O   UNL     1      33.634  23.187  14.061  0.00  0.00    -0.270 OA
ATOM      3  N   UNL     1      32.378  25.029  13.441  0.00  0.00    -0.297 N 
ATOM      4  C   UNL     1      31.149  25.826  13.425  0.00  0.00    +0.108 C 
ATOM      5  C   UNL     1      30.683  26.141  12.015  0.00  0.00    +0.020 C 
ATOM      6  C   UNL     1      31.803  26.726  11.175  0.00  0.00    +0.011 C 
ATOM      7  C   UNL     1      33.087  25.860  11.192  0.00  0.00    -0.004 C 
ATOM      8  C   UNL     1      34.168  26.640  10.414  0.00  0.00    +0.020 C 
ATOM      9  C   UNL     1      35.210  25.679   9.882  0.00  0.00    +0.070 C 
ATOM     10  S   UNL     1      34.254  24.264   9.315  0.00  0.00    -0.160 S 
ATOM     11  C   UNL     1      32.867  24.517  10.458  0.00  0.00    +0.077 C 
ATOM     12  C   UNL     1      33.493  25.601  12.669  0.00  0.00    +0.115 C 
ENDROOT
BRANCH   1  16
ATOM     13  C   UNL     1      29.055  22.118  15.863  0.00  0.00    +0.037 A 
ATOM     14  C   UNL     1      29.841  22.999  16.614  0.00  0.00    +0.014 A 
ATOM     15  C   UNL     1      31.051  23.467  16.096  0.00  0.00    +0.014 A 
ATOM     16  C   UNL     1      31.428  23.139  14.790  0.00  0.00    +0.037 A 
ATOM     17  C   UNL     1      30.694  22.177  14.081  0.00  0.00    +0.014 A 
ATOM     18  C   UNL     1      29.515  21.659  14.624  0.00  0.00    +0.014 A 
BRANCH  13  20
ATOM     19  N   UNL     1      26.917  22.602  16.915  0.00  0.00    -0.325 N 
ATOM     20  C   UNL     1      27.731  21.658  16.354  0.00  0.00    +0.242 C 
ATOM     21  O   UNL     1      27.366  20.501  16.213  0.00  0.00    -0.270 OA
ATOM     22  H   UNL     1      25.972  22.301  17.126  0.00  0.00    +0.145 HD
ATOM     23  H   UNL     1      27.073  23.592  16.789  0.00  0.00    +0.145 HD
ENDBRANCH  13  20
ENDBRANCH   1  16
TORSDOF 2
ENDMDL
MODEL 4
REMARK VINA RESULT:      -6.9      3.166      6.931
REMARK  Name = ZINC000583127796
REMARK  2 active torsions:
REMARK  status: ('A' for Active; 'I' for Inactive)
REMARK    1  A    between atoms: C_2  and  C_4
REMARK    2  A    between atoms: C_7  and  C_8
REMARK                            x       y       z     vdW  Elec       q    Type
REMARK                         _______ _______ _______ _____ _____    ______ ____
ROOT
ATOM      1  C   UNL     1      31.130  21.064  15.786  0.00  0.00    +0.247 C 
ATOM      2  O   UNL     1      32.236  21.601  15.804  0.00  0.00    -0.270 OA
ATOM      3  N   UNL     1      30.866  19.897  15.050  0.00  0.00    -0.297 N 
ATOM      4  C   UNL     1      29.587  19.185  14.975  0.00  0.00    +0.108 C 
ATOM      5  C   UNL     1      29.717  17.719  15.348  0.00  0.00    +0.020 C 
ATOM      6  C   UNL     1      30.838  17.046  14.578  0.00  0.00    +0.011 C 
ATOM      7  C   UNL     1      32.185  17.804  14.686  0.00  0.00    -0.004 C 
ATOM      8  C   UNL     1      33.184  17.083  13.756  0.00  0.00    +0.020 C 
ATOM      9  C   UNL     1      34.600  17.353  14.216  0.00  0.00    +0.070 C 
ATOM     10  S   UNL     1      34.503  17.256  16.011  0.00  0.00    -0.160 S 
ATOM     11  C   UNL     1      32.756  17.732  16.121  0.00  0.00    +0.077 C 
ATOM     12  C   UNL     1      31.957  19.285  14.274  0.00  0.00    +0.115 C 
ENDROOT
BRANCH   1  16
ATOM     13  C   UNL     1      28.066  22.360  18.474  0.00  0.00    +0.037 A 
ATOM     14  C   UNL     1      27.792  22.304  17.104  0.00  0.00    +0.014 A 
ATOM     15  C   UNL     1      28.813  21.995  16.202  0.00  0.00    +0.014 A 
ATOM     16  C   UNL     1      30.081  21.641  16.673  0.00  0.00    +0.037 A 
ATOM     17  C   UNL     1      30.380  21.799  18.034  0.00  0.00    +0.014 A 
ATOM     18  C   UNL     1      29.375  22.170  18.931  0.00  0.00    +0.014 A 
BRANCH  13  20
ATOM     19  N   UNL     1      26.009  23.496  19.100  0.00  0.00    -0.325 N 
ATOM     20  C   UNL     1      26.988  22.616  19.465  0.00  0.00    +0.242 C 
ATOM     21  O   UNL     1      26.952  22.026  20.534  0.00  0.00    -0.270 OA
ATOM     22  H   UNL     1      25.217  23.561  19.730  0.00  0.00    +0.145 HD
ATOM     23  H   UNL     1      25.864  23.773  18.139  0.00  0.00    +0.145 HD
ENDBRANCH  13  20
ENDBRANCH   1  16
TORSDOF 2
ENDMDL
MODEL 5
REMARK VINA RESULT:      -6.8      2.344      3.650
REMARK  Name = ZINC000583127796
REMARK  2 active torsions:
REMARK  status: ('A' for Active; 'I' for Inactive)
REMARK    1  A    between atoms: C_2  and  C_4
REMARK    2  A    between atoms: C_7  and  C_8
REMARK                            x       y       z     vdW  Elec       q    Type
REMARK                         _______ _______ _______ _____ _____    ______ ____
ROOT
ATOM      1  C   UNL     1      30.103  21.790  17.689  0.00  0.00    +0.247 C 
ATOM      2  O   UNL     1      29.657  21.875  18.832  0.00  0.00    -0.270 OA
ATOM      3  N   UNL     1      30.768  22.852  17.054  0.00  0.00    -0.297 N 
ATOM      4  C   UNL     1      31.336  22.840  15.703  0.00  0.00    +0.108 C 
ATOM      5  C   UNL     1      32.803  23.234  15.689  0.00  0.00    +0.020 C 
ATOM      6  C   UNL     1      33.039  24.531  16.441  0.00  0.00    +0.011 C 
ATOM      7  C   UNL     1      32.446  24.515  17.872  0.00  0.00    -0.004 C 
ATOM      8  C   UNL     1      32.645  25.929  18.458  0.00  0.00    +0.020 C 
ATOM      9  C   UNL     1      32.650  25.862  19.970  0.00  0.00    +0.070 C 
ATOM     10  S   UNL     1      33.598  24.377  20.339  0.00  0.00    -0.160 S 
ATOM     11  C   UNL     1      33.208  23.526  18.785  0.00  0.00    +0.077 C 
ATOM     12  C   UNL     1      30.947  24.116  17.786  0.00  0.00    +0.115 C 
ENDROOT
BRANCH   1  16
ATOM     13  C   UNL     1      30.040  18.129  15.478  0.00  0.00    +0.037 A 
ATOM     14  C   UNL     1      28.866  18.882  15.584  0.00  0.00    +0.014 A 
ATOM     15  C   UNL     1      28.839  20.018  16.396  0.00  0.00    +0.014 A 
ATOM     16  C   UNL     1      30.009  20.462  17.022  0.00  0.00    +0.037 A 
ATOM     17  C   UNL     1      31.152  19.650  16.999  0.00  0.00    +0.014 A 
ATOM     18  C   UNL     1      31.163  18.478  16.237  0.00  0.00    +0.014 A 
BRANCH  13  20
ATOM     19  N   UNL     1      28.992  16.205  14.423  0.00  0.00    -0.325 N 
ATOM     20  C   UNL     1      30.124  16.957  14.569  0.00  0.00    +0.242 C 
ATOM     21  O   UNL     1      31.141  16.709  13.940  0.00  0.00    -0.270 OA
ATOM     22  H   UNL     1      29.026  15.491  13.705  0.00  0.00    +0.145 HD
ATOM     23  H   UNL     1      28.081  16.542  14.701  0.00  0.00    +0.145 HD
ENDBRANCH  13  20
ENDBRANCH   1  16
TORSDOF 2
ENDMDL
MODEL 6
REMARK VINA RESULT:      -6.8      4.787      6.853
REMARK  Name = ZINC000583127796
REMARK  2 active torsions:
REMARK  status: ('A' for Active; 'I' for Inactive)
REMARK    1  A    between atoms: C_2  and  C_4
REMARK    2  A    between atoms: C_7  and  C_8
REMARK                            x       y       z     vdW  Elec       q    Type
REMARK                         _______ _______ _______ _____ _____    ______ ____
ROOT
ATOM      1  C   UNL     1      31.733  23.679  15.070  0.00  0.00    +0.247 C 
ATOM      2  O   UNL     1      31.942  24.384  16.056  0.00  0.00    -0.270 OA
ATOM      3  N   UNL     1      31.226  22.373  15.165  0.00  0.00    -0.297 N 
ATOM      4  C   UNL     1      30.940  21.466  14.050  0.00  0.00    +0.108 C 
ATOM      5  C   UNL     1      29.513  20.948  14.077  0.00  0.00    +0.020 C 
ATOM      6  C   UNL     1      29.153  20.379  15.437  0.00  0.00    +0.011 C 
ATOM      7  C   UNL     1      29.446  21.359  16.599  0.00  0.00    -0.004 C 
ATOM      8  C   UNL     1      29.158  20.601  17.912  0.00  0.00    +0.020 C 
ATOM      9  C   UNL     1      28.848  21.589  19.017  0.00  0.00    +0.070 C 
ATOM     10  S   UNL     1      27.821  22.832  18.218  0.00  0.00    -0.160 S 
ATOM     11  C   UNL     1      28.500  22.582  16.554  0.00  0.00    +0.077 C 
ATOM     12  C   UNL     1      30.926  21.823  16.497  0.00  0.00    +0.115 C 
ENDROOT
BRANCH   1  16
ATOM     13  C   UNL     1      32.617  25.677  11.392  0.00  0.00    +0.037 A 
ATOM     14  C   UNL     1      31.467  26.035  12.104  0.00  0.00    +0.014 A 
ATOM     15  C   UNL     1      31.102  25.314  13.245  0.00  0.00    +0.014 A 
ATOM     16  C   UNL     1      31.937  24.306  13.734  0.00  0.00    +0.037 A 
ATOM     17  C   UNL     1      33.030  23.882  12.964  0.00  0.00    +0.014 A 
ATOM     18  C   UNL     1      33.361  24.560  11.788  0.00  0.00    +0.014 A 
BRANCH  13  20
ATOM     19  N   UNL     1      33.094  25.821   9.012  0.00  0.00    -0.325 N 
ATOM     20  C   UNL     1      33.071  26.465  10.218  0.00  0.00    +0.242 C 
ATOM     21  O   UNL     1      33.360  27.648  10.316  0.00  0.00    -0.270 OA
ATOM     22  H   UNL     1      33.280  26.404   8.204  0.00  0.00    +0.145 HD
ATOM     23  H   UNL     1      32.603  24.952   8.856  0.00  0.00    +0.145 HD
ENDBRANCH  13  20
ENDBRANCH   1  16
TORSDOF 2
ENDMDL
MODEL 7
REMARK VINA RESULT:      -6.8      3.147      6.820
REMARK  Name = ZINC000583127796
REMARK  2 active torsions:
REMARK  status: ('A' for Active; 'I' for Inactive)
REMARK    1  A    between atoms: C_2  and  C_4
REMARK    2  A    between atoms: C_7  and  C_8
REMARK                            x       y       z     vdW  Elec       q    Type
REMARK                         _______ _______ _______ _____ _____    ______ ____
ROOT
ATOM      1  C   UNL     1      30.892  19.952  15.167  0.00  0.00    +0.247 C 
ATOM      2  O   UNL     1      31.014  20.585  14.119  0.00  0.00    -0.270 OA
ATOM      3  N   UNL     1      31.610  18.773  15.428  0.00  0.00    -0.297 N 
ATOM      4  C   UNL     1      31.535  17.959  16.645  0.00  0.00    +0.108 C 
ATOM      5  C   UNL     1      32.898  17.739  17.277  0.00  0.00    +0.020 C 
ATOM      6  C   UNL     1      33.907  17.233  16.263  0.00  0.00    +0.011 C 
ATOM      7  C   UNL     1      33.983  18.116  14.993  0.00  0.00    -0.004 C 
ATOM      8  C   UNL     1      34.941  17.412  14.010  0.00  0.00    +0.020 C 
ATOM      9  C   UNL     1      35.523  18.424  13.046  0.00  0.00    +0.070 C 
ATOM     10  S   UNL     1      35.865  19.861  14.075  0.00  0.00    -0.160 S 
ATOM     11  C   UNL     1      34.585  19.505  15.310  0.00  0.00    +0.077 C 
ATOM     12  C   UNL     1      32.551  18.275  14.411  0.00  0.00    +0.115 C 
ENDROOT
BRANCH   1  16
ATOM     13  C   UNL     1      28.575  21.424  18.447  0.00  0.00    +0.037 A 
ATOM     14  C   UNL     1      27.969  20.586  17.505  0.00  0.00    +0.014 A 
ATOM     15  C   UNL     1      28.677  20.190  16.368  0.00  0.00    +0.014 A 
ATOM     16  C   UNL     1      30.022  20.545  16.220  0.00  0.00    +0.037 A 
ATOM     17  C   UNL     1      30.592  21.467  17.108  0.00  0.00    +0.014 A 
ATOM     18  C   UNL     1      29.865  21.915  18.214  0.00  0.00    +0.014 A 
BRANCH  13  20
ATOM     19  N   UNL     1      26.684  22.460  19.570  0.00  0.00    -0.325 N 
ATOM     20  C   UNL     1      27.876  21.805  19.701  0.00  0.00    +0.242 C 
ATOM     21  O   UNL     1      28.321  21.501  20.797  0.00  0.00    -0.270 OA
ATOM     22  H   UNL     1      26.159  22.598  20.426  0.00  0.00    +0.145 HD
ATOM     23  H   UNL     1      26.168  22.472  18.701  0.00  0.00    +0.145 HD
ENDBRANCH  13  20
ENDBRANCH   1  16
TORSDOF 2
ENDMDL
MODEL 8
REMARK VINA RESULT:      -6.7      1.568      1.982
REMARK  Name = ZINC000583127796
REMARK  2 active torsions:
REMARK  status: ('A' for Active; 'I' for Inactive)
REMARK    1  A    between atoms: C_2  and  C_4
REMARK    2  A    between atoms: C_7  and  C_8
REMARK                            x       y       z     vdW  Elec       q    Type
REMARK                         _______ _______ _______ _____ _____    ______ ____
ROOT
ATOM      1  C   UNL     1      31.428  19.606  16.544  0.00  0.00    +0.247 C 
ATOM      2  O   UNL     1      32.368  19.962  17.254  0.00  0.00    -0.270 OA
ATOM      3  N   UNL     1      30.109  20.035  16.762  0.00  0.00    -0.297 N 
ATOM      4  C   UNL     1      28.932  19.671  15.968  0.00  0.00    +0.108 C 
ATOM      5  C   UNL     1      28.180  20.887  15.458  0.00  0.00    +0.020 C 
ATOM      6  C   UNL     1      27.883  21.869  16.576  0.00  0.00    +0.011 C 
ATOM      7  C   UNL     1      29.143  22.254  17.391  0.00  0.00    -0.004 C 
ATOM      8  C   UNL     1      28.669  23.142  18.562  0.00  0.00    +0.020 C 
ATOM      9  C   UNL     1      29.810  24.015  19.038  0.00  0.00    +0.070 C 
ATOM     10  S   UNL     1      30.623  24.539  17.521  0.00  0.00    -0.160 S 
ATOM     11  C   UNL     1      30.125  23.093  16.543  0.00  0.00    +0.077 C 
ATOM     12  C   UNL     1      29.836  20.952  17.881  0.00  0.00    +0.115 C 
ENDROOT
BRANCH   1  16
ATOM     13  C   UNL     1      32.513  16.949  13.372  0.00  0.00    +0.037 A 
ATOM     14  C   UNL     1      33.253  18.120  13.564  0.00  0.00    +0.014 A 
ATOM     15  C   UNL     1      32.843  19.054  14.519  0.00  0.00    +0.014 A 
ATOM     16  C   UNL     1      31.756  18.774  15.353  0.00  0.00    +0.037 A 
ATOM     17  C   UNL     1      30.957  17.652  15.089  0.00  0.00    +0.014 A 
ATOM     18  C   UNL     1      31.329  16.747  14.091  0.00  0.00    +0.014 A 
BRANCH  13  20
ATOM     19  N   UNL     1      34.255  15.973  11.984  0.00  0.00    -0.325 N 
ATOM     20  C   UNL     1      32.960  15.903  12.416  0.00  0.00    +0.242 C 
ATOM     21  O   UNL     1      32.220  14.994  12.074  0.00  0.00    -0.270 OA
ATOM     22  H   UNL     1      34.580  15.184  11.438  0.00  0.00    +0.145 HD
ATOM     23  H   UNL     1      34.951  16.531  12.457  0.00  0.00    +0.145 HD
ENDBRANCH  13  20
ENDBRANCH   1  16
TORSDOF 2
ENDMDL
MODEL 9
REMARK VINA RESULT:      -6.5      2.615      3.391
REMARK  Name = ZINC000583127796
REMARK  2 active torsions:
REMARK  status: ('A' for Active; 'I' for Inactive)
REMARK    1  A    between atoms: C_2  and  C_4
REMARK    2  A    between atoms: C_7  and  C_8
REMARK                            x       y       z     vdW  Elec       q    Type
REMARK                         _______ _______ _______ _____ _____    ______ ____
ROOT
ATOM      1  C   UNL     1      33.014  18.161  15.496  0.00  0.00    +0.247 C 
ATOM      2  O   UNL     1      33.889  19.007  15.667  0.00  0.00    -0.270 OA
ATOM      3  N   UNL     1      31.716  18.296  16.017  0.00  0.00    -0.297 N 
ATOM      4  C   UNL     1      30.611  17.346  15.860  0.00  0.00    +0.108 C 
ATOM      5  C   UNL     1      29.367  17.997  15.283  0.00  0.00    +0.020 C 
ATOM      6  C   UNL     1      28.990  19.253  16.047  0.00  0.00    +0.011 C 
ATOM      7  C   UNL     1      30.167  20.251  16.186  0.00  0.00    -0.004 C 
ATOM      8  C   UNL     1      29.676  21.403  17.088  0.00  0.00    +0.020 C 
ATOM      9  C   UNL     1      30.488  22.651  16.813  0.00  0.00    +0.070 C 
ATOM     10  S   UNL     1      30.681  22.663  15.024  0.00  0.00    -0.160 S 
ATOM     11  C   UNL     1      30.546  20.865  14.818  0.00  0.00    +0.077 C 
ATOM     12  C   UNL     1      31.385  19.502  16.793  0.00  0.00    +0.115 C 
ENDROOT
BRANCH   1  16
ATOM     13  C   UNL     1      34.297  15.051  12.855  0.00  0.00    +0.037 A 
ATOM     14  C   UNL     1      33.226  15.867  12.477  0.00  0.00    +0.014 A 
ATOM     15  C   UNL     1      32.720  16.810  13.376  0.00  0.00    +0.014 A 
ATOM     16  C   UNL     1      33.347  17.011  14.610  0.00  0.00    +0.037 A 
ATOM     17  C   UNL     1      34.349  16.123  15.025  0.00  0.00    +0.014 A 
ATOM     18  C   UNL     1      34.816  15.137  14.152  0.00  0.00    +0.014 A 
BRANCH  13  20
ATOM     19  N   UNL     1      34.252  12.901  11.719  0.00  0.00    -0.325 N 
ATOM     20  C   UNL     1      34.905  14.088  11.900  0.00  0.00    +0.242 C 
ATOM     21  O   UNL     1      35.912  14.366  11.267  0.00  0.00    -0.270 OA
ATOM     22  H   UNL     1      34.605  12.312  10.974  0.00  0.00    +0.145 HD
ATOM     23  H   UNL     1      33.293  12.764  12.006  0.00  0.00    +0.145 HD
ENDBRANCH  13  20
ENDBRANCH   1  16
TORSDOF 2
ENDMDL
