MODEL 1
REMARK VINA RESULT:      -7.0      0.000      0.000
REMARK  Name = ZINC000560333501
REMARK  5 active torsions:
REMARK  status: ('A' for Active; 'I' for Inactive)
REMARK    1  A    between atoms: C_2  and  C_3
REMARK    2  A    between atoms: C_7  and  C_8
REMARK    3  A    between atoms: C_8  and  C_9
REMARK    4  A    between atoms: N_11  and  C_12
REMARK    5  A    between atoms: C_12  and  C_13
REMARK                            x       y       z     vdW  Elec       q    Type
REMARK                         _______ _______ _______ _____ _____    ______ ____
ROOT
ATOM      1  C   UNL     1      14.093   6.719   6.894  0.00  0.00    +0.217 C 
ATOM      2  O   UNL     1      14.789   7.227   6.011  0.00  0.00    -0.275 OA
ATOM      3  N   UNL     1      13.577   5.437   6.808  0.00  0.00    -0.315 N 
ATOM      4  H   UNL     1      13.287   5.017   7.682  0.00  0.00    +0.149 HD
ENDROOT
BRANCH   1   5
ATOM      5  C   UNL     1      13.751   7.486   8.149  0.00  0.00    +0.131 C 
BRANCH   5  10
ATOM      6  C   UNL     1      12.153   5.751  11.172  0.00  0.00    +0.052 A 
ATOM      7  C   UNL     1      13.204   4.928  11.593  0.00  0.00    +0.019 A 
ATOM      8  C   UNL     1      14.423   4.956  10.917  0.00  0.00    +0.002 A 
ATOM      9  C   UNL     1      14.599   5.807   9.824  0.00  0.00    +0.004 A 
ATOM     10  C   UNL     1      13.561   6.644   9.392  0.00  0.00    -0.037 A 
ATOM     11  C   UNL     1      12.332   6.602  10.072  0.00  0.00    +0.023 A 
BRANCH   6  13
ATOM     12  N   UNL     1       9.877   5.664  12.414  0.00  0.00    -0.191 NA
ATOM     13  C   UNL     1      10.894   5.707  11.856  0.00  0.00    +0.099 C 
ENDBRANCH   6  13
ENDBRANCH   5  10
ENDBRANCH   1   5
BRANCH   3  14
ATOM     14  C   UNL     1      14.129   4.542   5.806  0.00  0.00    +0.108 C 
BRANCH  14  15
ATOM     15  C   UNL     1      15.530   3.971   6.093  0.00  0.00    +0.011 C 
ATOM     16  C   UNL     1      15.940   2.853   5.140  0.00  0.00    +0.033 C 
ATOM     17  C   UNL     1      14.976   1.680   5.241  0.00  0.00    +0.161 C 
ATOM     18  O   UNL     1      14.715   1.267   6.580  0.00  0.00    -0.373 OA
ATOM     19  C   UNL     1      14.593   2.229   7.667  0.00  0.00    +0.070 C 
ATOM     20  C   UNL     1      13.156   2.703   8.082  0.00  0.00    +0.035 C 
ATOM     21  C   UNL     1      13.082   1.513   9.039  0.00  0.00    +0.006 C 
ATOM     22  C   UNL     1      14.623   1.515   9.061  0.00  0.00    +0.035 C 
ATOM     23  C   UNL     1      15.599   3.377   7.516  0.00  0.00    +0.040 C 
ENDBRANCH  14  15
ENDBRANCH   3  14
TORSDOF 5
ENDMDL
MODEL 2
REMARK VINA RESULT:      -6.9      1.156      2.754
REMARK  Name = ZINC000560333501
REMARK  5 active torsions:
REMARK  status: ('A' for Active; 'I' for Inactive)
REMARK    1  A    between atoms: C_2  and  C_3
REMARK    2  A    between atoms: C_7  and  C_8
REMARK    3  A    between atoms: C_8  and  C_9
REMARK    4  A    between atoms: N_11  and  C_12
REMARK    5  A    between atoms: C_12  and  C_13
REMARK                            x       y       z     vdW  Elec       q    Type
REMARK                         _______ _______ _______ _____ _____    ______ ____
ROOT
ATOM      1  C   UNL     1      14.051   6.692   6.852  0.00  0.00    +0.217 C 
ATOM      2  O   UNL     1      15.001   7.021   6.137  0.00  0.00    -0.275 OA
ATOM      3  N   UNL     1      13.241   5.603   6.581  0.00  0.00    -0.315 N 
ATOM      4  H   UNL     1      12.700   5.248   7.361  0.00  0.00    +0.149 HD
ENDROOT
BRANCH   1   5
ATOM      5  C   UNL     1      13.705   7.482   8.092  0.00  0.00    +0.131 C 
BRANCH   5  10
ATOM      6  C   UNL     1      12.105   5.796  11.142  0.00  0.00    +0.052 A 
ATOM      7  C   UNL     1      13.157   4.985  11.581  0.00  0.00    +0.019 A 
ATOM      8  C   UNL     1      14.378   5.005  10.908  0.00  0.00    +0.002 A 
ATOM      9  C   UNL     1      14.555   5.836   9.800  0.00  0.00    +0.004 A 
ATOM     10  C   UNL     1      13.514   6.661   9.350  0.00  0.00    -0.037 A 
ATOM     11  C   UNL     1      12.284   6.627  10.027  0.00  0.00    +0.023 A 
BRANCH   6  13
ATOM     12  N   UNL     1       9.827   5.731  12.382  0.00  0.00    -0.191 NA
ATOM     13  C   UNL     1      10.844   5.760  11.823  0.00  0.00    +0.099 C 
ENDBRANCH   6  13
ENDBRANCH   5  10
ENDBRANCH   1   5
BRANCH   3  14
ATOM     14  C   UNL     1      13.708   4.625   5.614  0.00  0.00    +0.108 C 
BRANCH  14  15
ATOM     15  C   UNL     1      13.853   3.177   6.117  0.00  0.00    +0.011 C 
ATOM     16  C   UNL     1      14.815   3.033   7.293  0.00  0.00    +0.033 C 
ATOM     17  C   UNL     1      16.213   3.487   6.902  0.00  0.00    +0.161 C 
ATOM     18  O   UNL     1      16.674   2.931   5.673  0.00  0.00    -0.373 OA
ATOM     19  C   UNL     1      15.778   2.730   4.541  0.00  0.00    +0.070 C 
ATOM     20  C   UNL     1      15.731   3.832   3.426  0.00  0.00    +0.035 C 
ATOM     21  C   UNL     1      16.886   3.117   2.725  0.00  0.00    +0.006 C 
ATOM     22  C   UNL     1      16.445   1.829   3.446  0.00  0.00    +0.035 C 
ATOM     23  C   UNL     1      14.392   2.259   4.999  0.00  0.00    +0.040 C 
ENDBRANCH  14  15
ENDBRANCH   3  14
TORSDOF 5
ENDMDL
MODEL 3
REMARK VINA RESULT:      -6.9      2.415      5.607
REMARK  Name = ZINC000560333501
REMARK  5 active torsions:
REMARK  status: ('A' for Active; 'I' for Inactive)
REMARK    1  A    between atoms: C_2  and  C_3
REMARK    2  A    between atoms: C_7  and  C_8
REMARK    3  A    between atoms: C_8  and  C_9
REMARK    4  A    between atoms: N_11  and  C_12
REMARK    5  A    between atoms: C_12  and  C_13
REMARK                            x       y       z     vdW  Elec       q    Type
REMARK                         _______ _______ _______ _____ _____    ______ ____
ROOT
ATOM      1  C   UNL     1      13.469   3.668   6.196  0.00  0.00    +0.217 C 
ATOM      2  O   UNL     1      12.757   2.661   6.168  0.00  0.00    -0.275 OA
ATOM      3  N   UNL     1      13.050   4.878   6.723  0.00  0.00    -0.315 N 
ATOM      4  H   UNL     1      13.784   5.531   6.969  0.00  0.00    +0.149 HD
ENDROOT
BRANCH   1   5
ATOM      5  C   UNL     1      14.873   3.640   5.640  0.00  0.00    +0.131 C 
BRANCH   5  10
ATOM      6  C   UNL     1      17.345   3.920   8.558  0.00  0.00    +0.052 A 
ATOM      7  C   UNL     1      17.857   2.618   8.600  0.00  0.00    +0.019 A 
ATOM      8  C   UNL     1      17.421   1.669   7.676  0.00  0.00    +0.002 A 
ATOM      9  C   UNL     1      16.479   2.017   6.706  0.00  0.00    +0.004 A 
ATOM     10  C   UNL     1      15.960   3.318   6.643  0.00  0.00    -0.037 A 
ATOM     11  C   UNL     1      16.397   4.265   7.585  0.00  0.00    +0.023 A 
BRANCH   6  13
ATOM     12  N   UNL     1      18.125   5.677  10.300  0.00  0.00    -0.191 NA
ATOM     13  C   UNL     1      17.780   4.888   9.521  0.00  0.00    +0.099 C 
ENDBRANCH   6  13
ENDBRANCH   5  10
ENDBRANCH   1   5
BRANCH   3  14
ATOM     14  C   UNL     1      11.862   4.887   7.557  0.00  0.00    +0.108 C 
BRANCH  14  15
ATOM     15  C   UNL     1      11.136   6.238   7.705  0.00  0.00    +0.011 C 
ATOM     16  C   UNL     1      12.021   7.442   7.394  0.00  0.00    +0.033 C 
ATOM     17  C   UNL     1      13.210   7.494   8.342  0.00  0.00    +0.161 C 
ATOM     18  O   UNL     1      12.855   7.343   9.714  0.00  0.00    -0.373 OA
ATOM     19  C   UNL     1      11.802   6.428  10.136  0.00  0.00    +0.070 C 
ATOM     20  C   UNL     1      12.212   4.994  10.619  0.00  0.00    +0.035 C 
ATOM     21  C   UNL     1      12.378   5.558  12.030  0.00  0.00    +0.006 C 
ATOM     22  C   UNL     1      11.400   6.679  11.630  0.00  0.00    +0.035 C 
ATOM     23  C   UNL     1      10.628   6.432   9.149  0.00  0.00    +0.040 C 
ENDBRANCH  14  15
ENDBRANCH   3  14
TORSDOF 5
ENDMDL
MODEL 4
REMARK VINA RESULT:      -6.8      1.767      3.970
REMARK  Name = ZINC000560333501
REMARK  5 active torsions:
REMARK  status: ('A' for Active; 'I' for Inactive)
REMARK    1  A    between atoms: C_2  and  C_3
REMARK    2  A    between atoms: C_7  and  C_8
REMARK    3  A    between atoms: C_8  and  C_9
REMARK    4  A    between atoms: N_11  and  C_12
REMARK    5  A    between atoms: C_12  and  C_13
REMARK                            x       y       z     vdW  Elec       q    Type
REMARK                         _______ _______ _______ _____ _____    ______ ____
ROOT
ATOM      1  C   UNL     1      14.915   2.380   7.929  0.00  0.00    +0.217 C 
ATOM      2  O   UNL     1      15.110   1.408   7.195  0.00  0.00    -0.275 OA
ATOM      3  N   UNL     1      15.396   3.648   7.650  0.00  0.00    -0.315 N 
ATOM      4  H   UNL     1      14.941   4.411   8.137  0.00  0.00    +0.149 HD
ENDROOT
BRANCH   1   5
ATOM      5  C   UNL     1      14.126   2.239   9.209  0.00  0.00    +0.131 C 
BRANCH   5  10
ATOM      6  C   UNL     1      11.400   4.932   9.334  0.00  0.00    +0.052 A 
ATOM      7  C   UNL     1      11.756   5.619  10.501  0.00  0.00    +0.019 A 
ATOM      8  C   UNL     1      12.883   5.225  11.222  0.00  0.00    +0.002 A 
ATOM      9  C   UNL     1      13.658   4.151  10.781  0.00  0.00    +0.004 A 
ATOM     10  C   UNL     1      13.321   3.456   9.611  0.00  0.00    -0.037 A 
ATOM     11  C   UNL     1      12.178   3.852   8.896  0.00  0.00    +0.023 A 
BRANCH   6  13
ATOM     12  N   UNL     1       9.281   5.636   8.013  0.00  0.00    -0.191 NA
ATOM     13  C   UNL     1      10.231   5.325   8.605  0.00  0.00    +0.099 C 
ENDBRANCH   6  13
ENDBRANCH   5  10
ENDBRANCH   1   5
BRANCH   3  14
ATOM     14  C   UNL     1      15.865   3.922   6.304  0.00  0.00    +0.108 C 
BRANCH  14  15
ATOM     15  C   UNL     1      14.796   3.945   5.195  0.00  0.00    +0.011 C 
ATOM     16  C   UNL     1      15.261   4.629   3.913  0.00  0.00    +0.033 C 
ATOM     17  C   UNL     1      15.624   6.082   4.180  0.00  0.00    +0.161 C 
ATOM     18  O   UNL     1      14.634   6.793   4.920  0.00  0.00    -0.373 OA
ATOM     19  C   UNL     1      13.885   6.162   5.998  0.00  0.00    +0.070 C 
ATOM     20  C   UNL     1      14.388   6.365   7.470  0.00  0.00    +0.035 C 
ATOM     21  C   UNL     1      13.545   7.638   7.541  0.00  0.00    +0.006 C 
ATOM     22  C   UNL     1      12.662   7.042   6.428  0.00  0.00    +0.035 C 
ATOM     23  C   UNL     1      13.537   4.706   5.663  0.00  0.00    +0.040 C 
ENDBRANCH  14  15
ENDBRANCH   3  14
TORSDOF 5
ENDMDL
MODEL 5
REMARK VINA RESULT:      -6.7      2.500      4.323
REMARK  Name = ZINC000560333501
REMARK  5 active torsions:
REMARK  status: ('A' for Active; 'I' for Inactive)
REMARK    1  A    between atoms: C_2  and  C_3
REMARK    2  A    between atoms: C_7  and  C_8
REMARK    3  A    between atoms: C_8  and  C_9
REMARK    4  A    between atoms: N_11  and  C_12
REMARK    5  A    between atoms: C_12  and  C_13
REMARK                            x       y       z     vdW  Elec       q    Type
REMARK                         _______ _______ _______ _____ _____    ______ ____
ROOT
ATOM      1  C   UNL     1      14.704   5.425   9.561  0.00  0.00    +0.217 C 
ATOM      2  O   UNL     1      15.868   5.816   9.439  0.00  0.00    -0.275 OA
ATOM      3  N   UNL     1      13.628   6.053   8.959  0.00  0.00    -0.315 N 
ATOM      4  H   UNL     1      12.784   5.500   8.872  0.00  0.00    +0.149 HD
ENDROOT
BRANCH   1   5
ATOM      5  C   UNL     1      14.378   4.211  10.398  0.00  0.00    +0.131 C 
BRANCH   5  10
ATOM      6  C   UNL     1      13.490   4.377  14.125  0.00  0.00    +0.052 A 
ATOM      7  C   UNL     1      12.357   5.197  14.093  0.00  0.00    +0.019 A 
ATOM      8  C   UNL     1      11.874   5.668  12.873  0.00  0.00    +0.002 A 
ATOM      9  C   UNL     1      12.516   5.321  11.683  0.00  0.00    +0.004 A 
ATOM     10  C   UNL     1      13.649   4.495  11.694  0.00  0.00    -0.037 A 
ATOM     11  C   UNL     1      14.135   4.033  12.929  0.00  0.00    +0.023 A 
BRANCH   6  13
ATOM     12  N   UNL     1      14.415   3.533  16.397  0.00  0.00    -0.191 NA
ATOM     13  C   UNL     1      13.997   3.909  15.381  0.00  0.00    +0.099 C 
ENDBRANCH   6  13
ENDBRANCH   5  10
ENDBRANCH   1   5
BRANCH   3  14
ATOM     14  C   UNL     1      13.897   7.003   7.894  0.00  0.00    +0.108 C 
BRANCH  14  15
ATOM     15  C   UNL     1      12.767   7.227   6.872  0.00  0.00    +0.011 C 
ATOM     16  C   UNL     1      11.567   6.307   7.077  0.00  0.00    +0.033 C 
ATOM     17  C   UNL     1      11.979   4.849   6.940  0.00  0.00    +0.161 C 
ATOM     18  O   UNL     1      12.754   4.580   5.775  0.00  0.00    -0.373 OA
ATOM     19  C   UNL     1      13.749   5.524   5.283  0.00  0.00    +0.070 C 
ATOM     20  C   UNL     1      15.246   5.310   5.698  0.00  0.00    +0.035 C 
ATOM     21  C   UNL     1      15.413   4.399   4.482  0.00  0.00    +0.006 C 
ATOM     22  C   UNL     1      14.226   5.142   3.840  0.00  0.00    +0.035 C 
ATOM     23  C   UNL     1      13.269   6.973   5.435  0.00  0.00    +0.040 C 
ENDBRANCH  14  15
ENDBRANCH   3  14
TORSDOF 5
ENDMDL
MODEL 6
REMARK VINA RESULT:      -6.7      2.476      4.020
REMARK  Name = ZINC000560333501
REMARK  5 active torsions:
REMARK  status: ('A' for Active; 'I' for Inactive)
REMARK    1  A    between atoms: C_2  and  C_3
REMARK    2  A    between atoms: C_7  and  C_8
REMARK    3  A    between atoms: C_8  and  C_9
REMARK    4  A    between atoms: N_11  and  C_12
REMARK    5  A    between atoms: C_12  and  C_13
REMARK                            x       y       z     vdW  Elec       q    Type
REMARK                         _______ _______ _______ _____ _____    ______ ____
ROOT
ATOM      1  C   UNL     1      14.373   4.825   9.154  0.00  0.00    +0.217 C 
ATOM      2  O   UNL     1      14.988   5.847   8.839  0.00  0.00    -0.275 OA
ATOM      3  N   UNL     1      13.343   4.297   8.396  0.00  0.00    -0.315 N 
ATOM      4  H   UNL     1      13.117   3.325   8.572  0.00  0.00    +0.149 HD
ENDROOT
BRANCH   1   5
ATOM      5  C   UNL     1      14.716   4.074  10.419  0.00  0.00    +0.131 C 
BRANCH   5  10
ATOM      6  C   UNL     1      13.452   4.369  14.027  0.00  0.00    +0.052 A 
ATOM      7  C   UNL     1      12.352   5.217  13.856  0.00  0.00    +0.019 A 
ATOM      8  C   UNL     1      12.012   5.666  12.581  0.00  0.00    +0.002 A 
ATOM      9  C   UNL     1      12.764   5.268  11.474  0.00  0.00    +0.004 A 
ATOM     10  C   UNL     1      13.865   4.413  11.625  0.00  0.00    -0.037 A 
ATOM     11  C   UNL     1      14.207   3.974  12.915  0.00  0.00    +0.023 A 
BRANCH   6  13
ATOM     12  N   UNL     1      14.110   3.560  16.403  0.00  0.00    -0.191 NA
ATOM     13  C   UNL     1      13.811   3.924  15.342  0.00  0.00    +0.099 C 
ENDBRANCH   6  13
ENDBRANCH   5  10
ENDBRANCH   1   5
BRANCH   3  14
ATOM     14  C   UNL     1      13.187   4.766   7.031  0.00  0.00    +0.108 C 
BRANCH  14  15
ATOM     15  C   UNL     1      12.974   3.685   5.954  0.00  0.00    +0.011 C 
ATOM     16  C   UNL     1      13.855   2.453   6.143  0.00  0.00    +0.033 C 
ATOM     17  C   UNL     1      15.327   2.831   6.077  0.00  0.00    +0.161 C 
ATOM     18  O   UNL     1      15.660   3.646   4.956  0.00  0.00    -0.373 OA
ATOM     19  C   UNL     1      14.761   4.685   4.472  0.00  0.00    +0.070 C 
ATOM     20  C   UNL     1      14.996   6.158   4.957  0.00  0.00    +0.035 C 
ATOM     21  C   UNL     1      15.957   6.350   3.784  0.00  0.00    +0.006 C 
ATOM     22  C   UNL     1      15.209   5.211   3.065  0.00  0.00    +0.035 C 
ATOM     23  C   UNL     1      13.295   4.239   4.550  0.00  0.00    +0.040 C 
ENDBRANCH  14  15
ENDBRANCH   3  14
TORSDOF 5
ENDMDL
MODEL 7
REMARK VINA RESULT:      -6.6      2.266      3.657
REMARK  Name = ZINC000560333501
REMARK  5 active torsions:
REMARK  status: ('A' for Active; 'I' for Inactive)
REMARK    1  A    between atoms: C_2  and  C_3
REMARK    2  A    between atoms: C_7  and  C_8
REMARK    3  A    between atoms: C_8  and  C_9
REMARK    4  A    between atoms: N_11  and  C_12
REMARK    5  A    between atoms: C_12  and  C_13
REMARK                            x       y       z     vdW  Elec       q    Type
REMARK                         _______ _______ _______ _____ _____    ______ ____
ROOT
ATOM      1  C   UNL     1      14.813   3.818   9.899  0.00  0.00    +0.217 C 
ATOM      2  O   UNL     1      14.517   2.650   9.635  0.00  0.00    -0.275 OA
ATOM      3  N   UNL     1      15.558   4.621   9.053  0.00  0.00    -0.315 N 
ATOM      4  H   UNL     1      15.489   5.618   9.214  0.00  0.00    +0.149 HD
ENDROOT
BRANCH   1   5
ATOM      5  C   UNL     1      14.371   4.455  11.196  0.00  0.00    +0.131 C 
BRANCH   5  10
ATOM      6  C   UNL     1      10.904   5.609  10.031  0.00  0.00    +0.052 A 
ATOM      7  C   UNL     1      10.315   5.957  11.252  0.00  0.00    +0.019 A 
ATOM      8  C   UNL     1      11.044   5.840  12.434  0.00  0.00    +0.002 A 
ATOM      9  C   UNL     1      12.363   5.382  12.403  0.00  0.00    +0.004 A 
ATOM     10  C   UNL     1      12.973   5.036  11.189  0.00  0.00    -0.037 A 
ATOM     11  C   UNL     1      12.227   5.146  10.003  0.00  0.00    +0.023 A 
BRANCH   6  13
ATOM     12  N   UNL     1       9.539   5.788   7.832  0.00  0.00    -0.191 NA
ATOM     13  C   UNL     1      10.147   5.710   8.818  0.00  0.00    +0.099 C 
ENDBRANCH   6  13
ENDBRANCH   5  10
ENDBRANCH   1   5
BRANCH   3  14
ATOM     14  C   UNL     1      15.727   4.192   7.676  0.00  0.00    +0.108 C 
BRANCH  14  15
ATOM     15  C   UNL     1      14.955   4.991   6.609  0.00  0.00    +0.011 C 
ATOM     16  C   UNL     1      13.458   4.695   6.590  0.00  0.00    +0.033 C 
ATOM     17  C   UNL     1      13.205   3.226   6.285  0.00  0.00    +0.161 C 
ATOM     18  O   UNL     1      13.931   2.742   5.157  0.00  0.00    -0.373 OA
ATOM     19  C   UNL     1      15.294   3.177   4.881  0.00  0.00    +0.070 C 
ATOM     20  C   UNL     1      16.478   2.277   5.378  0.00  0.00    +0.035 C 
ATOM     21  C   UNL     1      16.388   1.500   4.065  0.00  0.00    +0.006 C 
ATOM     22  C   UNL     1      15.742   2.752   3.441  0.00  0.00    +0.035 C 
ATOM     23  C   UNL     1      15.480   4.667   5.194  0.00  0.00    +0.040 C 
ENDBRANCH  14  15
ENDBRANCH   3  14
TORSDOF 5
ENDMDL
MODEL 8
REMARK VINA RESULT:      -6.6      2.542      5.403
REMARK  Name = ZINC000560333501
REMARK  5 active torsions:
REMARK  status: ('A' for Active; 'I' for Inactive)
REMARK    1  A    between atoms: C_2  and  C_3
REMARK    2  A    between atoms: C_7  and  C_8
REMARK    3  A    between atoms: C_8  and  C_9
REMARK    4  A    between atoms: N_11  and  C_12
REMARK    5  A    between atoms: C_12  and  C_13
REMARK                            x       y       z     vdW  Elec       q    Type
REMARK                         _______ _______ _______ _____ _____    ______ ____
ROOT
ATOM      1  C   UNL     1      13.770   4.211   5.445  0.00  0.00    +0.217 C 
ATOM      2  O   UNL     1      12.767   3.950   4.776  0.00  0.00    -0.275 OA
ATOM      3  N   UNL     1      13.784   5.165   6.448  0.00  0.00    -0.315 N 
ATOM      4  H   UNL     1      14.540   5.091   7.118  0.00  0.00    +0.149 HD
ENDROOT
BRANCH   1   5
ATOM      5  C   UNL     1      15.074   3.489   5.201  0.00  0.00    +0.131 C 
BRANCH   5  10
ATOM      6  C   UNL     1      17.244   2.517   8.209  0.00  0.00    +0.052 A 
ATOM      7  C   UNL     1      16.534   1.418   8.707  0.00  0.00    +0.019 A 
ATOM      8  C   UNL     1      15.378   0.986   8.057  0.00  0.00    +0.002 A 
ATOM      9  C   UNL     1      14.931   1.642   6.909  0.00  0.00    +0.004 A 
ATOM     10  C   UNL     1      15.633   2.740   6.392  0.00  0.00    -0.037 A 
ATOM     11  C   UNL     1      16.791   3.177   7.058  0.00  0.00    +0.023 A 
BRANCH   6  13
ATOM     12  N   UNL     1      19.369   3.346   9.444  0.00  0.00    -0.191 NA
ATOM     13  C   UNL     1      18.421   2.972   8.889  0.00  0.00    +0.099 C 
ENDBRANCH   6  13
ENDBRANCH   5  10
ENDBRANCH   1   5
BRANCH   3  14
ATOM     14  C   UNL     1      12.511   5.649   6.952  0.00  0.00    +0.108 C 
BRANCH  14  15
ATOM     15  C   UNL     1      11.601   4.608   7.630  0.00  0.00    +0.011 C 
ATOM     16  C   UNL     1      10.505   5.226   8.494  0.00  0.00    +0.033 C 
ATOM     17  C   UNL     1      11.111   6.054   9.617  0.00  0.00    +0.161 C 
ATOM     18  O   UNL     1      12.139   5.379  10.337  0.00  0.00    -0.373 OA
ATOM     19  C   UNL     1      13.092   4.502   9.668  0.00  0.00    +0.070 C 
ATOM     20  C   UNL     1      14.484   5.095   9.256  0.00  0.00    +0.035 C 
ATOM     21  C   UNL     1      15.011   4.720  10.641  0.00  0.00    +0.006 C 
ATOM     22  C   UNL     1      13.902   3.652  10.705  0.00  0.00    +0.035 C 
ATOM     23  C   UNL     1      12.419   3.685   8.558  0.00  0.00    +0.040 C 
ENDBRANCH  14  15
ENDBRANCH   3  14
TORSDOF 5
ENDMDL
MODEL 9
REMARK VINA RESULT:      -6.6      2.721      4.880
REMARK  Name = ZINC000560333501
REMARK  5 active torsions:
REMARK  status: ('A' for Active; 'I' for Inactive)
REMARK    1  A    between atoms: C_2  and  C_3
REMARK    2  A    between atoms: C_7  and  C_8
REMARK    3  A    between atoms: C_8  and  C_9
REMARK    4  A    between atoms: N_11  and  C_12
REMARK    5  A    between atoms: C_12  and  C_13
REMARK                            x       y       z     vdW  Elec       q    Type
REMARK                         _______ _______ _______ _____ _____    ______ ____
ROOT
ATOM      1  C   UNL     1      13.586   3.923   9.101  0.00  0.00    +0.217 C 
ATOM      2  O   UNL     1      12.407   3.566   9.043  0.00  0.00    -0.275 OA
ATOM      3  N   UNL     1      14.264   4.478   8.029  0.00  0.00    -0.315 N 
ATOM      4  H   UNL     1      15.101   5.000   8.257  0.00  0.00    +0.149 HD
ENDROOT
BRANCH   1   5
ATOM      5  C   UNL     1      14.381   3.767  10.377  0.00  0.00    +0.131 C 
BRANCH   5  10
ATOM      6  C   UNL     1      13.503   4.349  14.064  0.00  0.00    +0.052 A 
ATOM      7  C   UNL     1      12.481   5.298  13.948  0.00  0.00    +0.019 A 
ATOM      8  C   UNL     1      12.068   5.724  12.687  0.00  0.00    +0.002 A 
ATOM      9  C   UNL     1      12.667   5.203  11.539  0.00  0.00    +0.004 A 
ATOM     10  C   UNL     1      13.687   4.245  11.634  0.00  0.00    -0.037 A 
ATOM     11  C   UNL     1      14.106   3.829  12.909  0.00  0.00    +0.023 A 
BRANCH   6  13
ATOM     12  N   UNL     1      14.302   3.580  16.409  0.00  0.00    -0.191 NA
ATOM     13  C   UNL     1      13.941   3.926  15.362  0.00  0.00    +0.099 C 
ENDBRANCH   6  13
ENDBRANCH   5  10
ENDBRANCH   1   5
BRANCH   3  14
ATOM     14  C   UNL     1      13.486   4.955   6.900  0.00  0.00    +0.108 C 
BRANCH  14  15
ATOM     15  C   UNL     1      13.913   6.304   6.293  0.00  0.00    +0.011 C 
ATOM     16  C   UNL     1      14.607   7.229   7.289  0.00  0.00    +0.033 C 
ATOM     17  C   UNL     1      13.681   7.561   8.449  0.00  0.00    +0.161 C 
ATOM     18  O   UNL     1      12.380   7.979   8.042  0.00  0.00    -0.373 OA
ATOM     19  C   UNL     1      11.705   7.376   6.901  0.00  0.00    +0.070 C 
ATOM     20  C   UNL     1      10.684   6.216   7.169  0.00  0.00    +0.035 C 
ATOM     21  C   UNL     1       9.591   7.270   7.342  0.00  0.00    +0.006 C 
ATOM     22  C   UNL     1      10.450   8.213   6.479  0.00  0.00    +0.035 C 
ATOM     23  C   UNL     1      12.688   7.079   5.761  0.00  0.00    +0.040 C 
ENDBRANCH  14  15
ENDBRANCH   3  14
TORSDOF 5
ENDMDL
