MODEL 1
REMARK VINA RESULT:      -7.0      0.000      0.000
REMARK  Name = ZINC000329563636
REMARK  3 active torsions:
REMARK  status: ('A' for Active; 'I' for Inactive)
REMARK    1  A    between atoms: C_1  and  C_2
REMARK    2  A    between atoms: C_2  and  N_3
REMARK    3  A    between atoms: N_9  and  C_10
REMARK                            x       y       z     vdW  Elec       q    Type
REMARK                         _______ _______ _______ _____ _____    ______ ____
ROOT
ATOM      1  C   UNL     1      33.418  23.106  17.189  0.00  0.00    +0.112 C 
ATOM      2  C   UNL     1      33.664  24.618  17.135  0.00  0.00    +0.075 C 
ATOM      3  C   UNL     1      34.286  25.217  18.405  0.00  0.00    +0.113 C 
ATOM      4  C   UNL     1      35.832  25.112  18.484  0.00  0.00    +0.048 C 
ATOM      5  C   UNL     1      36.365  26.534  18.354  0.00  0.00    +0.004 C 
ATOM      6  C   UNL     1      35.267  27.391  18.953  0.00  0.00    +0.004 C 
ATOM      7  C   UNL     1      34.002  26.742  18.417  0.00  0.00    +0.048 C 
ATOM      8  O   UNL     1      33.698  24.670  19.601  0.00  0.00    -0.485 OA
ATOM      9  C   UNL     1      33.792  23.305  19.667  0.00  0.00    +0.126 A 
ATOM     10  C   UNL     1      33.989  22.736  20.925  0.00  0.00    +0.046 A 
ATOM     11  C   UNL     1      34.134  21.353  21.051  0.00  0.00    +0.004 A 
ATOM     12  C   UNL     1      34.058  20.540  19.923  0.00  0.00    +0.001 A 
ATOM     13  C   UNL     1      33.828  21.111  18.670  0.00  0.00    +0.009 A 
ATOM     14  C   UNL     1      33.694  22.502  18.534  0.00  0.00    +0.015 A 
ENDROOT
BRANCH   1  21
ATOM     15  N   UNL     1      27.927  20.411  15.609  0.00  0.00    -0.299 N 
ATOM     16  C   UNL     1      29.115  19.865  14.955  0.00  0.00    +0.127 C 
ATOM     17  C   UNL     1      30.002  20.969  14.389  0.00  0.00    +0.129 C 
ATOM     18  N   UNL     1      30.395  21.856  15.474  0.00  0.00    -0.275 N 
ATOM     19  C   UNL     1      31.733  21.994  15.770  0.00  0.00    +0.303 C 
ATOM     20  O   UNL     1      32.611  21.393  15.153  0.00  0.00    -0.253 OA
ATOM     21  N   UNL     1      32.032  22.818  16.814  0.00  0.00    -0.292 N 
ATOM     22  C   UNL     1      29.272  22.459  16.198  0.00  0.00    +0.205 C 
ATOM     23  C   UNL     1      27.976  21.625  16.293  0.00  0.00    +0.233 C 
ATOM     24  O   UNL     1      27.014  22.058  16.932  0.00  0.00    -0.274 OA
ATOM     25  H   UNL     1      31.372  23.541  17.052  0.00  0.00    +0.151 HD
BRANCH  15  27
ATOM     26  C   UNL     1      27.069  18.499  16.934  0.00  0.00    +0.024 C 
ATOM     27  C   UNL     1      26.796  19.518  15.838  0.00  0.00    +0.104 C 
ENDBRANCH  15  27
ENDBRANCH   1  21
TORSDOF 2
ENDMDL
MODEL 2
REMARK VINA RESULT:      -6.7      5.136      8.041
REMARK  Name = ZINC000329563636
REMARK  3 active torsions:
REMARK  status: ('A' for Active; 'I' for Inactive)
REMARK    1  A    between atoms: C_1  and  C_2
REMARK    2  A    between atoms: C_2  and  N_3
REMARK    3  A    between atoms: N_9  and  C_10
REMARK                            x       y       z     vdW  Elec       q    Type
REMARK                         _______ _______ _______ _____ _____    ______ ____
ROOT
ATOM      1  C   UNL     1      31.551  23.458  13.591  0.00  0.00    +0.112 C 
ATOM      2  C   UNL     1      30.250  22.648  13.577  0.00  0.00    +0.075 C 
ATOM      3  C   UNL     1      30.051  21.723  14.786  0.00  0.00    +0.113 C 
ATOM      4  C   UNL     1      29.443  22.410  16.037  0.00  0.00    +0.048 C 
ATOM      5  C   UNL     1      28.043  21.830  16.205  0.00  0.00    +0.004 C 
ATOM      6  C   UNL     1      28.158  20.427  15.641  0.00  0.00    +0.004 C 
ATOM      7  C   UNL     1      29.017  20.632  14.403  0.00  0.00    +0.048 C 
ATOM      8  O   UNL     1      31.268  21.041  15.147  0.00  0.00    -0.485 OA
ATOM      9  C   UNL     1      32.302  21.899  15.415  0.00  0.00    +0.126 A 
ATOM     10  C   UNL     1      33.195  21.533  16.421  0.00  0.00    +0.046 A 
ATOM     11  C   UNL     1      34.245  22.385  16.768  0.00  0.00    +0.004 A 
ATOM     12  C   UNL     1      34.414  23.591  16.091  0.00  0.00    +0.001 A 
ATOM     13  C   UNL     1      33.538  23.938  15.062  0.00  0.00    +0.009 A 
ATOM     14  C   UNL     1      32.472  23.092  14.717  0.00  0.00    +0.015 A 
ENDROOT
BRANCH   1  21
ATOM     15  N   UNL     1      34.990  24.152   8.338  0.00  0.00    -0.299 N 
ATOM     16  C   UNL     1      34.093  25.260   8.661  0.00  0.00    +0.127 C 
ATOM     17  C   UNL     1      32.691  24.766   9.001  0.00  0.00    +0.129 C 
ATOM     18  N   UNL     1      32.778  23.850  10.129  0.00  0.00    -0.275 N 
ATOM     19  C   UNL     1      32.114  24.164  11.294  0.00  0.00    +0.303 C 
ATOM     20  O   UNL     1      31.451  25.192  11.419  0.00  0.00    -0.253 OA
ATOM     21  N   UNL     1      32.258  23.279  12.321  0.00  0.00    -0.292 N 
ATOM     22  C   UNL     1      33.658  22.699   9.907  0.00  0.00    +0.205 C 
ATOM     23  C   UNL     1      34.869  22.918   8.974  0.00  0.00    +0.233 C 
ATOM     24  O   UNL     1      35.672  22.001   8.788  0.00  0.00    -0.274 OA
ATOM     25  H   UNL     1      32.484  22.324  12.096  0.00  0.00    +0.151 HD
BRANCH  15  27
ATOM     26  C   UNL     1      36.046  24.341   6.102  0.00  0.00    +0.024 C 
ATOM     27  C   UNL     1      36.219  24.452   7.610  0.00  0.00    +0.104 C 
ENDBRANCH  15  27
ENDBRANCH   1  21
TORSDOF 2
ENDMDL
MODEL 3
REMARK VINA RESULT:      -6.7      3.351      7.712
REMARK  Name = ZINC000329563636
REMARK  3 active torsions:
REMARK  status: ('A' for Active; 'I' for Inactive)
REMARK    1  A    between atoms: C_1  and  C_2
REMARK    2  A    between atoms: C_2  and  N_3
REMARK    3  A    between atoms: N_9  and  C_10
REMARK                            x       y       z     vdW  Elec       q    Type
REMARK                         _______ _______ _______ _____ _____    ______ ____
ROOT
ATOM      1  C   UNL     1      32.453  19.919  14.470  0.00  0.00    +0.112 C 
ATOM      2  C   UNL     1      33.541  18.961  13.972  0.00  0.00    +0.075 C 
ATOM      3  C   UNL     1      33.038  17.569  13.562  0.00  0.00    +0.113 C 
ATOM      4  C   UNL     1      32.492  17.476  12.113  0.00  0.00    +0.048 C 
ATOM      5  C   UNL     1      33.482  16.614  11.338  0.00  0.00    +0.004 C 
ATOM      6  C   UNL     1      34.048  15.675  12.385  0.00  0.00    +0.004 C 
ATOM      7  C   UNL     1      34.238  16.587  13.587  0.00  0.00    +0.048 C 
ATOM      8  O   UNL     1      32.057  17.058  14.486  0.00  0.00    -0.485 OA
ATOM      9  C   UNL     1      30.979  17.890  14.635  0.00  0.00    +0.126 A 
ATOM     10  C   UNL     1      29.732  17.295  14.823  0.00  0.00    +0.046 A 
ATOM     11  C   UNL     1      28.590  18.089  14.940  0.00  0.00    +0.004 A 
ATOM     12  C   UNL     1      28.700  19.477  14.893  0.00  0.00    +0.001 A 
ATOM     13  C   UNL     1      29.954  20.069  14.738  0.00  0.00    +0.009 A 
ATOM     14  C   UNL     1      31.105  19.276  14.607  0.00  0.00    +0.015 A 
ENDROOT
BRANCH   1  21
ATOM     15  N   UNL     1      32.757  22.990  19.982  0.00  0.00    -0.299 N 
ATOM     16  C   UNL     1      32.193  23.745  18.864  0.00  0.00    +0.127 C 
ATOM     17  C   UNL     1      33.063  23.635  17.616  0.00  0.00    +0.129 C 
ATOM     18  N   UNL     1      33.188  22.230  17.256  0.00  0.00    -0.275 N 
ATOM     19  C   UNL     1      32.723  21.813  16.028  0.00  0.00    +0.303 C 
ATOM     20  O   UNL     1      32.201  22.584  15.224  0.00  0.00    -0.253 OA
ATOM     21  N   UNL     1      32.846  20.482  15.763  0.00  0.00    -0.292 N 
ATOM     22  C   UNL     1      33.747  21.383  18.313  0.00  0.00    +0.205 C 
ATOM     23  C   UNL     1      33.448  21.799  19.770  0.00  0.00    +0.233 C 
ATOM     24  O   UNL     1      33.849  21.097  20.702  0.00  0.00    -0.274 OA
ATOM     25  H   UNL     1      33.564  19.966  16.247  0.00  0.00    +0.151 HD
BRANCH  15  27
ATOM     26  C   UNL     1      30.992  22.601  21.679  0.00  0.00    +0.024 C 
ATOM     27  C   UNL     1      32.294  23.307  21.328  0.00  0.00    +0.104 C 
ENDBRANCH  15  27
ENDBRANCH   1  21
TORSDOF 2
ENDMDL
MODEL 4
REMARK VINA RESULT:      -6.2      1.427      1.572
REMARK  Name = ZINC000329563636
REMARK  3 active torsions:
REMARK  status: ('A' for Active; 'I' for Inactive)
REMARK    1  A    between atoms: C_1  and  C_2
REMARK    2  A    between atoms: C_2  and  N_3
REMARK    3  A    between atoms: N_9  and  C_10
REMARK                            x       y       z     vdW  Elec       q    Type
REMARK                         _______ _______ _______ _____ _____    ______ ____
ROOT
ATOM      1  C   UNL     1      33.974  22.683  17.268  0.00  0.00    +0.112 C 
ATOM      2  C   UNL     1      34.027  24.202  17.075  0.00  0.00    +0.075 C 
ATOM      3  C   UNL     1      34.103  25.017  18.374  0.00  0.00    +0.113 C 
ATOM      4  C   UNL     1      35.532  25.183  18.954  0.00  0.00    +0.048 C 
ATOM      5  C   UNL     1      35.890  26.656  18.794  0.00  0.00    +0.004 C 
ATOM      6  C   UNL     1      34.554  27.368  18.882  0.00  0.00    +0.004 C 
ATOM      7  C   UNL     1      33.637  26.466  18.074  0.00  0.00    +0.048 C 
ATOM      8  O   UNL     1      33.223  24.494  19.389  0.00  0.00    -0.485 OA
ATOM      9  C   UNL     1      33.465  23.177  19.680  0.00  0.00    +0.126 A 
ATOM     10  C   UNL     1      33.300  22.773  21.003  0.00  0.00    +0.046 A 
ATOM     11  C   UNL     1      33.572  21.453  21.369  0.00  0.00    +0.004 A 
ATOM     12  C   UNL     1      33.984  20.535  20.406  0.00  0.00    +0.001 A 
ATOM     13  C   UNL     1      34.116  20.936  19.076  0.00  0.00    +0.009 A 
ATOM     14  C   UNL     1      33.858  22.265  18.703  0.00  0.00    +0.015 A 
ENDROOT
BRANCH   1  21
ATOM     15  N   UNL     1      29.615  18.968  14.602  0.00  0.00    -0.299 N 
ATOM     16  C   UNL     1      30.989  18.469  14.559  0.00  0.00    +0.127 C 
ATOM     17  C   UNL     1      31.962  19.541  14.081  0.00  0.00    +0.129 C 
ATOM     18  N   UNL     1      31.876  20.684  14.977  0.00  0.00    -0.275 N 
ATOM     19  C   UNL     1      32.999  21.070  15.675  0.00  0.00    +0.303 C 
ATOM     20  O   UNL     1      34.074  20.481  15.572  0.00  0.00    -0.253 OA
ATOM     21  N   UNL     1      32.844  22.130  16.518  0.00  0.00    -0.292 N 
ATOM     22  C   UNL     1      30.533  21.262  15.092  0.00  0.00    +0.205 C 
ATOM     23  C   UNL     1      29.342  20.293  14.934  0.00  0.00    +0.233 C 
ATOM     24  O   UNL     1      28.189  20.711  15.070  0.00  0.00    -0.274 OA
ATOM     25  H   UNL     1      32.105  22.786  16.324  0.00  0.00    +0.151 HD
BRANCH  15  27
ATOM     26  C   UNL     1      28.882  16.759  15.455  0.00  0.00    +0.024 C 
ATOM     27  C   UNL     1      28.531  17.993  14.637  0.00  0.00    +0.104 C 
ENDBRANCH  15  27
ENDBRANCH   1  21
TORSDOF 2
ENDMDL
MODEL 5
REMARK VINA RESULT:      -6.2      3.270      7.296
REMARK  Name = ZINC000329563636
REMARK  3 active torsions:
REMARK  status: ('A' for Active; 'I' for Inactive)
REMARK    1  A    between atoms: C_1  and  C_2
REMARK    2  A    between atoms: C_2  and  N_3
REMARK    3  A    between atoms: N_9  and  C_10
REMARK                            x       y       z     vdW  Elec       q    Type
REMARK                         _______ _______ _______ _____ _____    ______ ____
ROOT
ATOM      1  C   UNL     1      32.230  20.827  14.397  0.00  0.00    +0.112 C 
ATOM      2  C   UNL     1      33.523  20.689  13.585  0.00  0.00    +0.075 C 
ATOM      3  C   UNL     1      33.636  19.397  12.764  0.00  0.00    +0.113 C 
ATOM      4  C   UNL     1      32.939  19.443  11.379  0.00  0.00    +0.048 C 
ATOM      5  C   UNL     1      34.053  19.414  10.338  0.00  0.00    +0.004 C 
ATOM      6  C   UNL     1      35.160  18.625  11.010  0.00  0.00    +0.004 C 
ATOM      7  C   UNL     1      35.133  19.154  12.435  0.00  0.00    +0.048 C 
ATOM      8  O   UNL     1      33.176  18.248  13.503  0.00  0.00    -0.485 OA
ATOM      9  C   UNL     1      31.885  18.378  13.943  0.00  0.00    +0.126 A 
ATOM     10  C   UNL     1      31.097  17.228  13.966  0.00  0.00    +0.046 A 
ATOM     11  C   UNL     1      29.761  17.304  14.366  0.00  0.00    +0.004 A 
ATOM     12  C   UNL     1      29.224  18.526  14.766  0.00  0.00    +0.001 A 
ATOM     13  C   UNL     1      30.026  19.668  14.773  0.00  0.00    +0.009 A 
ATOM     14  C   UNL     1      31.366  19.601  14.359  0.00  0.00    +0.015 A 
ENDROOT
BRANCH   1  21
ATOM     15  N   UNL     1      32.099  22.198  20.562  0.00  0.00    -0.299 N 
ATOM     16  C   UNL     1      31.147  22.929  19.727  0.00  0.00    +0.127 C 
ATOM     17  C   UNL     1      31.817  23.508  18.486  0.00  0.00    +0.129 C 
ATOM     18  N   UNL     1      32.412  22.419  17.725  0.00  0.00    -0.275 N 
ATOM     19  C   UNL     1      31.976  22.189  16.439  0.00  0.00    +0.303 C 
ATOM     20  O   UNL     1      31.098  22.868  15.908  0.00  0.00    -0.253 OA
ATOM     21  N   UNL     1      32.553  21.138  15.791  0.00  0.00    -0.292 N 
ATOM     22  C   UNL     1      33.386  21.620  18.474  0.00  0.00    +0.205 C 
ATOM     23  C   UNL     1      33.152  21.483  19.994  0.00  0.00    +0.233 C 
ATOM     24  O   UNL     1      33.910  20.783  20.670  0.00  0.00    -0.274 OA
ATOM     25  H   UNL     1      33.471  20.845  16.086  0.00  0.00    +0.151 HD
BRANCH  15  27
ATOM     26  C   UNL     1      32.620  22.694  22.935  0.00  0.00    +0.024 C 
ATOM     27  C   UNL     1      31.738  21.938  21.951  0.00  0.00    +0.104 C 
ENDBRANCH  15  27
ENDBRANCH   1  21
TORSDOF 2
ENDMDL
MODEL 6
REMARK VINA RESULT:      -6.1      5.453      7.455
REMARK  Name = ZINC000329563636
REMARK  3 active torsions:
REMARK  status: ('A' for Active; 'I' for Inactive)
REMARK    1  A    between atoms: C_1  and  C_2
REMARK    2  A    between atoms: C_2  and  N_3
REMARK    3  A    between atoms: N_9  and  C_10
REMARK                            x       y       z     vdW  Elec       q    Type
REMARK                         _______ _______ _______ _____ _____    ______ ____
ROOT
ATOM      1  C   UNL     1      32.956  24.083  10.909  0.00  0.00    +0.112 C 
ATOM      2  C   UNL     1      33.991  25.024  11.535  0.00  0.00    +0.075 C 
ATOM      3  C   UNL     1      35.265  25.230  10.703  0.00  0.00    +0.113 C 
ATOM      4  C   UNL     1      35.153  26.316   9.601  0.00  0.00    +0.048 C 
ATOM      5  C   UNL     1      36.054  27.465  10.040  0.00  0.00    +0.004 C 
ATOM      6  C   UNL     1      37.150  26.785  10.837  0.00  0.00    +0.004 C 
ATOM      7  C   UNL     1      36.387  25.746  11.642  0.00  0.00    +0.048 C 
ATOM      8  O   UNL     1      35.735  23.996  10.125  0.00  0.00    -0.485 OA
ATOM      9  C   UNL     1      34.793  23.379   9.344  0.00  0.00    +0.126 A 
ATOM     10  C   UNL     1      35.244  22.704   8.211  0.00  0.00    +0.046 A 
ATOM     11  C   UNL     1      34.329  22.090   7.353  0.00  0.00    +0.004 A 
ATOM     12  C   UNL     1      32.967  22.133   7.644  0.00  0.00    +0.001 A 
ATOM     13  C   UNL     1      32.523  22.782   8.797  0.00  0.00    +0.009 A 
ATOM     14  C   UNL     1      33.437  23.412   9.657  0.00  0.00    +0.015 A 
ENDROOT
BRANCH   1  21
ATOM     15  N   UNL     1      29.877  20.010  14.628  0.00  0.00    -0.299 N 
ATOM     16  C   UNL     1      29.292  21.346  14.527  0.00  0.00    +0.127 C 
ATOM     17  C   UNL     1      30.342  22.435  14.720  0.00  0.00    +0.129 C 
ATOM     18  N   UNL     1      31.379  22.268  13.713  0.00  0.00    -0.275 N 
ATOM     19  C   UNL     1      31.605  23.287  12.814  0.00  0.00    +0.303 C 
ATOM     20  O   UNL     1      30.959  24.334  12.827  0.00  0.00    -0.253 OA
ATOM     21  N   UNL     1      32.571  23.057  11.880  0.00  0.00    -0.292 N 
ATOM     22  C   UNL     1      32.032  20.956  13.729  0.00  0.00    +0.205 C 
ATOM     23  C   UNL     1      31.172  19.756  14.180  0.00  0.00    +0.233 C 
ATOM     24  O   UNL     1      31.651  18.619  14.167  0.00  0.00    -0.274 OA
ATOM     25  H   UNL     1      33.295  22.392  12.100  0.00  0.00    +0.151 HD
BRANCH  15  27
ATOM     26  C   UNL     1      27.773  19.272  15.713  0.00  0.00    +0.024 C 
ATOM     27  C   UNL     1      28.982  18.884  14.874  0.00  0.00    +0.104 C 
ENDBRANCH  15  27
ENDBRANCH   1  21
TORSDOF 2
ENDMDL
MODEL 7
REMARK VINA RESULT:      -6.1      3.358      8.021
REMARK  Name = ZINC000329563636
REMARK  3 active torsions:
REMARK  status: ('A' for Active; 'I' for Inactive)
REMARK    1  A    between atoms: C_1  and  C_2
REMARK    2  A    between atoms: C_2  and  N_3
REMARK    3  A    between atoms: N_9  and  C_10
REMARK                            x       y       z     vdW  Elec       q    Type
REMARK                         _______ _______ _______ _____ _____    ______ ____
ROOT
ATOM      1  C   UNL     1      32.859  19.865  14.635  0.00  0.00    +0.112 C 
ATOM      2  C   UNL     1      33.751  18.695  14.206  0.00  0.00    +0.075 C 
ATOM      3  C   UNL     1      32.994  17.446  13.730  0.00  0.00    +0.113 C 
ATOM      4  C   UNL     1      32.561  17.477  12.241  0.00  0.00    +0.048 C 
ATOM      5  C   UNL     1      33.401  16.423  11.529  0.00  0.00    +0.004 C 
ATOM      6  C   UNL     1      33.664  15.381  12.599  0.00  0.00    +0.004 C 
ATOM      7  C   UNL     1      33.948  16.227  13.830  0.00  0.00    +0.048 C 
ATOM      8  O   UNL     1      31.854  17.158  14.564  0.00  0.00    -0.485 OA
ATOM      9  C   UNL     1      30.972  18.204  14.643  0.00  0.00    +0.126 A 
ATOM     10  C   UNL     1      29.616  17.893  14.720  0.00  0.00    +0.046 A 
ATOM     11  C   UNL     1      28.666  18.916  14.762  0.00  0.00    +0.004 A 
ATOM     12  C   UNL     1      29.077  20.247  14.752  0.00  0.00    +0.001 A 
ATOM     13  C   UNL     1      30.438  20.553  14.708  0.00  0.00    +0.009 A 
ATOM     14  C   UNL     1      31.398  19.530  14.652  0.00  0.00    +0.015 A 
ENDROOT
BRANCH   1  21
ATOM     15  N   UNL     1      33.962  23.176  19.901  0.00  0.00    -0.299 N 
ATOM     16  C   UNL     1      34.239  23.869  18.644  0.00  0.00    +0.127 C 
ATOM     17  C   UNL     1      35.062  23.005  17.696  0.00  0.00    +0.129 C 
ATOM     18  N   UNL     1      34.334  21.772  17.434  0.00  0.00    -0.275 N 
ATOM     19  C   UNL     1      33.961  21.481  16.140  0.00  0.00    +0.303 C 
ATOM     20  O   UNL     1      34.218  22.226  15.196  0.00  0.00    -0.253 OA
ATOM     21  N   UNL     1      33.257  20.326  15.967  0.00  0.00    -0.292 N 
ATOM     22  C   UNL     1      34.005  20.998  18.634  0.00  0.00    +0.205 C 
ATOM     23  C   UNL     1      33.761  21.797  19.933  0.00  0.00    +0.233 C 
ATOM     24  O   UNL     1      33.432  21.205  20.964  0.00  0.00    -0.274 OA
ATOM     25  H   UNL     1      33.371  19.594  16.650  0.00  0.00    +0.151 HD
BRANCH  15  27
ATOM     26  C   UNL     1      33.915  25.445  20.898  0.00  0.00    +0.024 C 
ATOM     27  C   UNL     1      33.555  23.974  21.052  0.00  0.00    +0.104 C 
ENDBRANCH  15  27
ENDBRANCH   1  21
TORSDOF 2
ENDMDL
MODEL 8
REMARK VINA RESULT:      -5.8      4.246      6.463
REMARK  Name = ZINC000329563636
REMARK  3 active torsions:
REMARK  status: ('A' for Active; 'I' for Inactive)
REMARK    1  A    between atoms: C_1  and  C_2
REMARK    2  A    between atoms: C_2  and  N_3
REMARK    3  A    between atoms: N_9  and  C_10
REMARK                            x       y       z     vdW  Elec       q    Type
REMARK                         _______ _______ _______ _____ _____    ______ ____
ROOT
ATOM      1  C   UNL     1      32.586  21.921  15.148  0.00  0.00    +0.112 C 
ATOM      2  C   UNL     1      33.309  22.763  16.206  0.00  0.00    +0.075 C 
ATOM      3  C   UNL     1      32.448  23.163  17.413  0.00  0.00    +0.113 C 
ATOM      4  C   UNL     1      32.358  22.091  18.531  0.00  0.00    +0.048 C 
ATOM      5  C   UNL     1      33.114  22.658  19.727  0.00  0.00    +0.004 C 
ATOM      6  C   UNL     1      32.937  24.158  19.595  0.00  0.00    +0.004 C 
ATOM      7  C   UNL     1      33.106  24.386  18.102  0.00  0.00    +0.048 C 
ATOM      8  O   UNL     1      31.122  23.566  17.017  0.00  0.00    -0.485 OA
ATOM      9  C   UNL     1      30.460  22.601  16.304  0.00  0.00    +0.126 A 
ATOM     10  C   UNL     1      29.085  22.489  16.501  0.00  0.00    +0.046 A 
ATOM     11  C   UNL     1      28.362  21.498  15.834  0.00  0.00    +0.004 A 
ATOM     12  C   UNL     1      29.012  20.637  14.953  0.00  0.00    +0.001 A 
ATOM     13  C   UNL     1      30.383  20.774  14.733  0.00  0.00    +0.009 A 
ATOM     14  C   UNL     1      31.119  21.760  15.410  0.00  0.00    +0.015 A 
ENDROOT
BRANCH   1  21
ATOM     15  N   UNL     1      33.798  23.106   9.062  0.00  0.00    -0.299 N 
ATOM     16  C   UNL     1      34.771  22.259   9.752  0.00  0.00    +0.127 C 
ATOM     17  C   UNL     1      35.185  22.856  11.092  0.00  0.00    +0.129 C 
ATOM     18  N   UNL     1      33.998  23.022  11.917  0.00  0.00    -0.275 N 
ATOM     19  C   UNL     1      33.919  22.349  13.116  0.00  0.00    +0.303 C 
ATOM     20  O   UNL     1      34.816  21.607  13.515  0.00  0.00    -0.253 OA
ATOM     21  N   UNL     1      32.770  22.525  13.827  0.00  0.00    -0.292 N 
ATOM     22  C   UNL     1      32.955  23.859  11.314  0.00  0.00    +0.205 C 
ATOM     23  C   UNL     1      32.848  23.835   9.774  0.00  0.00    +0.233 C 
ATOM     24  O   UNL     1      31.959  24.480   9.212  0.00  0.00    -0.274 OA
ATOM     25  H   UNL     1      32.242  23.370  13.673  0.00  0.00    +0.151 HD
BRANCH  15  27
ATOM     26  C   UNL     1      34.601  23.702   6.794  0.00  0.00    +0.024 C 
ATOM     27  C   UNL     1      33.608  22.908   7.630  0.00  0.00    +0.104 C 
ENDBRANCH  15  27
ENDBRANCH   1  21
TORSDOF 2
ENDMDL
MODEL 9
REMARK VINA RESULT:      -5.8      3.255      6.483
REMARK  Name = ZINC000329563636
REMARK  3 active torsions:
REMARK  status: ('A' for Active; 'I' for Inactive)
REMARK    1  A    between atoms: C_1  and  C_2
REMARK    2  A    between atoms: C_2  and  N_3
REMARK    3  A    between atoms: N_9  and  C_10
REMARK                            x       y       z     vdW  Elec       q    Type
REMARK                         _______ _______ _______ _____ _____    ______ ____
ROOT
ATOM      1  C   UNL     1      31.895  22.905  14.589  0.00  0.00    +0.112 C 
ATOM      2  C   UNL     1      32.687  23.931  13.771  0.00  0.00    +0.075 C 
ATOM      3  C   UNL     1      33.462  23.349  12.580  0.00  0.00    +0.113 C 
ATOM      4  C   UNL     1      32.627  23.172  11.285  0.00  0.00    +0.048 C 
ATOM      5  C   UNL     1      33.168  24.187  10.285  0.00  0.00    +0.004 C 
ATOM      6  C   UNL     1      34.628  24.333  10.666  0.00  0.00    +0.004 C 
ATOM      7  C   UNL     1      34.579  24.350  12.185  0.00  0.00    +0.048 C 
ATOM      8  O   UNL     1      34.110  22.106  12.916  0.00  0.00    -0.485 OA
ATOM      9  C   UNL     1      33.238  21.157  13.380  0.00  0.00    +0.126 A 
ATOM     10  C   UNL     1      33.493  19.830  13.038  0.00  0.00    +0.046 A 
ATOM     11  C   UNL     1      32.618  18.822  13.447  0.00  0.00    +0.004 A 
ATOM     12  C   UNL     1      31.502  19.141  14.217  0.00  0.00    +0.001 A 
ATOM     13  C   UNL     1      31.268  20.466  14.585  0.00  0.00    +0.009 A 
ATOM     14  C   UNL     1      32.136  21.487  14.167  0.00  0.00    +0.015 A 
ENDROOT
BRANCH   1  21
ATOM     15  N   UNL     1      32.370  22.315  20.861  0.00  0.00    -0.299 N 
ATOM     16  C   UNL     1      31.019  22.212  20.313  0.00  0.00    +0.127 C 
ATOM     17  C   UNL     1      30.722  23.343  19.334  0.00  0.00    +0.129 C 
ATOM     18  N   UNL     1      31.700  23.298  18.257  0.00  0.00    -0.275 N 
ATOM     19  C   UNL     1      31.261  23.102  16.966  0.00  0.00    +0.303 C 
ATOM     20  O   UNL     1      30.072  22.959  16.688  0.00  0.00    -0.253 OA
ATOM     21  N   UNL     1      32.229  23.042  16.008  0.00  0.00    -0.292 N 
ATOM     22  C   UNL     1      33.094  23.394  18.702  0.00  0.00    +0.205 C 
ATOM     23  C   UNL     1      33.423  22.806  20.091  0.00  0.00    +0.233 C 
ATOM     24  O   UNL     1      34.588  22.812  20.499  0.00  0.00    -0.274 OA
ATOM     25  H   UNL     1      33.107  23.501  16.192  0.00  0.00    +0.151 HD
BRANCH  15  27
ATOM     26  C   UNL     1      32.121  22.266  23.327  0.00  0.00    +0.024 C 
ATOM     27  C   UNL     1      32.674  21.582  22.085  0.00  0.00    +0.104 C 
ENDBRANCH  15  27
ENDBRANCH   1  21
TORSDOF 2
ENDMDL
