MODEL 1
REMARK VINA RESULT:      -7.7      0.000      0.000
REMARK  Name = ZINC001228612316
REMARK  5 active torsions:
REMARK  status: ('A' for Active; 'I' for Inactive)
REMARK    1  A    between atoms: C_2  and  C_4
REMARK    2  A    between atoms: C_8  and  O_9
REMARK    3  A    between atoms: O_9  and  C_10
REMARK    4  A    between atoms: C_10  and  C_11
REMARK    5  A    between atoms: C_10  and  C_17
REMARK                            x       y       z     vdW  Elec       q    Type
REMARK                         _______ _______ _______ _____ _____    ______ ____
ROOT
ATOM      1  C   UNL     1      13.302   4.494  13.971  0.00  0.00    +0.040 A 
ATOM      2  C   UNL     1      12.231   5.394  13.993  0.00  0.00    +0.013 A 
ATOM      3  C   UNL     1      11.712   5.893  12.799  0.00  0.00    +0.004 A 
ATOM      4  C   UNL     1      12.256   5.496  11.574  0.00  0.00    +0.046 A 
ATOM      5  C   UNL     1      13.327   4.603  11.539  0.00  0.00    +0.122 A 
ATOM      6  C   UNL     1      13.845   4.102  12.741  0.00  0.00    +0.058 A 
ENDROOT
BRANCH   1   8
ATOM      7  N   UNL     1      13.080   2.997  15.889  0.00  0.00    -0.325 N 
ATOM      8  C   UNL     1      13.809   3.977  15.270  0.00  0.00    +0.242 C 
ATOM      9  O   UNL     1      14.858   4.379  15.759  0.00  0.00    -0.270 OA
ATOM     10  H   UNL     1      13.497   2.587  16.715  0.00  0.00    +0.145 HD
ATOM     11  H   UNL     1      12.357   2.475  15.418  0.00  0.00    +0.145 HD
ENDBRANCH   1   8
BRANCH   5  12
ATOM     12  O   UNL     1      13.989   4.197  10.413  0.00  0.00    -0.484 OA
BRANCH  12  13
ATOM     13  C   UNL     1      14.736   5.168   9.661  0.00  0.00    +0.208 C 
BRANCH  13  14
ATOM     14  C   UNL     1      16.214   4.843   9.564  0.00  0.00    +0.011 A 
ATOM     15  C   UNL     1      16.716   3.760   8.836  0.00  0.00    +0.010 A 
ATOM     16  C   UNL     1      18.094   3.583   8.725  0.00  0.00    +0.020 A 
ATOM     17  C   UNL     1      18.929   4.499   9.344  0.00  0.00    +0.111 A 
ATOM     18  N   UNL     1      18.485   5.550  10.063  0.00  0.00    -0.263 NA
ATOM     19  C   UNL     1      17.146   5.698  10.153  0.00  0.00    +0.118 A 
ENDBRANCH  13  14
BRANCH  13  20
ATOM     20  C   UNL     1      14.192   5.231   8.238  0.00  0.00    +0.034 C 
ATOM     21  C   UNL     1      14.510   6.408   7.347  0.00  0.00    +0.008 C 
ATOM     22  C   UNL     1      13.097   6.185   7.814  0.00  0.00    +0.008 C 
ENDBRANCH  13  20
ENDBRANCH  12  13
ENDBRANCH   5  12
TORSDOF 5
ENDMDL
MODEL 2
REMARK VINA RESULT:      -7.3      1.308      1.684
REMARK  Name = ZINC001228612316
REMARK  5 active torsions:
REMARK  status: ('A' for Active; 'I' for Inactive)
REMARK    1  A    between atoms: C_2  and  C_4
REMARK    2  A    between atoms: C_8  and  O_9
REMARK    3  A    between atoms: O_9  and  C_10
REMARK    4  A    between atoms: C_10  and  C_11
REMARK    5  A    between atoms: C_10  and  C_17
REMARK                            x       y       z     vdW  Elec       q    Type
REMARK                         _______ _______ _______ _____ _____    ______ ____
ROOT
ATOM      1  C   UNL     1      12.976   4.948  12.702  0.00  0.00    +0.040 A 
ATOM      2  C   UNL     1      11.975   5.924  12.653  0.00  0.00    +0.013 A 
ATOM      3  C   UNL     1      11.559   6.438  11.424  0.00  0.00    +0.004 A 
ATOM      4  C   UNL     1      12.139   5.981  10.238  0.00  0.00    +0.046 A 
ATOM      5  C   UNL     1      13.141   5.011  10.274  0.00  0.00    +0.122 A 
ATOM      6  C   UNL     1      13.554   4.495  11.509  0.00  0.00    +0.058 A 
ENDROOT
BRANCH   1   8
ATOM      7  N   UNL     1      14.429   3.550  14.081  0.00  0.00    -0.325 N 
ATOM      8  C   UNL     1      13.372   4.418  14.035  0.00  0.00    +0.242 C 
ATOM      9  O   UNL     1      12.805   4.769  15.062  0.00  0.00    -0.270 OA
ATOM     10  H   UNL     1      14.748   3.287  15.005  0.00  0.00    +0.145 HD
ATOM     11  H   UNL     1      15.067   3.423  13.311  0.00  0.00    +0.145 HD
ENDBRANCH   1   8
BRANCH   5  12
ATOM     12  O   UNL     1      13.832   4.539   9.192  0.00  0.00    -0.484 OA
BRANCH  12  13
ATOM     13  C   UNL     1      14.796   5.395   8.558  0.00  0.00    +0.208 C 
BRANCH  13  14
ATOM     14  C   UNL     1      16.231   5.017   8.869  0.00  0.00    +0.011 A 
ATOM     15  C   UNL     1      16.992   5.642   9.860  0.00  0.00    +0.010 A 
ATOM     16  C   UNL     1      18.274   5.175  10.143  0.00  0.00    +0.020 A 
ATOM     17  C   UNL     1      18.755   4.092   9.426  0.00  0.00    +0.111 A 
ATOM     18  N   UNL     1      18.057   3.467   8.456  0.00  0.00    -0.263 NA
ATOM     19  C   UNL     1      16.817   3.939   8.204  0.00  0.00    +0.118 A 
ENDBRANCH  13  14
BRANCH  13  20
ATOM     20  C   UNL     1      14.624   5.314   7.044  0.00  0.00    +0.034 C 
ATOM     21  C   UNL     1      14.959   6.498   6.170  0.00  0.00    +0.008 C 
ATOM     22  C   UNL     1      13.531   6.044   6.297  0.00  0.00    +0.008 C 
ENDBRANCH  13  20
ENDBRANCH  12  13
ENDBRANCH   5  12
TORSDOF 5
ENDMDL
MODEL 3
REMARK VINA RESULT:      -7.2      2.477      5.974
REMARK  Name = ZINC001228612316
REMARK  5 active torsions:
REMARK  status: ('A' for Active; 'I' for Inactive)
REMARK    1  A    between atoms: C_2  and  C_4
REMARK    2  A    between atoms: C_8  and  O_9
REMARK    3  A    between atoms: O_9  and  C_10
REMARK    4  A    between atoms: C_10  and  C_11
REMARK    5  A    between atoms: C_10  and  C_17
REMARK                            x       y       z     vdW  Elec       q    Type
REMARK                         _______ _______ _______ _____ _____    ______ ____
ROOT
ATOM      1  C   UNL     1      17.663   3.147   8.797  0.00  0.00    +0.040 A 
ATOM      2  C   UNL     1      18.717   3.761   9.483  0.00  0.00    +0.013 A 
ATOM      3  C   UNL     1      18.558   5.047  10.001  0.00  0.00    +0.004 A 
ATOM      4  C   UNL     1      17.348   5.727   9.839  0.00  0.00    +0.046 A 
ATOM      5  C   UNL     1      16.292   5.127   9.154  0.00  0.00    +0.122 A 
ATOM      6  C   UNL     1      16.454   3.835   8.636  0.00  0.00    +0.058 A 
ENDROOT
BRANCH   1   8
ATOM      7  N   UNL     1      18.209   0.798   9.183  0.00  0.00    -0.325 N 
ATOM      8  C   UNL     1      17.876   1.769   8.278  0.00  0.00    +0.242 C 
ATOM      9  O   UNL     1      17.723   1.495   7.094  0.00  0.00    -0.270 OA
ATOM     10  H   UNL     1      18.244  -0.149   8.827  0.00  0.00    +0.145 HD
ATOM     11  H   UNL     1      18.111   0.921  10.179  0.00  0.00    +0.145 HD
ENDBRANCH   1   8
BRANCH   5  12
ATOM     12  O   UNL     1      15.090   5.715   8.868  0.00  0.00    -0.484 OA
BRANCH  12  13
ATOM     13  C   UNL     1      13.882   4.978   9.115  0.00  0.00    +0.208 C 
BRANCH  13  14
ATOM     14  C   UNL     1      13.209   5.349  10.422  0.00  0.00    +0.011 A 
ATOM     15  C   UNL     1      12.139   6.243  10.508  0.00  0.00    +0.010 A 
ATOM     16  C   UNL     1      11.520   6.462  11.737  0.00  0.00    +0.020 A 
ATOM     17  C   UNL     1      11.990   5.776  12.844  0.00  0.00    +0.111 A 
ATOM     18  N   UNL     1      13.026   4.913  12.806  0.00  0.00    -0.263 NA
ATOM     19  C   UNL     1      13.606   4.719  11.602  0.00  0.00    +0.118 A 
ENDBRANCH  13  14
BRANCH  13  20
ATOM     20  C   UNL     1      12.883   5.257   7.996  0.00  0.00    +0.034 C 
ATOM     21  C   UNL     1      11.900   4.196   7.563  0.00  0.00    +0.008 C 
ATOM     22  C   UNL     1      12.988   4.636   6.621  0.00  0.00    +0.008 C 
ENDBRANCH  13  20
ENDBRANCH  12  13
ENDBRANCH   5  12
TORSDOF 5
ENDMDL
MODEL 4
REMARK VINA RESULT:      -7.1      2.573      5.991
REMARK  Name = ZINC001228612316
REMARK  5 active torsions:
REMARK  status: ('A' for Active; 'I' for Inactive)
REMARK    1  A    between atoms: C_2  and  C_4
REMARK    2  A    between atoms: C_8  and  O_9
REMARK    3  A    between atoms: O_9  and  C_10
REMARK    4  A    between atoms: C_10  and  C_11
REMARK    5  A    between atoms: C_10  and  C_17
REMARK                            x       y       z     vdW  Elec       q    Type
REMARK                         _______ _______ _______ _____ _____    ______ ____
ROOT
ATOM      1  C   UNL     1      17.429   3.106   8.315  0.00  0.00    +0.040 A 
ATOM      2  C   UNL     1      17.049   2.597   7.069  0.00  0.00    +0.013 A 
ATOM      3  C   UNL     1      15.993   3.180   6.368  0.00  0.00    +0.004 A 
ATOM      4  C   UNL     1      15.310   4.274   6.906  0.00  0.00    +0.046 A 
ATOM      5  C   UNL     1      15.676   4.787   8.150  0.00  0.00    +0.122 A 
ATOM      6  C   UNL     1      16.739   4.201   8.850  0.00  0.00    +0.058 A 
ENDROOT
BRANCH   1   8
ATOM      7  N   UNL     1      18.474   1.124   9.288  0.00  0.00    -0.325 N 
ATOM      8  C   UNL     1      18.573   2.462   9.015  0.00  0.00    +0.242 C 
ATOM      9  O   UNL     1      19.586   3.087   9.306  0.00  0.00    -0.270 OA
ATOM     10  H   UNL     1      19.304   0.685   9.667  0.00  0.00    +0.145 HD
ATOM     11  H   UNL     1      17.781   0.529   8.862  0.00  0.00    +0.145 HD
ENDBRANCH   1   8
BRANCH   5  12
ATOM     12  O   UNL     1      15.041   5.803   8.812  0.00  0.00    -0.484 OA
BRANCH  12  13
ATOM     13  C   UNL     1      13.605   5.811   8.854  0.00  0.00    +0.208 C 
BRANCH  13  14
ATOM     14  C   UNL     1      13.046   5.841  10.263  0.00  0.00    +0.011 A 
ATOM     15  C   UNL     1      11.943   6.614  10.635  0.00  0.00    +0.010 A 
ATOM     16  C   UNL     1      11.438   6.517  11.930  0.00  0.00    +0.020 A 
ATOM     17  C   UNL     1      12.053   5.646  12.815  0.00  0.00    +0.111 A 
ATOM     18  N   UNL     1      13.125   4.892  12.499  0.00  0.00    -0.263 NA
ATOM     19  C   UNL     1      13.592   5.004  11.236  0.00  0.00    +0.118 A 
ENDBRANCH  13  14
BRANCH  13  20
ATOM     20  C   UNL     1      13.086   7.051   8.134  0.00  0.00    +0.034 C 
ATOM     21  C   UNL     1      11.925   6.952   7.174  0.00  0.00    +0.008 C 
ATOM     22  C   UNL     1      13.294   7.297   6.656  0.00  0.00    +0.008 C 
ENDBRANCH  13  20
ENDBRANCH  12  13
ENDBRANCH   5  12
TORSDOF 5
ENDMDL
MODEL 5
REMARK VINA RESULT:      -7.0      2.158      3.066
REMARK  Name = ZINC001228612316
REMARK  5 active torsions:
REMARK  status: ('A' for Active; 'I' for Inactive)
REMARK    1  A    between atoms: C_2  and  C_4
REMARK    2  A    between atoms: C_8  and  O_9
REMARK    3  A    between atoms: O_9  and  C_10
REMARK    4  A    between atoms: C_10  and  C_11
REMARK    5  A    between atoms: C_10  and  C_17
REMARK                            x       y       z     vdW  Elec       q    Type
REMARK                         _______ _______ _______ _____ _____    ______ ____
ROOT
ATOM      1  C   UNL     1      13.214   4.774  13.134  0.00  0.00    +0.040 A 
ATOM      2  C   UNL     1      12.050   5.542  13.242  0.00  0.00    +0.013 A 
ATOM      3  C   UNL     1      11.545   6.207  12.124  0.00  0.00    +0.004 A 
ATOM      4  C   UNL     1      12.196   6.108  10.892  0.00  0.00    +0.046 A 
ATOM      5  C   UNL     1      13.360   5.349  10.773  0.00  0.00    +0.122 A 
ATOM      6  C   UNL     1      13.864   4.681  11.897  0.00  0.00    +0.058 A 
ENDROOT
BRANCH   1   8
ATOM      7  N   UNL     1      12.816   3.894  15.378  0.00  0.00    -0.325 N 
ATOM      8  C   UNL     1      13.703   4.070  14.350  0.00  0.00    +0.242 C 
ATOM      9  O   UNL     1      14.843   3.628  14.424  0.00  0.00    -0.270 OA
ATOM     10  H   UNL     1      13.137   3.322  16.149  0.00  0.00    +0.145 HD
ATOM     11  H   UNL     1      11.822   4.022  15.270  0.00  0.00    +0.145 HD
ENDBRANCH   1   8
BRANCH   5  12
ATOM     12  O   UNL     1      14.125   5.234   9.644  0.00  0.00    -0.484 OA
BRANCH  12  13
ATOM     13  C   UNL     1      15.229   4.315   9.645  0.00  0.00    +0.208 C 
BRANCH  13  14
ATOM     14  C   UNL     1      15.047   3.158   8.682  0.00  0.00    +0.011 A 
ATOM     15  C   UNL     1      15.040   1.819   9.084  0.00  0.00    +0.010 A 
ATOM     16  C   UNL     1      14.778   0.820   8.148  0.00  0.00    +0.020 A 
ATOM     17  C   UNL     1      14.527   1.192   6.838  0.00  0.00    +0.111 A 
ATOM     18  N   UNL     1      14.534   2.471   6.408  0.00  0.00    -0.263 NA
ATOM     19  C   UNL     1      14.789   3.418   7.336  0.00  0.00    +0.118 A 
ENDBRANCH  13  14
BRANCH  13  20
ATOM     20  C   UNL     1      16.499   5.051   9.233  0.00  0.00    +0.034 C 
ATOM     21  C   UNL     1      17.825   4.329   9.189  0.00  0.00    +0.008 C 
ATOM     22  C   UNL     1      17.598   5.412  10.208  0.00  0.00    +0.008 C 
ENDBRANCH  13  20
ENDBRANCH  12  13
ENDBRANCH   5  12
TORSDOF 5
ENDMDL
MODEL 6
REMARK VINA RESULT:      -7.0      2.541      6.217
REMARK  Name = ZINC001228612316
REMARK  5 active torsions:
REMARK  status: ('A' for Active; 'I' for Inactive)
REMARK    1  A    between atoms: C_2  and  C_4
REMARK    2  A    between atoms: C_8  and  O_9
REMARK    3  A    between atoms: O_9  and  C_10
REMARK    4  A    between atoms: C_10  and  C_11
REMARK    5  A    between atoms: C_10  and  C_17
REMARK                            x       y       z     vdW  Elec       q    Type
REMARK                         _______ _______ _______ _____ _____    ______ ____
ROOT
ATOM      1  C   UNL     1      14.316   3.313   7.391  0.00  0.00    +0.040 A 
ATOM      2  C   UNL     1      15.669   3.214   7.049  0.00  0.00    +0.013 A 
ATOM      3  C   UNL     1      16.635   3.862   7.820  0.00  0.00    +0.004 A 
ATOM      4  C   UNL     1      16.257   4.612   8.937  0.00  0.00    +0.046 A 
ATOM      5  C   UNL     1      14.910   4.722   9.286  0.00  0.00    +0.122 A 
ATOM      6  C   UNL     1      13.943   4.068   8.511  0.00  0.00    +0.058 A 
ENDROOT
BRANCH   1   8
ATOM      7  N   UNL     1      12.716   1.492   7.091  0.00  0.00    -0.325 N 
ATOM      8  C   UNL     1      13.327   2.590   6.548  0.00  0.00    +0.242 C 
ATOM      9  O   UNL     1      13.034   2.976   5.423  0.00  0.00    -0.270 OA
ATOM     10  H   UNL     1      11.972   1.080   6.543  0.00  0.00    +0.145 HD
ATOM     11  H   UNL     1      12.743   1.283   8.078  0.00  0.00    +0.145 HD
ENDBRANCH   1   8
BRANCH   5  12
ATOM     12  O   UNL     1      14.411   5.482  10.308  0.00  0.00    -0.484 OA
BRANCH  12  13
ATOM     13  C   UNL     1      13.172   5.090  10.922  0.00  0.00    +0.208 C 
BRANCH  13  14
ATOM     14  C   UNL     1      13.303   4.800  12.405  0.00  0.00    +0.011 A 
ATOM     15  C   UNL     1      12.435   5.321  13.368  0.00  0.00    +0.010 A 
ATOM     16  C   UNL     1      12.571   4.934  14.700  0.00  0.00    +0.020 A 
ATOM     17  C   UNL     1      13.572   4.033  15.027  0.00  0.00    +0.111 A 
ATOM     18  N   UNL     1      14.435   3.515  14.130  0.00  0.00    -0.263 NA
ATOM     19  C   UNL     1      14.280   3.906  12.846  0.00  0.00    +0.118 A 
ENDBRANCH  13  14
BRANCH  13  20
ATOM     20  C   UNL     1      12.155   6.216  10.769  0.00  0.00    +0.034 C 
ATOM     21  C   UNL     1      10.705   5.906  10.485  0.00  0.00    +0.008 C 
ATOM     22  C   UNL     1      11.539   6.598   9.442  0.00  0.00    +0.008 C 
ENDBRANCH  13  20
ENDBRANCH  12  13
ENDBRANCH   5  12
TORSDOF 5
ENDMDL
MODEL 7
REMARK VINA RESULT:      -6.8      3.426      5.635
REMARK  Name = ZINC001228612316
REMARK  5 active torsions:
REMARK  status: ('A' for Active; 'I' for Inactive)
REMARK    1  A    between atoms: C_2  and  C_4
REMARK    2  A    between atoms: C_8  and  O_9
REMARK    3  A    between atoms: O_9  and  C_10
REMARK    4  A    between atoms: C_10  and  C_11
REMARK    5  A    between atoms: C_10  and  C_17
REMARK                            x       y       z     vdW  Elec       q    Type
REMARK                         _______ _______ _______ _____ _____    ______ ____
ROOT
ATOM      1  C   UNL     1      12.513   5.448  11.755  0.00  0.00    +0.040 A 
ATOM      2  C   UNL     1      13.639   4.620  11.815  0.00  0.00    +0.013 A 
ATOM      3  C   UNL     1      14.609   4.685  10.815  0.00  0.00    +0.004 A 
ATOM      4  C   UNL     1      14.463   5.578   9.750  0.00  0.00    +0.046 A 
ATOM      5  C   UNL     1      13.343   6.406   9.676  0.00  0.00    +0.122 A 
ATOM      6  C   UNL     1      12.371   6.339  10.683  0.00  0.00    +0.058 A 
ENDROOT
BRANCH   1   8
ATOM      7  N   UNL     1      11.991   5.191  14.127  0.00  0.00    -0.325 N 
ATOM      8  C   UNL     1      11.515   5.354  12.854  0.00  0.00    +0.242 C 
ATOM      9  O   UNL     1      10.312   5.454  12.643  0.00  0.00    -0.270 OA
ATOM     10  H   UNL     1      11.303   5.236  14.868  0.00  0.00    +0.145 HD
ATOM     11  H   UNL     1      12.957   5.344  14.374  0.00  0.00    +0.145 HD
ENDBRANCH   1   8
BRANCH   5  12
ATOM     12  O   UNL     1      13.053   7.265   8.652  0.00  0.00    -0.484 OA
BRANCH  12  13
ATOM     13  C   UNL     1      12.572   6.724   7.410  0.00  0.00    +0.208 C 
BRANCH  13  14
ATOM     14  C   UNL     1      11.204   7.247   7.018  0.00  0.00    +0.011 A 
ATOM     15  C   UNL     1      10.009   6.622   7.388  0.00  0.00    +0.010 A 
ATOM     16  C   UNL     1       8.791   7.215   7.062  0.00  0.00    +0.020 A 
ATOM     17  C   UNL     1       8.806   8.419   6.377  0.00  0.00    +0.111 A 
ATOM     18  N   UNL     1       9.935   9.049   5.994  0.00  0.00    -0.263 NA
ATOM     19  C   UNL     1      11.101   8.452   6.324  0.00  0.00    +0.118 A 
ENDBRANCH  13  14
BRANCH  13  20
ATOM     20  C   UNL     1      13.538   7.099   6.290  0.00  0.00    +0.034 C 
ATOM     21  C   UNL     1      13.752   6.170   5.119  0.00  0.00    +0.008 C 
ATOM     22  C   UNL     1      14.874   6.420   6.089  0.00  0.00    +0.008 C 
ENDBRANCH  13  20
ENDBRANCH  12  13
ENDBRANCH   5  12
TORSDOF 5
ENDMDL
MODEL 8
REMARK VINA RESULT:      -6.8      2.766      3.671
REMARK  Name = ZINC001228612316
REMARK  5 active torsions:
REMARK  status: ('A' for Active; 'I' for Inactive)
REMARK    1  A    between atoms: C_2  and  C_4
REMARK    2  A    between atoms: C_8  and  O_9
REMARK    3  A    between atoms: O_9  and  C_10
REMARK    4  A    between atoms: C_10  and  C_11
REMARK    5  A    between atoms: C_10  and  C_17
REMARK                            x       y       z     vdW  Elec       q    Type
REMARK                         _______ _______ _______ _____ _____    ______ ____
ROOT
ATOM      1  C   UNL     1      13.160   4.759  13.086  0.00  0.00    +0.040 A 
ATOM      2  C   UNL     1      12.064   5.629  13.073  0.00  0.00    +0.013 A 
ATOM      3  C   UNL     1      11.615   6.169  11.867  0.00  0.00    +0.004 A 
ATOM      4  C   UNL     1      12.255   5.844  10.668  0.00  0.00    +0.046 A 
ATOM      5  C   UNL     1      13.351   4.981  10.670  0.00  0.00    +0.122 A 
ATOM      6  C   UNL     1      13.799   4.439  11.882  0.00  0.00    +0.058 A 
ENDROOT
BRANCH   1   8
ATOM      7  N   UNL     1      12.643   4.088  15.378  0.00  0.00    -0.325 N 
ATOM      8  C   UNL     1      13.590   4.197  14.395  0.00  0.00    +0.242 C 
ATOM      9  O   UNL     1      14.736   3.806  14.583  0.00  0.00    -0.270 OA
ATOM     10  H   UNL     1      12.930   3.606  16.220  0.00  0.00    +0.145 HD
ATOM     11  H   UNL     1      11.655   4.168  15.196  0.00  0.00    +0.145 HD
ENDBRANCH   1   8
BRANCH   5  12
ATOM     12  O   UNL     1      14.103   4.646   9.577  0.00  0.00    -0.484 OA
BRANCH  12  13
ATOM     13  C   UNL     1      13.619   3.624   8.690  0.00  0.00    +0.208 C 
BRANCH  13  14
ATOM     14  C   UNL     1      13.823   3.955   7.225  0.00  0.00    +0.011 A 
ATOM     15  C   UNL     1      15.035   4.416   6.704  0.00  0.00    +0.010 A 
ATOM     16  C   UNL     1      15.166   4.613   5.330  0.00  0.00    +0.020 A 
ATOM     17  C   UNL     1      14.077   4.339   4.518  0.00  0.00    +0.111 A 
ATOM     18  N   UNL     1      12.888   3.903   4.982  0.00  0.00    -0.263 NA
ATOM     19  C   UNL     1      12.791   3.719   6.317  0.00  0.00    +0.118 A 
ENDBRANCH  13  14
BRANCH  13  20
ATOM     20  C   UNL     1      14.363   2.322   8.968  0.00  0.00    +0.034 C 
ATOM     21  C   UNL     1      13.830   1.008   8.448  0.00  0.00    +0.008 C 
ATOM     22  C   UNL     1      13.856   1.270   9.929  0.00  0.00    +0.008 C 
ENDBRANCH  13  20
ENDBRANCH  12  13
ENDBRANCH   5  12
TORSDOF 5
ENDMDL
MODEL 9
REMARK VINA RESULT:      -6.8      2.896      5.990
REMARK  Name = ZINC001228612316
REMARK  5 active torsions:
REMARK  status: ('A' for Active; 'I' for Inactive)
REMARK    1  A    between atoms: C_2  and  C_4
REMARK    2  A    between atoms: C_8  and  O_9
REMARK    3  A    between atoms: O_9  and  C_10
REMARK    4  A    between atoms: C_10  and  C_11
REMARK    5  A    between atoms: C_10  and  C_17
REMARK                            x       y       z     vdW  Elec       q    Type
REMARK                         _______ _______ _______ _____ _____    ______ ____
ROOT
ATOM      1  C   UNL     1      16.958   4.153   8.949  0.00  0.00    +0.040 A 
ATOM      2  C   UNL     1      17.001   3.483   7.721  0.00  0.00    +0.013 A 
ATOM      3  C   UNL     1      15.825   3.000   7.147  0.00  0.00    +0.004 A 
ATOM      4  C   UNL     1      14.599   3.182   7.792  0.00  0.00    +0.046 A 
ATOM      5  C   UNL     1      14.544   3.845   9.018  0.00  0.00    +0.122 A 
ATOM      6  C   UNL     1      15.726   4.331   9.592  0.00  0.00    +0.058 A 
ENDROOT
BRANCH   1   8
ATOM      7  N   UNL     1      19.348   3.878   9.373  0.00  0.00    -0.325 N 
ATOM      8  C   UNL     1      18.236   4.665   9.512  0.00  0.00    +0.242 C 
ATOM      9  O   UNL     1      18.310   5.764  10.048  0.00  0.00    -0.270 OA
ATOM     10  H   UNL     1      20.224   4.291   9.667  0.00  0.00    +0.145 HD
ATOM     11  H   UNL     1      19.387   3.094   8.741  0.00  0.00    +0.145 HD
ENDBRANCH   1   8
BRANCH   5  12
ATOM     12  O   UNL     1      13.420   4.021   9.779  0.00  0.00    -0.484 OA
BRANCH  12  13
ATOM     13  C   UNL     1      13.009   5.357  10.109  0.00  0.00    +0.208 C 
BRANCH  13  14
ATOM     14  C   UNL     1      12.458   6.126   8.923  0.00  0.00    +0.011 A 
ATOM     15  C   UNL     1      11.328   5.723   8.206  0.00  0.00    +0.010 A 
ATOM     16  C   UNL     1      10.835   6.533   7.185  0.00  0.00    +0.020 A 
ATOM     17  C   UNL     1      11.488   7.724   6.914  0.00  0.00    +0.111 A 
ATOM     18  N   UNL     1      12.586   8.144   7.575  0.00  0.00    -0.263 NA
ATOM     19  C   UNL     1      13.041   7.340   8.561  0.00  0.00    +0.118 A 
ENDBRANCH  13  14
BRANCH  13  20
ATOM     20  C   UNL     1      11.908   5.301  11.163  0.00  0.00    +0.034 C 
ATOM     21  C   UNL     1      11.417   6.565  11.827  0.00  0.00    +0.008 C 
ATOM     22  C   UNL     1      12.161   5.538  12.636  0.00  0.00    +0.008 C 
ENDBRANCH  13  20
ENDBRANCH  12  13
ENDBRANCH   5  12
TORSDOF 5
ENDMDL
