MODEL 1
REMARK VINA RESULT:      -6.0      0.000      0.000
REMARK  Name = ZINC001228612316
REMARK  5 active torsions:
REMARK  status: ('A' for Active; 'I' for Inactive)
REMARK    1  A    between atoms: C_2  and  C_4
REMARK    2  A    between atoms: C_8  and  O_9
REMARK    3  A    between atoms: O_9  and  C_10
REMARK    4  A    between atoms: C_10  and  C_11
REMARK    5  A    between atoms: C_10  and  C_17
REMARK                            x       y       z     vdW  Elec       q    Type
REMARK                         _______ _______ _______ _____ _____    ______ ____
ROOT
ATOM      1  C   UNL     1      34.899  24.875  17.244  0.00  0.00    +0.040 A 
ATOM      2  C   UNL     1      35.895  25.615  16.602  0.00  0.00    +0.013 A 
ATOM      3  C   UNL     1      36.336  25.224  15.335  0.00  0.00    +0.004 A 
ATOM      4  C   UNL     1      35.774  24.105  14.712  0.00  0.00    +0.046 A 
ATOM      5  C   UNL     1      34.772  23.368  15.347  0.00  0.00    +0.122 A 
ATOM      6  C   UNL     1      34.364  23.742  16.623  0.00  0.00    +0.058 A 
ENDROOT
BRANCH   1   8
ATOM      7  N   UNL     1      33.215  25.976  18.619  0.00  0.00    -0.325 N 
ATOM      8  C   UNL     1      34.358  25.230  18.580  0.00  0.00    +0.242 C 
ATOM      9  O   UNL     1      34.873  24.819  19.613  0.00  0.00    -0.270 OA
ATOM     10  H   UNL     1      32.790  26.079  19.533  0.00  0.00    +0.145 HD
ATOM     11  H   UNL     1      32.621  26.093  17.812  0.00  0.00    +0.145 HD
ENDBRANCH   1   8
BRANCH   5  12
ATOM     12  O   UNL     1      34.281  22.298  14.651  0.00  0.00    -0.484 OA
BRANCH  12  13
ATOM     13  C   UNL     1      32.898  22.338  14.252  0.00  0.00    +0.208 C 
BRANCH  13  14
ATOM     14  C   UNL     1      32.804  22.947  12.869  0.00  0.00    +0.011 A 
ATOM     15  C   UNL     1      31.834  23.921  12.594  0.00  0.00    +0.010 A 
ATOM     16  C   UNL     1      31.742  24.476  11.323  0.00  0.00    +0.020 A 
ATOM     17  C   UNL     1      32.631  24.039  10.358  0.00  0.00    +0.111 A 
ATOM     18  N   UNL     1      33.577  23.101  10.576  0.00  0.00    -0.263 NA
ATOM     19  C   UNL     1      33.641  22.575  11.824  0.00  0.00    +0.118 A 
ENDBRANCH  13  14
BRANCH  13  20
ATOM     20  C   UNL     1      32.330  20.936  14.249  0.00  0.00    +0.034 C 
ATOM     21  C   UNL     1      30.992  20.611  13.618  0.00  0.00    +0.008 C 
ATOM     22  C   UNL     1      31.131  20.584  15.108  0.00  0.00    +0.008 C 
ENDBRANCH  13  20
ENDBRANCH  12  13
ENDBRANCH   5  12
TORSDOF 5
ENDMDL
MODEL 2
REMARK VINA RESULT:      -6.0      3.939      6.125
REMARK  Name = ZINC001228612316
REMARK  5 active torsions:
REMARK  status: ('A' for Active; 'I' for Inactive)
REMARK    1  A    between atoms: C_2  and  C_4
REMARK    2  A    between atoms: C_8  and  O_9
REMARK    3  A    between atoms: O_9  and  C_10
REMARK    4  A    between atoms: C_10  and  C_11
REMARK    5  A    between atoms: C_10  and  C_17
REMARK                            x       y       z     vdW  Elec       q    Type
REMARK                         _______ _______ _______ _____ _____    ______ ____
ROOT
ATOM      1  C   UNL     1      33.228  23.632  10.384  0.00  0.00    +0.040 A 
ATOM      2  C   UNL     1      32.146  24.482  10.628  0.00  0.00    +0.013 A 
ATOM      3  C   UNL     1      31.440  24.372  11.828  0.00  0.00    +0.004 A 
ATOM      4  C   UNL     1      31.822  23.423  12.782  0.00  0.00    +0.046 A 
ATOM      5  C   UNL     1      32.909  22.577  12.545  0.00  0.00    +0.122 A 
ATOM      6  C   UNL     1      33.584  22.668  11.333  0.00  0.00    +0.058 A 
ENDROOT
BRANCH   1   8
ATOM      7  N   UNL     1      34.481  24.921   8.739  0.00  0.00    -0.325 N 
ATOM      8  C   UNL     1      34.045  23.693   9.146  0.00  0.00    +0.242 C 
ATOM      9  O   UNL     1      34.377  22.679   8.543  0.00  0.00    -0.270 OA
ATOM     10  H   UNL     1      35.153  24.918   7.981  0.00  0.00    +0.145 HD
ATOM     11  H   UNL     1      34.466  25.726   9.347  0.00  0.00    +0.145 HD
ENDBRANCH   1   8
BRANCH   5  12
ATOM     12  O   UNL     1      33.209  21.691  13.543  0.00  0.00    -0.484 OA
BRANCH  12  13
ATOM     13  C   UNL     1      32.207  20.721  13.901  0.00  0.00    +0.208 C 
BRANCH  13  14
ATOM     14  C   UNL     1      32.704  19.341  13.524  0.00  0.00    +0.011 A 
ATOM     15  C   UNL     1      32.171  18.206  14.150  0.00  0.00    +0.010 A 
ATOM     16  C   UNL     1      32.631  16.940  13.810  0.00  0.00    +0.020 A 
ATOM     17  C   UNL     1      33.616  16.845  12.844  0.00  0.00    +0.111 A 
ATOM     18  N   UNL     1      34.161  17.910  12.217  0.00  0.00    -0.263 NA
ATOM     19  C   UNL     1      33.696  19.132  12.573  0.00  0.00    +0.118 A 
ENDBRANCH  13  14
BRANCH  13  20
ATOM     20  C   UNL     1      31.936  20.795  15.387  0.00  0.00    +0.034 C 
ATOM     21  C   UNL     1      30.534  20.924  15.944  0.00  0.00    +0.008 C 
ATOM     22  C   UNL     1      31.471  22.089  16.026  0.00  0.00    +0.008 C 
ENDBRANCH  13  20
ENDBRANCH  12  13
ENDBRANCH   5  12
TORSDOF 5
ENDMDL
MODEL 3
REMARK VINA RESULT:      -5.7      3.430      7.419
REMARK  Name = ZINC001228612316
REMARK  5 active torsions:
REMARK  status: ('A' for Active; 'I' for Inactive)
REMARK    1  A    between atoms: C_2  and  C_4
REMARK    2  A    between atoms: C_8  and  O_9
REMARK    3  A    between atoms: O_9  and  C_10
REMARK    4  A    between atoms: C_10  and  C_11
REMARK    5  A    between atoms: C_10  and  C_17
REMARK                            x       y       z     vdW  Elec       q    Type
REMARK                         _______ _______ _______ _____ _____    ______ ____
ROOT
ATOM      1  C   UNL     1      34.535  21.241   8.108  0.00  0.00    +0.040 A 
ATOM      2  C   UNL     1      34.412  19.853   8.017  0.00  0.00    +0.013 A 
ATOM      3  C   UNL     1      34.162  19.106   9.172  0.00  0.00    +0.004 A 
ATOM      4  C   UNL     1      34.026  19.748  10.407  0.00  0.00    +0.046 A 
ATOM      5  C   UNL     1      34.140  21.138  10.500  0.00  0.00    +0.122 A 
ATOM      6  C   UNL     1      34.424  21.870   9.352  0.00  0.00    +0.058 A 
ENDROOT
BRANCH   1   8
ATOM      7  N   UNL     1      35.093  23.420   7.169  0.00  0.00    -0.325 N 
ATOM      8  C   UNL     1      34.779  22.113   6.931  0.00  0.00    +0.242 C 
ATOM      9  O   UNL     1      34.765  21.670   5.789  0.00  0.00    -0.270 OA
ATOM     10  H   UNL     1      35.396  23.951   6.362  0.00  0.00    +0.145 HD
ATOM     11  H   UNL     1      35.384  23.746   8.079  0.00  0.00    +0.145 HD
ENDBRANCH   1   8
BRANCH   5  12
ATOM     12  O   UNL     1      33.981  21.671  11.749  0.00  0.00    -0.484 OA
BRANCH  12  13
ATOM     13  C   UNL     1      32.678  22.175  12.100  0.00  0.00    +0.208 C 
BRANCH  13  14
ATOM     14  C   UNL     1      32.371  21.787  13.531  0.00  0.00    +0.011 A 
ATOM     15  C   UNL     1      31.256  20.990  13.820  0.00  0.00    +0.010 A 
ATOM     16  C   UNL     1      30.969  20.639  15.133  0.00  0.00    +0.020 A 
ATOM     17  C   UNL     1      31.815  21.098  16.128  0.00  0.00    +0.111 A 
ATOM     18  N   UNL     1      32.898  21.871  15.897  0.00  0.00    -0.263 NA
ATOM     19  C   UNL     1      33.150  22.200  14.606  0.00  0.00    +0.118 A 
ENDBRANCH  13  14
BRANCH  13  20
ATOM     20  C   UNL     1      32.659  23.680  11.946  0.00  0.00    +0.034 C 
ATOM     21  C   UNL     1      31.386  24.487  12.098  0.00  0.00    +0.008 C 
ATOM     22  C   UNL     1      32.002  24.327  10.743  0.00  0.00    +0.008 C 
ENDBRANCH  13  20
ENDBRANCH  12  13
ENDBRANCH   5  12
TORSDOF 5
ENDMDL
MODEL 4
REMARK VINA RESULT:      -5.6      2.929      6.475
REMARK  Name = ZINC001228612316
REMARK  5 active torsions:
REMARK  status: ('A' for Active; 'I' for Inactive)
REMARK    1  A    between atoms: C_2  and  C_4
REMARK    2  A    between atoms: C_8  and  O_9
REMARK    3  A    between atoms: O_9  and  C_10
REMARK    4  A    between atoms: C_10  and  C_11
REMARK    5  A    between atoms: C_10  and  C_17
REMARK                            x       y       z     vdW  Elec       q    Type
REMARK                         _______ _______ _______ _____ _____    ______ ____
ROOT
ATOM      1  C   UNL     1      32.860  23.764  10.145  0.00  0.00    +0.040 A 
ATOM      2  C   UNL     1      31.794  24.476  10.701  0.00  0.00    +0.013 A 
ATOM      3  C   UNL     1      31.534  24.370  12.069  0.00  0.00    +0.004 A 
ATOM      4  C   UNL     1      32.344  23.564  12.877  0.00  0.00    +0.046 A 
ATOM      5  C   UNL     1      33.416  22.858  12.325  0.00  0.00    +0.122 A 
ATOM      6  C   UNL     1      33.646  22.940  10.956  0.00  0.00    +0.058 A 
ENDROOT
BRANCH   1   8
ATOM      7  N   UNL     1      34.472  24.277   8.390  0.00  0.00    -0.325 N 
ATOM      8  C   UNL     1      33.220  23.834   8.706  0.00  0.00    +0.242 C 
ATOM      9  O   UNL     1      32.453  23.450   7.831  0.00  0.00    -0.270 OA
ATOM     10  H   UNL     1      34.740  24.177   7.419  0.00  0.00    +0.145 HD
ATOM     11  H   UNL     1      35.211  24.334   9.075  0.00  0.00    +0.145 HD
ENDBRANCH   1   8
BRANCH   5  12
ATOM     12  O   UNL     1      34.153  22.106  13.199  0.00  0.00    -0.484 OA
BRANCH  12  13
ATOM     13  C   UNL     1      33.602  21.871  14.508  0.00  0.00    +0.208 C 
BRANCH  13  14
ATOM     14  C   UNL     1      33.328  20.390  14.666  0.00  0.00    +0.011 A 
ATOM     15  C   UNL     1      34.106  19.620  15.542  0.00  0.00    +0.010 A 
ATOM     16  C   UNL     1      33.861  18.260  15.683  0.00  0.00    +0.020 A 
ATOM     17  C   UNL     1      32.835  17.705  14.939  0.00  0.00    +0.111 A 
ATOM     18  N   UNL     1      32.063  18.406  14.080  0.00  0.00    -0.263 NA
ATOM     19  C   UNL     1      32.329  19.730  13.961  0.00  0.00    +0.118 A 
ENDBRANCH  13  14
BRANCH  13  20
ATOM     20  C   UNL     1      34.581  22.341  15.562  0.00  0.00    +0.034 C 
ATOM     21  C   UNL     1      34.125  23.026  16.834  0.00  0.00    +0.008 C 
ATOM     22  C   UNL     1      34.833  23.820  15.780  0.00  0.00    +0.008 C 
ENDBRANCH  13  20
ENDBRANCH  12  13
ENDBRANCH   5  12
TORSDOF 5
ENDMDL
MODEL 5
REMARK VINA RESULT:      -5.6      4.914      6.741
REMARK  Name = ZINC001228612316
REMARK  5 active torsions:
REMARK  status: ('A' for Active; 'I' for Inactive)
REMARK    1  A    between atoms: C_2  and  C_4
REMARK    2  A    between atoms: C_8  and  O_9
REMARK    3  A    between atoms: O_9  and  C_10
REMARK    4  A    between atoms: C_10  and  C_11
REMARK    5  A    between atoms: C_10  and  C_17
REMARK                            x       y       z     vdW  Elec       q    Type
REMARK                         _______ _______ _______ _____ _____    ______ ____
ROOT
ATOM      1  C   UNL     1      32.199  20.053  14.895  0.00  0.00    +0.040 A 
ATOM      2  C   UNL     1      33.171  20.205  15.886  0.00  0.00    +0.013 A 
ATOM      3  C   UNL     1      33.944  19.105  16.268  0.00  0.00    +0.004 A 
ATOM      4  C   UNL     1      33.751  17.864  15.653  0.00  0.00    +0.046 A 
ATOM      5  C   UNL     1      32.785  17.711  14.655  0.00  0.00    +0.122 A 
ATOM      6  C   UNL     1      31.995  18.801  14.306  0.00  0.00    +0.058 A 
ENDROOT
BRANCH   1   8
ATOM      7  N   UNL     1      31.205  22.251  15.236  0.00  0.00    -0.325 N 
ATOM      8  C   UNL     1      31.348  21.170  14.414  0.00  0.00    +0.242 C 
ATOM      9  O   UNL     1      30.844  21.161  13.298  0.00  0.00    -0.270 OA
ATOM     10  H   UNL     1      30.744  23.054  14.825  0.00  0.00    +0.145 HD
ATOM     11  H   UNL     1      31.816  22.415  16.022  0.00  0.00    +0.145 HD
ENDBRANCH   1   8
BRANCH   5  12
ATOM     12  O   UNL     1      32.680  16.461  14.108  0.00  0.00    -0.484 OA
BRANCH  12  13
ATOM     13  C   UNL     1      32.733  16.353  12.673  0.00  0.00    +0.208 C 
BRANCH  13  14
ATOM     14  C   UNL     1      34.151  16.620  12.213  0.00  0.00    +0.011 A 
ATOM     15  C   UNL     1      34.412  17.647  11.297  0.00  0.00    +0.010 A 
ATOM     16  C   UNL     1      35.711  17.889  10.869  0.00  0.00    +0.020 A 
ATOM     17  C   UNL     1      36.721  17.090  11.375  0.00  0.00    +0.111 A 
ATOM     18  N   UNL     1      36.516  16.086  12.254  0.00  0.00    -0.263 NA
ATOM     19  C   UNL     1      35.238  15.872  12.651  0.00  0.00    +0.118 A 
ENDBRANCH  13  14
BRANCH  13  20
ATOM     20  C   UNL     1      32.295  14.967  12.253  0.00  0.00    +0.034 C 
ATOM     21  C   UNL     1      32.423  14.482  10.824  0.00  0.00    +0.008 C 
ATOM     22  C   UNL     1      31.066  14.773  11.386  0.00  0.00    +0.008 C 
ENDBRANCH  13  20
ENDBRANCH  12  13
ENDBRANCH   5  12
TORSDOF 5
ENDMDL
MODEL 6
REMARK VINA RESULT:      -5.5      4.301      6.605
REMARK  Name = ZINC001228612316
REMARK  5 active torsions:
REMARK  status: ('A' for Active; 'I' for Inactive)
REMARK    1  A    between atoms: C_2  and  C_4
REMARK    2  A    between atoms: C_8  and  O_9
REMARK    3  A    between atoms: O_9  and  C_10
REMARK    4  A    between atoms: C_10  and  C_11
REMARK    5  A    between atoms: C_10  and  C_17
REMARK                            x       y       z     vdW  Elec       q    Type
REMARK                         _______ _______ _______ _____ _____    ______ ____
ROOT
ATOM      1  C   UNL     1      32.192  21.786  13.408  0.00  0.00    +0.040 A 
ATOM      2  C   UNL     1      31.214  21.601  14.389  0.00  0.00    +0.013 A 
ATOM      3  C   UNL     1      31.147  20.385  15.074  0.00  0.00    +0.004 A 
ATOM      4  C   UNL     1      32.060  19.366  14.785  0.00  0.00    +0.046 A 
ATOM      5  C   UNL     1      33.044  19.551  13.812  0.00  0.00    +0.122 A 
ATOM      6  C   UNL     1      33.082  20.751  13.108  0.00  0.00    +0.058 A 
ENDROOT
BRANCH   1   8
ATOM      7  N   UNL     1      31.451  24.050  12.893  0.00  0.00    -0.325 N 
ATOM      8  C   UNL     1      32.349  23.051  12.647  0.00  0.00    +0.242 C 
ATOM      9  O   UNL     1      33.283  23.225  11.874  0.00  0.00    -0.270 OA
ATOM     10  H   UNL     1      31.667  24.946  12.473  0.00  0.00    +0.145 HD
ATOM     11  H   UNL     1      30.853  24.048  13.706  0.00  0.00    +0.145 HD
ENDBRANCH   1   8
BRANCH   5  12
ATOM     12  O   UNL     1      33.895  18.499  13.610  0.00  0.00    -0.484 OA
BRANCH  12  13
ATOM     13  C   UNL     1      33.435  17.186  13.981  0.00  0.00    +0.208 C 
BRANCH  13  14
ATOM     14  C   UNL     1      33.090  16.414  12.725  0.00  0.00    +0.011 A 
ATOM     15  C   UNL     1      31.979  15.560  12.707  0.00  0.00    +0.010 A 
ATOM     16  C   UNL     1      31.665  14.846  11.558  0.00  0.00    +0.020 A 
ATOM     17  C   UNL     1      32.476  15.010  10.449  0.00  0.00    +0.111 A 
ATOM     18  N   UNL     1      33.558  15.817  10.422  0.00  0.00    -0.263 NA
ATOM     19  C   UNL     1      33.842  16.498  11.559  0.00  0.00    +0.118 A 
ENDBRANCH  13  14
BRANCH  13  20
ATOM     20  C   UNL     1      34.518  16.470  14.758  0.00  0.00    +0.034 C 
ATOM     21  C   UNL     1      34.310  15.087  15.338  0.00  0.00    +0.008 C 
ATOM     22  C   UNL     1      34.391  16.267  16.255  0.00  0.00    +0.008 C 
ENDBRANCH  13  20
ENDBRANCH  12  13
ENDBRANCH   5  12
TORSDOF 5
ENDMDL
MODEL 7
REMARK VINA RESULT:      -5.5      2.345      6.131
REMARK  Name = ZINC001228612316
REMARK  5 active torsions:
REMARK  status: ('A' for Active; 'I' for Inactive)
REMARK    1  A    between atoms: C_2  and  C_4
REMARK    2  A    between atoms: C_8  and  O_9
REMARK    3  A    between atoms: O_9  and  C_10
REMARK    4  A    between atoms: C_10  and  C_11
REMARK    5  A    between atoms: C_10  and  C_17
REMARK                            x       y       z     vdW  Elec       q    Type
REMARK                         _______ _______ _______ _____ _____    ______ ____
ROOT
ATOM      1  C   UNL     1      33.702  23.080  10.751  0.00  0.00    +0.040 A 
ATOM      2  C   UNL     1      32.740  23.972  10.270  0.00  0.00    +0.013 A 
ATOM      3  C   UNL     1      31.740  24.435  11.130  0.00  0.00    +0.004 A 
ATOM      4  C   UNL     1      31.712  24.015  12.464  0.00  0.00    +0.046 A 
ATOM      5  C   UNL     1      32.678  23.130  12.949  0.00  0.00    +0.122 A 
ATOM      6  C   UNL     1      33.648  22.646  12.078  0.00  0.00    +0.058 A 
ENDROOT
BRANCH   1   8
ATOM      7  N   UNL     1      35.045  23.171   8.719  0.00  0.00    -0.325 N 
ATOM      8  C   UNL     1      34.811  22.555   9.914  0.00  0.00    +0.242 C 
ATOM      9  O   UNL     1      35.534  21.645  10.302  0.00  0.00    -0.270 OA
ATOM     10  H   UNL     1      35.892  22.889   8.240  0.00  0.00    +0.145 HD
ATOM     11  H   UNL     1      34.663  24.079   8.497  0.00  0.00    +0.145 HD
ENDBRANCH   1   8
BRANCH   5  12
ATOM     12  O   UNL     1      32.570  22.788  14.269  0.00  0.00    -0.484 OA
BRANCH  12  13
ATOM     13  C   UNL     1      33.023  21.479  14.660  0.00  0.00    +0.208 C 
BRANCH  13  14
ATOM     14  C   UNL     1      33.829  21.600  15.937  0.00  0.00    +0.011 A 
ATOM     15  C   UNL     1      33.944  20.503  16.802  0.00  0.00    +0.010 A 
ATOM     16  C   UNL     1      34.677  20.614  17.976  0.00  0.00    +0.020 A 
ATOM     17  C   UNL     1      35.280  21.828  18.254  0.00  0.00    +0.111 A 
ATOM     18  N   UNL     1      35.192  22.912  17.453  0.00  0.00    -0.263 NA
ATOM     19  C   UNL     1      34.467  22.775  16.316  0.00  0.00    +0.118 A 
ENDBRANCH  13  14
BRANCH  13  20
ATOM     20  C   UNL     1      31.831  20.572  14.873  0.00  0.00    +0.034 C 
ATOM     21  C   UNL     1      31.815  19.138  14.387  0.00  0.00    +0.008 C 
ATOM     22  C   UNL     1      30.956  20.157  13.707  0.00  0.00    +0.008 C 
ENDBRANCH  13  20
ENDBRANCH  12  13
ENDBRANCH   5  12
TORSDOF 5
ENDMDL
MODEL 8
REMARK VINA RESULT:      -5.4      5.119      8.321
REMARK  Name = ZINC001228612316
REMARK  5 active torsions:
REMARK  status: ('A' for Active; 'I' for Inactive)
REMARK    1  A    between atoms: C_2  and  C_4
REMARK    2  A    between atoms: C_8  and  O_9
REMARK    3  A    between atoms: O_9  and  C_10
REMARK    4  A    between atoms: C_10  and  C_11
REMARK    5  A    between atoms: C_10  and  C_17
REMARK                            x       y       z     vdW  Elec       q    Type
REMARK                         _______ _______ _______ _____ _____    ______ ____
ROOT
ATOM      1  C   UNL     1      32.725  14.993  12.288  0.00  0.00    +0.040 A 
ATOM      2  C   UNL     1      33.670  14.026  12.643  0.00  0.00    +0.013 A 
ATOM      3  C   UNL     1      34.343  14.135  13.862  0.00  0.00    +0.004 A 
ATOM      4  C   UNL     1      34.064  15.201  14.725  0.00  0.00    +0.046 A 
ATOM      5  C   UNL     1      33.114  16.164  14.377  0.00  0.00    +0.122 A 
ATOM      6  C   UNL     1      32.475  16.069  13.146  0.00  0.00    +0.058 A 
ENDROOT
BRANCH   1   8
ATOM      7  N   UNL     1      30.676  14.456  11.084  0.00  0.00    -0.325 N 
ATOM      8  C   UNL     1      31.949  14.944  11.023  0.00  0.00    +0.242 C 
ATOM      9  O   UNL     1      32.403  15.384   9.973  0.00  0.00    -0.270 OA
ATOM     10  H   UNL     1      30.124  14.570  10.242  0.00  0.00    +0.145 HD
ATOM     11  H   UNL     1      30.181  14.350  11.957  0.00  0.00    +0.145 HD
ENDBRANCH   1   8
BRANCH   5  12
ATOM     12  O   UNL     1      32.906  17.160  15.292  0.00  0.00    -0.484 OA
BRANCH  12  13
ATOM     13  C   UNL     1      33.762  18.315  15.229  0.00  0.00    +0.208 C 
BRANCH  13  14
ATOM     14  C   UNL     1      33.022  19.438  14.532  0.00  0.00    +0.011 A 
ATOM     15  C   UNL     1      31.673  19.679  14.825  0.00  0.00    +0.010 A 
ATOM     16  C   UNL     1      30.991  20.703  14.181  0.00  0.00    +0.020 A 
ATOM     17  C   UNL     1      31.684  21.465  13.257  0.00  0.00    +0.111 A 
ATOM     18  N   UNL     1      32.981  21.266  12.940  0.00  0.00    -0.263 NA
ATOM     19  C   UNL     1      33.619  20.256  13.581  0.00  0.00    +0.118 A 
ENDBRANCH  13  14
BRANCH  13  20
ATOM     20  C   UNL     1      34.154  18.733  16.629  0.00  0.00    +0.034 C 
ATOM     21  C   UNL     1      34.875  20.035  16.908  0.00  0.00    +0.008 C 
ATOM     22  C   UNL     1      35.608  18.738  17.058  0.00  0.00    +0.008 C 
ENDBRANCH  13  20
ENDBRANCH  12  13
ENDBRANCH   5  12
TORSDOF 5
ENDMDL
MODEL 9
REMARK VINA RESULT:      -5.4      2.931      6.999
REMARK  Name = ZINC001228612316
REMARK  5 active torsions:
REMARK  status: ('A' for Active; 'I' for Inactive)
REMARK    1  A    between atoms: C_2  and  C_4
REMARK    2  A    between atoms: C_8  and  O_9
REMARK    3  A    between atoms: O_9  and  C_10
REMARK    4  A    between atoms: C_10  and  C_11
REMARK    5  A    between atoms: C_10  and  C_17
REMARK                            x       y       z     vdW  Elec       q    Type
REMARK                         _______ _______ _______ _____ _____    ______ ____
ROOT
ATOM      1  C   UNL     1      32.520  19.203  15.085  0.00  0.00    +0.040 A 
ATOM      2  C   UNL     1      31.334  19.835  14.702  0.00  0.00    +0.013 A 
ATOM      3  C   UNL     1      31.062  21.126  15.162  0.00  0.00    +0.004 A 
ATOM      4  C   UNL     1      31.976  21.784  15.991  0.00  0.00    +0.046 A 
ATOM      5  C   UNL     1      33.167  21.158  16.369  0.00  0.00    +0.122 A 
ATOM      6  C   UNL     1      33.414  19.859  15.937  0.00  0.00    +0.058 A 
ENDROOT
BRANCH   1   8
ATOM      7  N   UNL     1      33.780  17.141  15.399  0.00  0.00    -0.325 N 
ATOM      8  C   UNL     1      32.899  17.843  14.628  0.00  0.00    +0.242 C 
ATOM      9  O   UNL     1      32.395  17.335  13.633  0.00  0.00    -0.270 OA
ATOM     10  H   UNL     1      33.906  16.169  15.145  0.00  0.00    +0.145 HD
ATOM     11  H   UNL     1      33.994  17.407  16.349  0.00  0.00    +0.145 HD
ENDBRANCH   1   8
BRANCH   5  12
ATOM     12  O   UNL     1      34.000  21.887  17.173  0.00  0.00    -0.484 OA
BRANCH  12  13
ATOM     13  C   UNL     1      34.236  23.262  16.819  0.00  0.00    +0.208 C 
BRANCH  13  14
ATOM     14  C   UNL     1      34.610  24.033  18.067  0.00  0.00    +0.011 A 
ATOM     15  C   UNL     1      35.638  23.569  18.899  0.00  0.00    +0.010 A 
ATOM     16  C   UNL     1      35.978  24.272  20.048  0.00  0.00    +0.020 A 
ATOM     17  C   UNL     1      35.275  25.429  20.334  0.00  0.00    +0.111 A 
ATOM     18  N   UNL     1      34.274  25.910  19.565  0.00  0.00    -0.263 NA
ATOM     19  C   UNL     1      33.963  25.202  18.453  0.00  0.00    +0.118 A 
ENDBRANCH  13  14
BRANCH  13  20
ATOM     20  C   UNL     1      35.350  23.339  15.799  0.00  0.00    +0.034 C 
ATOM     21  C   UNL     1      35.816  24.657  15.214  0.00  0.00    +0.008 C 
ATOM     22  C   UNL     1      35.056  23.695  14.355  0.00  0.00    +0.008 C 
ENDBRANCH  13  20
ENDBRANCH  12  13
ENDBRANCH   5  12
TORSDOF 5
ENDMDL
