MODEL 1
REMARK VINA RESULT:      -7.8      0.000      0.000
REMARK  Name = ZINC000560333501
REMARK  5 active torsions:
REMARK  status: ('A' for Active; 'I' for Inactive)
REMARK    1  A    between atoms: C_2  and  C_3
REMARK    2  A    between atoms: C_7  and  C_8
REMARK    3  A    between atoms: C_8  and  C_9
REMARK    4  A    between atoms: N_11  and  C_12
REMARK    5  A    between atoms: C_12  and  C_13
REMARK                            x       y       z     vdW  Elec       q    Type
REMARK                         _______ _______ _______ _____ _____    ______ ____
ROOT
ATOM      1  C   UNL     1      26.523  21.799  17.687  0.00  0.00    +0.217 C 
ATOM      2  O   UNL     1      25.733  21.799  16.739  0.00  0.00    -0.275 OA
ATOM      3  N   UNL     1      26.301  22.502  18.858  0.00  0.00    -0.315 N 
ATOM      4  H   UNL     1      26.838  22.204  19.662  0.00  0.00    +0.149 HD
ENDROOT
BRANCH   1   5
ATOM      5  C   UNL     1      27.812  21.015  17.621  0.00  0.00    +0.131 C 
BRANCH   5  10
ATOM      6  C   UNL     1      28.862  18.519  14.906  0.00  0.00    +0.052 A 
ATOM      7  C   UNL     1      27.853  17.557  15.023  0.00  0.00    +0.019 A 
ATOM      8  C   UNL     1      26.831  17.731  15.956  0.00  0.00    +0.002 A 
ATOM      9  C   UNL     1      26.811  18.865  16.770  0.00  0.00    +0.004 A 
ATOM     10  C   UNL     1      27.810  19.843  16.662  0.00  0.00    -0.037 A 
ATOM     11  C   UNL     1      28.841  19.655  15.727  0.00  0.00    +0.023 A 
BRANCH   6  13
ATOM     12  N   UNL     1      30.780  18.184  13.191  0.00  0.00    -0.191 NA
ATOM     13  C   UNL     1      29.922  18.329  13.960  0.00  0.00    +0.099 C 
ENDBRANCH   6  13
ENDBRANCH   5  10
ENDBRANCH   1   5
BRANCH   3  14
ATOM     14  C   UNL     1      24.959  22.995  19.117  0.00  0.00    +0.108 C 
BRANCH  14  15
ATOM     15  C   UNL     1      24.852  24.413  19.710  0.00  0.00    +0.011 C 
ATOM     16  C   UNL     1      23.968  24.489  20.952  0.00  0.00    +0.033 C 
ATOM     17  C   UNL     1      22.546  24.057  20.627  0.00  0.00    +0.161 C 
ATOM     18  O   UNL     1      22.009  24.682  19.464  0.00  0.00    -0.373 OA
ATOM     19  C   UNL     1      22.830  24.947  18.290  0.00  0.00    +0.070 C 
ATOM     20  C   UNL     1      22.801  23.911  17.114  0.00  0.00    +0.035 C 
ATOM     21  C   UNL     1      21.606  24.664  16.530  0.00  0.00    +0.006 C 
ATOM     22  C   UNL     1      22.097  25.909  17.293  0.00  0.00    +0.035 C 
ATOM     23  C   UNL     1      24.244  25.392  18.684  0.00  0.00    +0.040 C 
ENDBRANCH  14  15
ENDBRANCH   3  14
TORSDOF 5
ENDMDL
MODEL 2
REMARK VINA RESULT:      -7.4      4.818      6.634
REMARK  Name = ZINC000560333501
REMARK  5 active torsions:
REMARK  status: ('A' for Active; 'I' for Inactive)
REMARK    1  A    between atoms: C_2  and  C_3
REMARK    2  A    between atoms: C_7  and  C_8
REMARK    3  A    between atoms: C_8  and  C_9
REMARK    4  A    between atoms: N_11  and  C_12
REMARK    5  A    between atoms: C_12  and  C_13
REMARK                            x       y       z     vdW  Elec       q    Type
REMARK                         _______ _______ _______ _____ _____    ______ ____
ROOT
ATOM      1  C   UNL     1      28.849  21.851  16.667  0.00  0.00    +0.217 C 
ATOM      2  O   UNL     1      28.416  21.360  17.713  0.00  0.00    -0.275 OA
ATOM      3  N   UNL     1      29.687  22.952  16.638  0.00  0.00    -0.315 N 
ATOM      4  H   UNL     1      30.213  23.085  15.783  0.00  0.00    +0.149 HD
ENDROOT
BRANCH   1   5
ATOM      5  C   UNL     1      28.477  21.266  15.325  0.00  0.00    +0.131 C 
BRANCH   5  10
ATOM      6  C   UNL     1      28.766  17.485  14.762  0.00  0.00    +0.052 A 
ATOM      7  C   UNL     1      27.672  17.020  15.502  0.00  0.00    +0.019 A 
ATOM      8  C   UNL     1      26.839  17.928  16.155  0.00  0.00    +0.002 A 
ATOM      9  C   UNL     1      27.090  19.299  16.068  0.00  0.00    +0.004 A 
ATOM     10  C   UNL     1      28.176  19.783  15.325  0.00  0.00    -0.037 A 
ATOM     11  C   UNL     1      29.017  18.861  14.679  0.00  0.00    +0.023 A 
BRANCH   6  13
ATOM     12  N   UNL     1      30.329  15.787  13.577  0.00  0.00    -0.191 NA
ATOM     13  C   UNL     1      29.633  16.549  14.108  0.00  0.00    +0.099 C 
ENDBRANCH   6  13
ENDBRANCH   5  10
ENDBRANCH   1   5
BRANCH   3  14
ATOM     14  C   UNL     1      30.339  23.350  17.873  0.00  0.00    +0.108 C 
BRANCH  14  15
ATOM     15  C   UNL     1      31.876  23.445  17.838  0.00  0.00    +0.011 C 
ATOM     16  C   UNL     1      32.558  22.154  17.396  0.00  0.00    +0.033 C 
ATOM     17  C   UNL     1      32.226  21.017  18.351  0.00  0.00    +0.161 C 
ATOM     18  O   UNL     1      32.402  21.353  19.725  0.00  0.00    -0.373 OA
ATOM     19  C   UNL     1      32.065  22.675  20.238  0.00  0.00    +0.070 C 
ATOM     20  C   UNL     1      30.660  22.878  20.903  0.00  0.00    +0.035 C 
ATOM     21  C   UNL     1      31.270  22.443  22.236  0.00  0.00    +0.006 C 
ATOM     22  C   UNL     1      32.639  22.884  21.681  0.00  0.00    +0.035 C 
ATOM     23  C   UNL     1      32.437  23.776  19.237  0.00  0.00    +0.040 C 
ENDBRANCH  14  15
ENDBRANCH   3  14
TORSDOF 5
ENDMDL
MODEL 3
REMARK VINA RESULT:      -7.3      5.066      8.814
REMARK  Name = ZINC000560333501
REMARK  5 active torsions:
REMARK  status: ('A' for Active; 'I' for Inactive)
REMARK    1  A    between atoms: C_2  and  C_3
REMARK    2  A    between atoms: C_7  and  C_8
REMARK    3  A    between atoms: C_8  and  C_9
REMARK    4  A    between atoms: N_11  and  C_12
REMARK    5  A    between atoms: C_12  and  C_13
REMARK                            x       y       z     vdW  Elec       q    Type
REMARK                         _______ _______ _______ _____ _____    ______ ____
ROOT
ATOM      1  C   UNL     1      31.322  19.398  13.941  0.00  0.00    +0.217 C 
ATOM      2  O   UNL     1      32.153  19.213  14.834  0.00  0.00    -0.275 OA
ATOM      3  N   UNL     1      31.260  20.562  13.194  0.00  0.00    -0.315 N 
ATOM      4  H   UNL     1      30.763  20.497  12.314  0.00  0.00    +0.149 HD
ENDROOT
BRANCH   1   5
ATOM      5  C   UNL     1      30.298  18.341  13.604  0.00  0.00    +0.131 C 
BRANCH   5  10
ATOM      6  C   UNL     1      27.426  19.305  15.954  0.00  0.00    +0.052 A 
ATOM      7  C   UNL     1      26.827  18.058  16.169  0.00  0.00    +0.019 A 
ATOM      8  C   UNL     1      27.365  16.917  15.576  0.00  0.00    +0.002 A 
ATOM      9  C   UNL     1      28.503  17.014  14.773  0.00  0.00    +0.004 A 
ATOM     10  C   UNL     1      29.122  18.253  14.553  0.00  0.00    -0.037 A 
ATOM     11  C   UNL     1      28.566  19.400  15.145  0.00  0.00    +0.023 A 
BRANCH   6  13
ATOM     12  N   UNL     1      26.398  21.434  17.022  0.00  0.00    -0.191 NA
ATOM     13  C   UNL     1      26.860  20.480  16.549  0.00  0.00    +0.099 C 
ENDBRANCH   6  13
ENDBRANCH   5  10
ENDBRANCH   1   5
BRANCH   3  14
ATOM     14  C   UNL     1      32.398  21.464  13.235  0.00  0.00    +0.108 C 
BRANCH  14  15
ATOM     15  C   UNL     1      33.253  21.548  11.957  0.00  0.00    +0.011 C 
ATOM     16  C   UNL     1      34.579  22.276  12.157  0.00  0.00    +0.033 C 
ATOM     17  C   UNL     1      34.342  23.711  12.603  0.00  0.00    +0.161 C 
ATOM     18  O   UNL     1      33.385  24.407  11.808  0.00  0.00    -0.373 OA
ATOM     19  C   UNL     1      32.196  23.745  11.289  0.00  0.00    +0.070 C 
ATOM     20  C   UNL     1      30.857  23.880  12.095  0.00  0.00    +0.035 C 
ATOM     21  C   UNL     1      30.564  25.163  11.317  0.00  0.00    +0.006 C 
ATOM     22  C   UNL     1      31.485  24.626  10.206  0.00  0.00    +0.035 C 
ATOM     23  C   UNL     1      32.503  22.309  10.843  0.00  0.00    +0.040 C 
ENDBRANCH  14  15
ENDBRANCH   3  14
TORSDOF 5
ENDMDL
MODEL 4
REMARK VINA RESULT:      -7.1      4.968      7.987
REMARK  Name = ZINC000560333501
REMARK  5 active torsions:
REMARK  status: ('A' for Active; 'I' for Inactive)
REMARK    1  A    between atoms: C_2  and  C_3
REMARK    2  A    between atoms: C_7  and  C_8
REMARK    3  A    between atoms: C_8  and  C_9
REMARK    4  A    between atoms: N_11  and  C_12
REMARK    5  A    between atoms: C_12  and  C_13
REMARK                            x       y       z     vdW  Elec       q    Type
REMARK                         _______ _______ _______ _____ _____    ______ ____
ROOT
ATOM      1  C   UNL     1      29.645  21.935  16.086  0.00  0.00    +0.217 C 
ATOM      2  O   UNL     1      30.384  21.765  17.060  0.00  0.00    -0.275 OA
ATOM      3  N   UNL     1      30.072  22.515  14.904  0.00  0.00    -0.315 N 
ATOM      4  H   UNL     1      29.496  22.337  14.090  0.00  0.00    +0.149 HD
ENDROOT
BRANCH   1   5
ATOM      5  C   UNL     1      28.195  21.514  16.131  0.00  0.00    +0.131 C 
BRANCH   5  10
ATOM      6  C   UNL     1      28.644  17.876  15.006  0.00  0.00    +0.052 A 
ATOM      7  C   UNL     1      27.499  17.285  15.552  0.00  0.00    +0.019 A 
ATOM      8  C   UNL     1      26.582  18.065  16.255  0.00  0.00    +0.002 A 
ATOM      9  C   UNL     1      26.801  19.435  16.412  0.00  0.00    +0.004 A 
ATOM     10  C   UNL     1      27.938  20.046  15.866  0.00  0.00    -0.037 A 
ATOM     11  C   UNL     1      28.863  19.251  15.168  0.00  0.00    +0.023 A 
BRANCH   6  13
ATOM     12  N   UNL     1      30.362  16.409  13.731  0.00  0.00    -0.191 NA
ATOM     13  C   UNL     1      29.596  17.069  14.301  0.00  0.00    +0.099 C 
ENDBRANCH   6  13
ENDBRANCH   5  10
ENDBRANCH   1   5
BRANCH   3  14
ATOM     14  C   UNL     1      31.501  22.634  14.676  0.00  0.00    +0.108 C 
BRANCH  14  15
ATOM     15  C   UNL     1      32.147  21.558  13.783  0.00  0.00    +0.011 C 
ATOM     16  C   UNL     1      33.670  21.527  13.869  0.00  0.00    +0.033 C 
ATOM     17  C   UNL     1      34.260  22.857  13.423  0.00  0.00    +0.161 C 
ATOM     18  O   UNL     1      33.734  23.331  12.186  0.00  0.00    -0.373 OA
ATOM     19  C   UNL     1      32.330  23.159  11.836  0.00  0.00    +0.070 C 
ATOM     20  C   UNL     1      31.344  24.346  12.116  0.00  0.00    +0.035 C 
ATOM     21  C   UNL     1      31.688  24.907  10.736  0.00  0.00    +0.006 C 
ATOM     22  C   UNL     1      32.082  23.477  10.322  0.00  0.00    +0.035 C 
ATOM     23  C   UNL     1      31.799  21.796  12.299  0.00  0.00    +0.040 C 
ENDBRANCH  14  15
ENDBRANCH   3  14
TORSDOF 5
ENDMDL
MODEL 5
REMARK VINA RESULT:      -7.1      4.509     10.982
REMARK  Name = ZINC000560333501
REMARK  5 active torsions:
REMARK  status: ('A' for Active; 'I' for Inactive)
REMARK    1  A    between atoms: C_2  and  C_3
REMARK    2  A    between atoms: C_7  and  C_8
REMARK    3  A    between atoms: C_8  and  C_9
REMARK    4  A    between atoms: N_11  and  C_12
REMARK    5  A    between atoms: C_12  and  C_13
REMARK                            x       y       z     vdW  Elec       q    Type
REMARK                         _______ _______ _______ _____ _____    ______ ____
ROOT
ATOM      1  C   UNL     1      30.924  18.903  13.873  0.00  0.00    +0.217 C 
ATOM      2  O   UNL     1      31.709  18.818  14.822  0.00  0.00    -0.275 OA
ATOM      3  N   UNL     1      31.059  18.163  12.711  0.00  0.00    -0.315 N 
ATOM      4  H   UNL     1      30.227  18.081  12.140  0.00  0.00    +0.149 HD
ENDROOT
BRANCH   1   5
ATOM      5  C   UNL     1      29.746  19.845  13.924  0.00  0.00    +0.131 C 
BRANCH   5  10
ATOM      6  C   UNL     1      26.936  20.082  16.523  0.00  0.00    +0.052 A 
ATOM      7  C   UNL     1      26.526  18.746  16.596  0.00  0.00    +0.019 A 
ATOM      8  C   UNL     1      27.172  17.778  15.827  0.00  0.00    +0.002 A 
ATOM      9  C   UNL     1      28.229  18.138  14.989  0.00  0.00    +0.004 A 
ATOM     10  C   UNL     1      28.659  19.471  14.909  0.00  0.00    -0.037 A 
ATOM     11  C   UNL     1      27.996  20.441  15.679  0.00  0.00    +0.023 A 
BRANCH   6  13
ATOM     12  N   UNL     1      25.716  21.885  17.934  0.00  0.00    -0.191 NA
ATOM     13  C   UNL     1      26.259  21.079  17.299  0.00  0.00    +0.099 C 
ENDBRANCH   6  13
ENDBRANCH   5  10
ENDBRANCH   1   5
BRANCH   3  14
ATOM     14  C   UNL     1      31.955  17.020  12.726  0.00  0.00    +0.108 C 
BRANCH  14  15
ATOM     15  C   UNL     1      31.413  15.732  13.373  0.00  0.00    +0.011 C 
ATOM     16  C   UNL     1      32.151  15.333  14.648  0.00  0.00    +0.033 C 
ATOM     17  C   UNL     1      33.622  15.075  14.359  0.00  0.00    +0.161 C 
ATOM     18  O   UNL     1      33.845  14.221  13.240  0.00  0.00    -0.373 OA
ATOM     19  C   UNL     1      33.011  14.290  12.047  0.00  0.00    +0.070 C 
ATOM     20  C   UNL     1      33.516  15.149  10.836  0.00  0.00    +0.035 C 
ATOM     21  C   UNL     1      34.263  13.918  10.323  0.00  0.00    +0.006 C 
ATOM     22  C   UNL     1      33.258  13.057  11.113  0.00  0.00    +0.035 C 
ATOM     23  C   UNL     1      31.540  14.536  12.405  0.00  0.00    +0.040 C 
ENDBRANCH  14  15
ENDBRANCH   3  14
TORSDOF 5
ENDMDL
MODEL 6
REMARK VINA RESULT:      -7.1      4.185      7.276
REMARK  Name = ZINC000560333501
REMARK  5 active torsions:
REMARK  status: ('A' for Active; 'I' for Inactive)
REMARK    1  A    between atoms: C_2  and  C_3
REMARK    2  A    between atoms: C_7  and  C_8
REMARK    3  A    between atoms: C_8  and  C_9
REMARK    4  A    between atoms: N_11  and  C_12
REMARK    5  A    between atoms: C_12  and  C_13
REMARK                            x       y       z     vdW  Elec       q    Type
REMARK                         _______ _______ _______ _____ _____    ______ ____
ROOT
ATOM      1  C   UNL     1      30.850  20.565  14.563  0.00  0.00    +0.217 C 
ATOM      2  O   UNL     1      30.844  21.702  14.085  0.00  0.00    -0.275 OA
ATOM      3  N   UNL     1      31.724  20.167  15.560  0.00  0.00    -0.315 N 
ATOM      4  H   UNL     1      31.456  19.340  16.079  0.00  0.00    +0.149 HD
ENDROOT
BRANCH   1   5
ATOM      5  C   UNL     1      29.883  19.513  14.074  0.00  0.00    +0.131 C 
BRANCH   5  10
ATOM      6  C   UNL     1      26.928  19.985  16.472  0.00  0.00    +0.052 A 
ATOM      7  C   UNL     1      26.436  18.677  16.550  0.00  0.00    +0.019 A 
ATOM      8  C   UNL     1      27.073  17.653  15.851  0.00  0.00    +0.002 A 
ATOM      9  C   UNL     1      28.202  17.927  15.077  0.00  0.00    +0.004 A 
ATOM     10  C   UNL     1      28.714  19.230  14.993  0.00  0.00    -0.037 A 
ATOM     11  C   UNL     1      28.060  20.259  15.691  0.00  0.00    +0.023 A 
BRANCH   6  13
ATOM     12  N   UNL     1      25.727  21.897  17.750  0.00  0.00    -0.191 NA
ATOM     13  C   UNL     1      26.261  21.041  17.175  0.00  0.00    +0.099 C 
ENDBRANCH   6  13
ENDBRANCH   5  10
ENDBRANCH   1   5
BRANCH   3  14
ATOM     14  C   UNL     1      32.439  21.195  16.295  0.00  0.00    +0.108 C 
BRANCH  14  15
ATOM     15  C   UNL     1      32.174  21.265  17.811  0.00  0.00    +0.011 C 
ATOM     16  C   UNL     1      30.715  21.538  18.163  0.00  0.00    +0.033 C 
ATOM     17  C   UNL     1      30.266  22.876  17.594  0.00  0.00    +0.161 C 
ATOM     18  O   UNL     1      31.165  23.947  17.869  0.00  0.00    -0.373 OA
ATOM     19  C   UNL     1      32.609  23.755  17.860  0.00  0.00    +0.070 C 
ATOM     20  C   UNL     1      33.398  24.115  16.554  0.00  0.00    +0.035 C 
ATOM     21  C   UNL     1      33.526  25.548  17.071  0.00  0.00    +0.006 C 
ATOM     22  C   UNL     1      33.347  24.984  18.493  0.00  0.00    +0.035 C 
ATOM     23  C   UNL     1      32.998  22.398  18.460  0.00  0.00    +0.040 C 
ENDBRANCH  14  15
ENDBRANCH   3  14
TORSDOF 5
ENDMDL
MODEL 7
REMARK VINA RESULT:      -7.1      5.903      8.893
REMARK  Name = ZINC000560333501
REMARK  5 active torsions:
REMARK  status: ('A' for Active; 'I' for Inactive)
REMARK    1  A    between atoms: C_2  and  C_3
REMARK    2  A    between atoms: C_7  and  C_8
REMARK    3  A    between atoms: C_8  and  C_9
REMARK    4  A    between atoms: N_11  and  C_12
REMARK    5  A    between atoms: C_12  and  C_13
REMARK                            x       y       z     vdW  Elec       q    Type
REMARK                         _______ _______ _______ _____ _____    ______ ____
ROOT
ATOM      1  C   UNL     1      30.206  21.380  14.251  0.00  0.00    +0.217 C 
ATOM      2  O   UNL     1      31.282  21.004  14.723  0.00  0.00    -0.275 OA
ATOM      3  N   UNL     1      30.109  22.133  13.093  0.00  0.00    -0.315 N 
ATOM      4  H   UNL     1      29.204  22.131  12.638  0.00  0.00    +0.149 HD
ENDROOT
BRANCH   1   5
ATOM      5  C   UNL     1      28.901  21.035  14.927  0.00  0.00    +0.131 C 
BRANCH   5  10
ATOM      6  C   UNL     1      29.071  17.237  14.431  0.00  0.00    +0.052 A 
ATOM      7  C   UNL     1      28.005  16.814  15.234  0.00  0.00    +0.019 A 
ATOM      8  C   UNL     1      27.227  17.755  15.907  0.00  0.00    +0.002 A 
ATOM      9  C   UNL     1      27.506  19.117  15.779  0.00  0.00    +0.004 A 
ATOM     10  C   UNL     1      28.565  19.560  14.973  0.00  0.00    -0.037 A 
ATOM     11  C   UNL     1      29.351  18.605  14.307  0.00  0.00    +0.023 A 
BRANCH   6  13
ATOM     12  N   UNL     1      30.533  15.478  13.206  0.00  0.00    -0.191 NA
ATOM     13  C   UNL     1      29.883  16.267  13.755  0.00  0.00    +0.099 C 
ENDBRANCH   6  13
ENDBRANCH   5  10
ENDBRANCH   1   5
BRANCH   3  14
ATOM     14  C   UNL     1      31.273  22.215  12.229  0.00  0.00    +0.108 C 
BRANCH  14  15
ATOM     15  C   UNL     1      32.161  23.463  12.390  0.00  0.00    +0.011 C 
ATOM     16  C   UNL     1      31.438  24.771  12.078  0.00  0.00    +0.033 C 
ATOM     17  C   UNL     1      30.949  24.783  10.638  0.00  0.00    +0.161 C 
ATOM     18  O   UNL     1      31.944  24.401   9.691  0.00  0.00    -0.373 OA
ATOM     19  C   UNL     1      32.910  23.349   9.978  0.00  0.00    +0.070 C 
ATOM     20  C   UNL     1      32.604  21.899   9.466  0.00  0.00    +0.035 C 
ATOM     21  C   UNL     1      33.291  22.261   8.149  0.00  0.00    +0.006 C 
ATOM     22  C   UNL     1      34.069  23.341   8.924  0.00  0.00    +0.035 C 
ATOM     23  C   UNL     1      33.375  23.399  11.439  0.00  0.00    +0.040 C 
ENDBRANCH  14  15
ENDBRANCH   3  14
TORSDOF 5
ENDMDL
MODEL 8
REMARK VINA RESULT:      -7.0      4.384      7.827
REMARK  Name = ZINC000560333501
REMARK  5 active torsions:
REMARK  status: ('A' for Active; 'I' for Inactive)
REMARK    1  A    between atoms: C_2  and  C_3
REMARK    2  A    between atoms: C_7  and  C_8
REMARK    3  A    between atoms: C_8  and  C_9
REMARK    4  A    between atoms: N_11  and  C_12
REMARK    5  A    between atoms: C_12  and  C_13
REMARK                            x       y       z     vdW  Elec       q    Type
REMARK                         _______ _______ _______ _____ _____    ______ ____
ROOT
ATOM      1  C   UNL     1      30.761  20.691  14.324  0.00  0.00    +0.217 C 
ATOM      2  O   UNL     1      30.533  21.771  13.773  0.00  0.00    -0.275 OA
ATOM      3  N   UNL     1      31.752  20.520  15.275  0.00  0.00    -0.315 N 
ATOM      4  H   UNL     1      31.661  19.704  15.868  0.00  0.00    +0.149 HD
ENDROOT
BRANCH   1   5
ATOM      5  C   UNL     1      29.955  19.460  13.980  0.00  0.00    +0.131 C 
BRANCH   5  10
ATOM      6  C   UNL     1      27.012  19.902  16.398  0.00  0.00    +0.052 A 
ATOM      7  C   UNL     1      26.536  18.589  16.481  0.00  0.00    +0.019 A 
ATOM      8  C   UNL     1      27.179  17.571  15.779  0.00  0.00    +0.002 A 
ATOM      9  C   UNL     1      28.300  17.857  14.997  0.00  0.00    +0.004 A 
ATOM     10  C   UNL     1      28.796  19.165  14.908  0.00  0.00    -0.037 A 
ATOM     11  C   UNL     1      28.136  20.187  15.610  0.00  0.00    +0.023 A 
BRANCH   6  13
ATOM     12  N   UNL     1      25.788  21.803  17.670  0.00  0.00    -0.191 NA
ATOM     13  C   UNL     1      26.339  20.952  17.105  0.00  0.00    +0.099 C 
ENDBRANCH   6  13
ENDBRANCH   5  10
ENDBRANCH   1   5
BRANCH   3  14
ATOM     14  C   UNL     1      32.328  21.706  15.884  0.00  0.00    +0.108 C 
BRANCH  14  15
ATOM     15  C   UNL     1      31.495  22.387  16.986  0.00  0.00    +0.011 C 
ATOM     16  C   UNL     1      32.132  23.660  17.534  0.00  0.00    +0.033 C 
ATOM     17  C   UNL     1      33.488  23.358  18.155  0.00  0.00    +0.161 C 
ATOM     18  O   UNL     1      33.472  22.254  19.056  0.00  0.00    -0.373 OA
ATOM     19  C   UNL     1      32.661  21.070  18.802  0.00  0.00    +0.070 C 
ATOM     20  C   UNL     1      33.342  19.835  18.116  0.00  0.00    +0.035 C 
ATOM     21  C   UNL     1      33.750  19.339  19.503  0.00  0.00    +0.006 C 
ATOM     22  C   UNL     1      32.577  20.158  20.073  0.00  0.00    +0.035 C 
ATOM     23  C   UNL     1      31.304  21.442  18.191  0.00  0.00    +0.040 C 
ENDBRANCH  14  15
ENDBRANCH   3  14
TORSDOF 5
ENDMDL
MODEL 9
REMARK VINA RESULT:      -7.0      4.816      7.423
REMARK  Name = ZINC000560333501
REMARK  5 active torsions:
REMARK  status: ('A' for Active; 'I' for Inactive)
REMARK    1  A    between atoms: C_2  and  C_3
REMARK    2  A    between atoms: C_7  and  C_8
REMARK    3  A    between atoms: C_8  and  C_9
REMARK    4  A    between atoms: N_11  and  C_12
REMARK    5  A    between atoms: C_12  and  C_13
REMARK                            x       y       z     vdW  Elec       q    Type
REMARK                         _______ _______ _______ _____ _____    ______ ____
ROOT
ATOM      1  C   UNL     1      30.002  21.734  17.298  0.00  0.00    +0.217 C 
ATOM      2  O   UNL     1      31.048  21.118  17.073  0.00  0.00    -0.275 OA
ATOM      3  N   UNL     1      29.776  22.438  18.468  0.00  0.00    -0.315 N 
ATOM      4  H   UNL     1      29.042  23.135  18.430  0.00  0.00    +0.149 HD
ENDROOT
BRANCH   1   5
ATOM      5  C   UNL     1      28.881  21.752  16.287  0.00  0.00    +0.131 C 
BRANCH   5  10
ATOM      6  C   UNL     1      27.987  18.145  15.341  0.00  0.00    +0.052 A 
ATOM      7  C   UNL     1      26.772  17.985  16.017  0.00  0.00    +0.019 A 
ATOM      8  C   UNL     1      26.240  19.045  16.750  0.00  0.00    +0.002 A 
ATOM      9  C   UNL     1      26.913  20.267  16.807  0.00  0.00    +0.004 A 
ATOM     10  C   UNL     1      28.128  20.448  16.131  0.00  0.00    -0.037 A 
ATOM     11  C   UNL     1      28.663  19.372  15.403  0.00  0.00    +0.023 A 
BRANCH   6  13
ATOM     12  N   UNL     1      28.987  16.156  14.009  0.00  0.00    -0.191 NA
ATOM     13  C   UNL     1      28.543  17.049  14.603  0.00  0.00    +0.099 C 
ENDBRANCH   6  13
ENDBRANCH   5  10
ENDBRANCH   1   5
BRANCH   3  14
ATOM     14  C   UNL     1      30.913  22.734  19.321  0.00  0.00    +0.108 C 
BRANCH  14  15
ATOM     15  C   UNL     1      31.107  21.824  20.548  0.00  0.00    +0.011 C 
ATOM     16  C   UNL     1      31.315  22.592  21.850  0.00  0.00    +0.033 C 
ATOM     17  C   UNL     1      32.561  23.462  21.768  0.00  0.00    +0.161 C 
ATOM     18  O   UNL     1      33.710  22.772  21.282  0.00  0.00    -0.373 OA
ATOM     19  C   UNL     1      33.614  21.774  20.225  0.00  0.00    +0.070 C 
ATOM     20  C   UNL     1      33.901  22.224  18.750  0.00  0.00    +0.035 C 
ATOM     21  C   UNL     1      35.381  21.925  18.988  0.00  0.00    +0.006 C 
ATOM     22  C   UNL     1      34.942  20.953  20.099  0.00  0.00    +0.035 C 
ATOM     23  C   UNL     1      32.347  20.922  20.372  0.00  0.00    +0.040 C 
ENDBRANCH  14  15
ENDBRANCH   3  14
TORSDOF 5
ENDMDL
