MODEL 1
REMARK VINA RESULT:      -6.6      0.000      0.000
REMARK  Name = ZINC000826139982
REMARK  4 active torsions:
REMARK  status: ('A' for Active; 'I' for Inactive)
REMARK    1  A    between atoms: C_2  and  C_4
REMARK    2  A    between atoms: C_8  and  C_10
REMARK    3  A    between atoms: C_14  and  S_15
REMARK    4  A    between atoms: S_15  and  C_16
REMARK                            x       y       z     vdW  Elec       q    Type
REMARK                         _______ _______ _______ _____ _____    ______ ____
ROOT
ATOM      1  C   UNL     1      31.808  23.521  13.630  0.00  0.00    +0.093 C 
ATOM      2  C   UNL     1      31.880  22.048  13.229  0.00  0.00    +0.033 C 
ATOM      3  C   UNL     1      30.452  21.582  13.473  0.00  0.00    +0.109 C 
ATOM      4  N   UNL     1      30.134  22.219  14.744  0.00  0.00    -0.297 N 
ATOM      5  C   UNL     1      29.257  21.856  15.758  0.00  0.00    +0.247 C 
ATOM      6  O   UNL     1      29.040  22.615  16.706  0.00  0.00    -0.270 OA
ATOM      7  C   UNL     1      30.816  23.514  14.802  0.00  0.00    +0.120 C 
ENDROOT
BRANCH   5   8
ATOM      8  C   UNL     1      28.521  20.555  15.739  0.00  0.00    +0.038 A 
ATOM      9  C   UNL     1      27.245  20.382  16.274  0.00  0.00    +0.013 A 
ATOM     10  C   UNL     1      26.646  19.121  16.308  0.00  0.00    +0.002 A 
ATOM     11  C   UNL     1      27.260  18.043  15.677  0.00  0.00    +0.015 A 
ATOM     12  C   UNL     1      28.454  18.232  14.976  0.00  0.00    +0.017 A 
ATOM     13  C   UNL     1      29.101  19.475  15.046  0.00  0.00    +0.028 A 
BRANCH  12  14
ATOM     14  S   UNL     1      29.168  16.913  14.017  0.00  0.00    -0.016 S 
BRANCH  14  15
ATOM     15  C   UNL     1      30.931  17.253  14.206  0.00  0.00    +0.448 C 
ATOM     16  F   UNL     1      31.334  18.413  13.634  0.00  0.00    -0.160 F 
ATOM     17  F   UNL     1      31.274  17.318  15.515  0.00  0.00    -0.160 F 
ATOM     18  F   UNL     1      31.671  16.263  13.649  0.00  0.00    -0.160 F 
ENDBRANCH  14  15
ENDBRANCH  12  14
ENDBRANCH   5   8
BRANCH   1  20
ATOM     19  N   UNL     1      30.237  25.125  12.653  0.00  0.00    -0.329 N 
ATOM     20  C   UNL     1      31.351  24.369  12.453  0.00  0.00    +0.215 C 
ATOM     21  O   UNL     1      31.946  24.433  11.381  0.00  0.00    -0.276 OA
ATOM     22  H   UNL     1      29.982  25.757  11.906  0.00  0.00    +0.145 HD
ATOM     23  H   UNL     1      29.797  25.240  13.555  0.00  0.00    +0.145 HD
ENDBRANCH   1  20
TORSDOF 4
ENDMDL
MODEL 2
REMARK VINA RESULT:      -6.6      4.096      5.815
REMARK  Name = ZINC000826139982
REMARK  4 active torsions:
REMARK  status: ('A' for Active; 'I' for Inactive)
REMARK    1  A    between atoms: C_2  and  C_4
REMARK    2  A    between atoms: C_8  and  C_10
REMARK    3  A    between atoms: C_14  and  S_15
REMARK    4  A    between atoms: S_15  and  C_16
REMARK                            x       y       z     vdW  Elec       q    Type
REMARK                         _______ _______ _______ _____ _____    ______ ____
ROOT
ATOM      1  C   UNL     1      33.048  16.668  12.774  0.00  0.00    +0.093 C 
ATOM      2  C   UNL     1      32.984  18.005  13.512  0.00  0.00    +0.033 C 
ATOM      3  C   UNL     1      31.900  17.746  14.547  0.00  0.00    +0.109 C 
ATOM      4  N   UNL     1      30.899  17.028  13.770  0.00  0.00    -0.297 N 
ATOM      5  C   UNL     1      29.521  16.932  13.914  0.00  0.00    +0.247 C 
ATOM      6  O   UNL     1      28.865  16.155  13.215  0.00  0.00    -0.270 OA
ATOM      7  C   UNL     1      31.584  16.203  12.772  0.00  0.00    +0.120 C 
ENDROOT
BRANCH   5   8
ATOM      8  C   UNL     1      28.774  17.736  14.929  0.00  0.00    +0.038 A 
ATOM      9  C   UNL     1      28.097  17.176  16.013  0.00  0.00    +0.013 A 
ATOM     10  C   UNL     1      27.342  17.973  16.876  0.00  0.00    +0.002 A 
ATOM     11  C   UNL     1      27.370  19.358  16.747  0.00  0.00    +0.015 A 
ATOM     12  C   UNL     1      28.185  19.952  15.780  0.00  0.00    +0.017 A 
ATOM     13  C   UNL     1      28.849  19.140  14.848  0.00  0.00    +0.028 A 
BRANCH  12  14
ATOM     14  S   UNL     1      28.374  21.722  15.708  0.00  0.00    -0.016 S 
BRANCH  14  15
ATOM     15  C   UNL     1      29.913  21.875  14.776  0.00  0.00    +0.448 C 
ATOM     16  F   UNL     1      30.874  20.995  15.149  0.00  0.00    -0.160 F 
ATOM     17  F   UNL     1      29.698  21.689  13.452  0.00  0.00    -0.160 F 
ATOM     18  F   UNL     1      30.439  23.116  14.924  0.00  0.00    -0.160 F 
ENDBRANCH  14  15
ENDBRANCH  12  14
ENDBRANCH   5   8
BRANCH   1  20
ATOM     19  N   UNL     1      35.075  16.270  14.088  0.00  0.00    -0.329 N 
ATOM     20  C   UNL     1      33.987  15.711  13.491  0.00  0.00    +0.215 C 
ATOM     21  O   UNL     1      33.792  14.503  13.590  0.00  0.00    -0.276 OA
ATOM     22  H   UNL     1      35.653  15.650  14.641  0.00  0.00    +0.145 HD
ATOM     23  H   UNL     1      35.209  17.267  14.181  0.00  0.00    +0.145 HD
ENDBRANCH   1  20
TORSDOF 4
ENDMDL
MODEL 3
REMARK VINA RESULT:      -6.4      5.219      6.566
REMARK  Name = ZINC000826139982
REMARK  4 active torsions:
REMARK  status: ('A' for Active; 'I' for Inactive)
REMARK    1  A    between atoms: C_2  and  C_4
REMARK    2  A    between atoms: C_8  and  C_10
REMARK    3  A    between atoms: C_14  and  S_15
REMARK    4  A    between atoms: S_15  and  C_16
REMARK                            x       y       z     vdW  Elec       q    Type
REMARK                         _______ _______ _______ _____ _____    ______ ____
ROOT
ATOM      1  C   UNL     1      32.837  22.371  22.284  0.00  0.00    +0.093 C 
ATOM      2  C   UNL     1      33.124  21.423  21.120  0.00  0.00    +0.033 C 
ATOM      3  C   UNL     1      32.535  22.181  19.940  0.00  0.00    +0.109 C 
ATOM      4  N   UNL     1      31.281  22.677  20.489  0.00  0.00    -0.297 N 
ATOM      5  C   UNL     1      30.072  22.991  19.879  0.00  0.00    +0.247 C 
ATOM      6  O   UNL     1      29.164  23.527  20.519  0.00  0.00    -0.270 OA
ATOM      7  C   UNL     1      31.479  22.980  21.909  0.00  0.00    +0.120 C 
ENDROOT
BRANCH   5   8
ATOM      8  C   UNL     1      29.824  22.720  18.430  0.00  0.00    +0.038 A 
ATOM      9  C   UNL     1      30.791  22.882  17.438  0.00  0.00    +0.013 A 
ATOM     10  C   UNL     1      30.473  22.701  16.091  0.00  0.00    +0.002 A 
ATOM     11  C   UNL     1      29.219  22.217  15.731  0.00  0.00    +0.015 A 
ATOM     12  C   UNL     1      28.293  21.875  16.721  0.00  0.00    +0.017 A 
ATOM     13  C   UNL     1      28.582  22.168  18.062  0.00  0.00    +0.028 A 
BRANCH  12  14
ATOM     14  S   UNL     1      26.751  21.092  16.296  0.00  0.00    -0.016 S 
BRANCH  14  15
ATOM     15  C   UNL     1      27.223  19.349  16.319  0.00  0.00    +0.448 C 
ATOM     16  F   UNL     1      27.592  18.893  17.540  0.00  0.00    -0.160 F 
ATOM     17  F   UNL     1      26.202  18.566  15.897  0.00  0.00    -0.160 F 
ATOM     18  F   UNL     1      28.268  19.126  15.484  0.00  0.00    -0.160 F 
ENDBRANCH  14  15
ENDBRANCH  12  14
ENDBRANCH   5   8
BRANCH   1  20
ATOM     19  N   UNL     1      33.556  24.680  22.666  0.00  0.00    -0.329 N 
ATOM     20  C   UNL     1      33.949  23.402  22.415  0.00  0.00    +0.215 C 
ATOM     21  O   UNL     1      35.144  23.133  22.350  0.00  0.00    -0.276 OA
ATOM     22  H   UNL     1      34.293  25.350  22.843  0.00  0.00    +0.145 HD
ATOM     23  H   UNL     1      32.606  24.938  22.889  0.00  0.00    +0.145 HD
ENDBRANCH   1  20
TORSDOF 4
ENDMDL
MODEL 4
REMARK VINA RESULT:      -6.4      3.327      5.274
REMARK  Name = ZINC000826139982
REMARK  4 active torsions:
REMARK  status: ('A' for Active; 'I' for Inactive)
REMARK    1  A    between atoms: C_2  and  C_4
REMARK    2  A    between atoms: C_8  and  C_10
REMARK    3  A    between atoms: C_14  and  S_15
REMARK    4  A    between atoms: S_15  and  C_16
REMARK                            x       y       z     vdW  Elec       q    Type
REMARK                         _______ _______ _______ _____ _____    ______ ____
ROOT
ATOM      1  C   UNL     1      33.899  23.599   8.946  0.00  0.00    +0.093 C 
ATOM      2  C   UNL     1      34.745  22.975  10.056  0.00  0.00    +0.033 C 
ATOM      3  C   UNL     1      33.690  22.589  11.081  0.00  0.00    +0.109 C 
ATOM      4  N   UNL     1      32.817  23.755  11.078  0.00  0.00    -0.297 N 
ATOM      5  C   UNL     1      31.997  24.289  12.064  0.00  0.00    +0.247 C 
ATOM      6  O   UNL     1      31.229  25.222  11.809  0.00  0.00    -0.270 OA
ATOM      7  C   UNL     1      32.776  24.306   9.721  0.00  0.00    +0.120 C 
ENDROOT
BRANCH   5   8
ATOM      8  C   UNL     1      31.984  23.753  13.459  0.00  0.00    +0.038 A 
ATOM      9  C   UNL     1      33.041  23.908  14.355  0.00  0.00    +0.013 A 
ATOM     10  C   UNL     1      33.009  23.306  15.614  0.00  0.00    +0.002 A 
ATOM     11  C   UNL     1      31.854  22.659  16.045  0.00  0.00    +0.015 A 
ATOM     12  C   UNL     1      30.716  22.647  15.234  0.00  0.00    +0.017 A 
ATOM     13  C   UNL     1      30.799  23.155  13.929  0.00  0.00    +0.028 A 
BRANCH  12  14
ATOM     14  S   UNL     1      29.177  21.980  15.831  0.00  0.00    -0.016 S 
BRANCH  14  15
ATOM     15  C   UNL     1      29.046  20.467  14.854  0.00  0.00    +0.448 C 
ATOM     16  F   UNL     1      28.158  19.569  15.345  0.00  0.00    -0.160 F 
ATOM     17  F   UNL     1      28.669  20.743  13.583  0.00  0.00    -0.160 F 
ATOM     18  F   UNL     1      30.244  19.837  14.787  0.00  0.00    -0.160 F 
ENDBRANCH  14  15
ENDBRANCH  12  14
ENDBRANCH   5   8
BRANCH   1  20
ATOM     19  N   UNL     1      32.046  22.351   7.943  0.00  0.00    -0.329 N 
ATOM     20  C   UNL     1      33.395  22.524   7.995  0.00  0.00    +0.215 C 
ATOM     21  O   UNL     1      34.123  21.859   7.265  0.00  0.00    -0.276 OA
ATOM     22  H   UNL     1      31.702  21.702   7.248  0.00  0.00    +0.145 HD
ATOM     23  H   UNL     1      31.387  22.970   8.394  0.00  0.00    +0.145 HD
ENDBRANCH   1  20
TORSDOF 4
ENDMDL
MODEL 5
REMARK VINA RESULT:      -6.4      2.393      3.360
REMARK  Name = ZINC000826139982
REMARK  4 active torsions:
REMARK  status: ('A' for Active; 'I' for Inactive)
REMARK    1  A    between atoms: C_2  and  C_4
REMARK    2  A    between atoms: C_8  and  C_10
REMARK    3  A    between atoms: C_14  and  S_15
REMARK    4  A    between atoms: S_15  and  C_16
REMARK                            x       y       z     vdW  Elec       q    Type
REMARK                         _______ _______ _______ _____ _____    ______ ____
ROOT
ATOM      1  C   UNL     1      32.616  24.171  12.662  0.00  0.00    +0.093 C 
ATOM      2  C   UNL     1      33.502  23.054  12.111  0.00  0.00    +0.033 C 
ATOM      3  C   UNL     1      32.756  21.806  12.557  0.00  0.00    +0.109 C 
ATOM      4  N   UNL     1      32.375  22.146  13.921  0.00  0.00    -0.297 N 
ATOM      5  C   UNL     1      32.137  21.349  15.033  0.00  0.00    +0.247 C 
ATOM      6  O   UNL     1      31.692  21.837  16.076  0.00  0.00    -0.270 OA
ATOM      7  C   UNL     1      32.102  23.585  13.985  0.00  0.00    +0.120 C 
ENDROOT
BRANCH   5   8
ATOM      8  C   UNL     1      32.380  19.875  15.016  0.00  0.00    +0.038 A 
ATOM      9  C   UNL     1      33.393  19.250  15.743  0.00  0.00    +0.013 A 
ATOM     10  C   UNL     1      33.628  17.880  15.615  0.00  0.00    +0.002 A 
ATOM     11  C   UNL     1      32.760  17.093  14.865  0.00  0.00    +0.015 A 
ATOM     12  C   UNL     1      31.632  17.668  14.273  0.00  0.00    +0.017 A 
ATOM     13  C   UNL     1      31.470  19.061  14.314  0.00  0.00    +0.028 A 
BRANCH  12  14
ATOM     14  S   UNL     1      30.416  16.656  13.455  0.00  0.00    -0.016 S 
BRANCH  14  15
ATOM     15  C   UNL     1      28.990  16.872  14.542  0.00  0.00    +0.448 C 
ATOM     16  F   UNL     1      29.257  16.654  15.853  0.00  0.00    -0.160 F 
ATOM     17  F   UNL     1      28.492  18.127  14.444  0.00  0.00    -0.160 F 
ATOM     18  F   UNL     1      27.993  16.019  14.198  0.00  0.00    -0.160 F 
ENDBRANCH  14  15
ENDBRANCH  12  14
ENDBRANCH   5   8
BRANCH   1  20
ATOM     19  N   UNL     1      30.250  24.584  12.188  0.00  0.00    -0.329 N 
ATOM     20  C   UNL     1      31.508  24.504  11.675  0.00  0.00    +0.215 C 
ATOM     21  O   UNL     1      31.696  24.739  10.486  0.00  0.00    -0.276 OA
ATOM     22  H   UNL     1      29.524  24.894  11.555  0.00  0.00    +0.145 HD
ATOM     23  H   UNL     1      30.049  24.561  13.178  0.00  0.00    +0.145 HD
ENDBRANCH   1  20
TORSDOF 4
ENDMDL
MODEL 6
REMARK VINA RESULT:      -6.2      1.790      2.280
REMARK  Name = ZINC000826139982
REMARK  4 active torsions:
REMARK  status: ('A' for Active; 'I' for Inactive)
REMARK    1  A    between atoms: C_2  and  C_4
REMARK    2  A    between atoms: C_8  and  C_10
REMARK    3  A    between atoms: C_14  and  S_15
REMARK    4  A    between atoms: S_15  and  C_16
REMARK                            x       y       z     vdW  Elec       q    Type
REMARK                         _______ _______ _______ _____ _____    ______ ____
ROOT
ATOM      1  C   UNL     1      32.766  23.929  12.668  0.00  0.00    +0.093 C 
ATOM      2  C   UNL     1      33.356  22.530  12.490  0.00  0.00    +0.033 C 
ATOM      3  C   UNL     1      32.121  21.648  12.594  0.00  0.00    +0.109 C 
ATOM      4  N   UNL     1      31.403  22.254  13.706  0.00  0.00    -0.297 N 
ATOM      5  C   UNL     1      30.513  21.714  14.627  0.00  0.00    +0.247 C 
ATOM      6  O   UNL     1      29.909  22.441  15.420  0.00  0.00    -0.270 OA
ATOM      7  C   UNL     1      31.632  23.701  13.678  0.00  0.00    +0.120 C 
ENDROOT
BRANCH   5   8
ATOM      8  C   UNL     1      30.229  20.248  14.686  0.00  0.00    +0.038 A 
ATOM      9  C   UNL     1      28.942  19.713  14.738  0.00  0.00    +0.013 A 
ATOM     10  C   UNL     1      28.742  18.339  14.884  0.00  0.00    +0.002 A 
ATOM     11  C   UNL     1      29.828  17.470  14.836  0.00  0.00    +0.015 A 
ATOM     12  C   UNL     1      31.112  17.969  14.603  0.00  0.00    +0.017 A 
ATOM     13  C   UNL     1      31.313  19.357  14.572  0.00  0.00    +0.028 A 
BRANCH  12  14
ATOM     14  S   UNL     1      32.490  16.867  14.364  0.00  0.00    -0.016 S 
BRANCH  14  15
ATOM     15  C   UNL     1      32.228  16.339  12.657  0.00  0.00    +0.448 C 
ATOM     16  F   UNL     1      33.088  15.380  12.237  0.00  0.00    -0.160 F 
ATOM     17  F   UNL     1      30.976  15.850  12.488  0.00  0.00    -0.160 F 
ATOM     18  F   UNL     1      32.364  17.387  11.807  0.00  0.00    -0.160 F 
ENDBRANCH  14  15
ENDBRANCH  12  14
ENDBRANCH   5   8
BRANCH   1  20
ATOM     19  N   UNL     1      30.979  24.851  11.269  0.00  0.00    -0.329 N 
ATOM     20  C   UNL     1      32.286  24.475  11.332  0.00  0.00    +0.215 C 
ATOM     21  O   UNL     1      33.011  24.629  10.354  0.00  0.00    -0.276 OA
ATOM     22  H   UNL     1      30.680  25.298  10.413  0.00  0.00    +0.145 HD
ATOM     23  H   UNL     1      30.375  24.900  12.077  0.00  0.00    +0.145 HD
ENDBRANCH   1  20
TORSDOF 4
ENDMDL
MODEL 7
REMARK VINA RESULT:      -6.2      4.563      6.839
REMARK  Name = ZINC000826139982
REMARK  4 active torsions:
REMARK  status: ('A' for Active; 'I' for Inactive)
REMARK    1  A    between atoms: C_2  and  C_4
REMARK    2  A    between atoms: C_8  and  C_10
REMARK    3  A    between atoms: C_14  and  S_15
REMARK    4  A    between atoms: S_15  and  C_16
REMARK                            x       y       z     vdW  Elec       q    Type
REMARK                         _______ _______ _______ _____ _____    ______ ____
ROOT
ATOM      1  C   UNL     1      35.565  22.608   7.492  0.00  0.00    +0.093 C 
ATOM      2  C   UNL     1      34.431  21.726   8.012  0.00  0.00    +0.033 C 
ATOM      3  C   UNL     1      33.494  22.748   8.639  0.00  0.00    +0.109 C 
ATOM      4  N   UNL     1      34.422  23.629   9.334  0.00  0.00    -0.297 N 
ATOM      5  C   UNL     1      34.263  24.424  10.461  0.00  0.00    +0.247 C 
ATOM      6  O   UNL     1      35.151  25.206  10.813  0.00  0.00    -0.270 OA
ATOM      7  C   UNL     1      35.660  23.713   8.554  0.00  0.00    +0.120 C 
ENDROOT
BRANCH   5   8
ATOM      8  C   UNL     1      33.014  24.392  11.281  0.00  0.00    +0.038 A 
ATOM      9  C   UNL     1      31.823  25.009  10.899  0.00  0.00    +0.013 A 
ATOM     10  C   UNL     1      30.715  25.022  11.749  0.00  0.00    +0.002 A 
ATOM     11  C   UNL     1      30.742  24.294  12.935  0.00  0.00    +0.015 A 
ATOM     12  C   UNL     1      31.860  23.519  13.253  0.00  0.00    +0.017 A 
ATOM     13  C   UNL     1      33.007  23.605  12.449  0.00  0.00    +0.028 A 
BRANCH  12  14
ATOM     14  S   UNL     1      31.851  22.444  14.673  0.00  0.00    -0.016 S 
BRANCH  14  15
ATOM     15  C   UNL     1      31.100  20.954  13.982  0.00  0.00    +0.448 C 
ATOM     16  F   UNL     1      31.101  19.894  14.825  0.00  0.00    -0.160 F 
ATOM     17  F   UNL     1      29.811  21.180  13.632  0.00  0.00    -0.160 F 
ATOM     18  F   UNL     1      31.755  20.565  12.861  0.00  0.00    -0.160 F 
ENDBRANCH  14  15
ENDBRANCH  12  14
ENDBRANCH   5   8
BRANCH   1  20
ATOM     19  N   UNL     1      34.701  24.382   6.040  0.00  0.00    -0.329 N 
ATOM     20  C   UNL     1      35.235  23.131   6.102  0.00  0.00    +0.215 C 
ATOM     21  O   UNL     1      35.461  22.514   5.065  0.00  0.00    -0.276 OA
ATOM     22  H   UNL     1      34.564  24.768   5.115  0.00  0.00    +0.145 HD
ATOM     23  H   UNL     1      34.639  25.001   6.836  0.00  0.00    +0.145 HD
ENDBRANCH   1  20
TORSDOF 4
ENDMDL
MODEL 8
REMARK VINA RESULT:      -6.2      4.708      6.414
REMARK  Name = ZINC000826139982
REMARK  4 active torsions:
REMARK  status: ('A' for Active; 'I' for Inactive)
REMARK    1  A    between atoms: C_2  and  C_4
REMARK    2  A    between atoms: C_8  and  C_10
REMARK    3  A    between atoms: C_14  and  S_15
REMARK    4  A    between atoms: S_15  and  C_16
REMARK                            x       y       z     vdW  Elec       q    Type
REMARK                         _______ _______ _______ _____ _____    ______ ____
ROOT
ATOM      1  C   UNL     1      31.983  23.358  21.551  0.00  0.00    +0.093 C 
ATOM      2  C   UNL     1      30.617  22.769  21.199  0.00  0.00    +0.033 C 
ATOM      3  C   UNL     1      30.886  22.131  19.845  0.00  0.00    +0.109 C 
ATOM      4  N   UNL     1      31.695  23.143  19.182  0.00  0.00    -0.297 N 
ATOM      5  C   UNL     1      31.861  23.451  17.837  0.00  0.00    +0.247 C 
ATOM      6  O   UNL     1      32.707  24.274  17.478  0.00  0.00    -0.270 OA
ATOM      7  C   UNL     1      32.529  23.807  20.187  0.00  0.00    +0.120 C 
ENDROOT
BRANCH   5   8
ATOM      8  C   UNL     1      31.050  22.789  16.770  0.00  0.00    +0.038 A 
ATOM      9  C   UNL     1      31.594  22.287  15.587  0.00  0.00    +0.013 A 
ATOM     10  C   UNL     1      30.773  21.761  14.587  0.00  0.00    +0.002 A 
ATOM     11  C   UNL     1      29.410  21.604  14.818  0.00  0.00    +0.015 A 
ATOM     12  C   UNL     1      28.871  21.933  16.065  0.00  0.00    +0.017 A 
ATOM     13  C   UNL     1      29.683  22.564  17.019  0.00  0.00    +0.028 A 
BRANCH  12  14
ATOM     14  S   UNL     1      27.167  21.579  16.444  0.00  0.00    -0.016 S 
BRANCH  14  15
ATOM     15  C   UNL     1      27.175  19.773  16.447  0.00  0.00    +0.448 C 
ATOM     16  F   UNL     1      28.055  19.224  15.576  0.00  0.00    -0.160 F 
ATOM     17  F   UNL     1      27.481  19.292  17.675  0.00  0.00    -0.160 F 
ATOM     18  F   UNL     1      25.949  19.290  16.124  0.00  0.00    -0.160 F 
ENDBRANCH  14  15
ENDBRANCH  12  14
ENDBRANCH   5   8
BRANCH   1  20
ATOM     19  N   UNL     1      34.083  22.106  21.697  0.00  0.00    -0.329 N 
ATOM     20  C   UNL     1      32.850  22.313  22.236  0.00  0.00    +0.215 C 
ATOM     21  O   UNL     1      32.517  21.700  23.246  0.00  0.00    -0.276 OA
ATOM     22  H   UNL     1      34.695  21.479  22.202  0.00  0.00    +0.145 HD
ATOM     23  H   UNL     1      34.478  22.686  20.970  0.00  0.00    +0.145 HD
ENDBRANCH   1  20
TORSDOF 4
ENDMDL
MODEL 9
REMARK VINA RESULT:      -6.0      4.567      6.182
REMARK  Name = ZINC000826139982
REMARK  4 active torsions:
REMARK  status: ('A' for Active; 'I' for Inactive)
REMARK    1  A    between atoms: C_2  and  C_4
REMARK    2  A    between atoms: C_8  and  C_10
REMARK    3  A    between atoms: C_14  and  S_15
REMARK    4  A    between atoms: S_15  and  C_16
REMARK                            x       y       z     vdW  Elec       q    Type
REMARK                         _______ _______ _______ _____ _____    ______ ____
ROOT
ATOM      1  C   UNL     1      34.544  15.869  11.984  0.00  0.00    +0.093 C 
ATOM      2  C   UNL     1      33.206  15.131  11.994  0.00  0.00    +0.033 C 
ATOM      3  C   UNL     1      32.224  16.257  12.284  0.00  0.00    +0.109 C 
ATOM      4  N   UNL     1      32.915  17.008  13.322  0.00  0.00    -0.297 N 
ATOM      5  C   UNL     1      32.434  17.806  14.352  0.00  0.00    +0.247 C 
ATOM      6  O   UNL     1      33.206  18.467  15.052  0.00  0.00    -0.270 OA
ATOM      7  C   UNL     1      34.357  16.943  13.066  0.00  0.00    +0.120 C 
ENDROOT
BRANCH   5   8
ATOM      8  C   UNL     1      30.973  17.924  14.644  0.00  0.00    +0.038 A 
ATOM      9  C   UNL     1      30.173  16.848  15.029  0.00  0.00    +0.013 A 
ATOM     10  C   UNL     1      28.796  17.002  15.200  0.00  0.00    +0.002 A 
ATOM     11  C   UNL     1      28.224  18.268  15.125  0.00  0.00    +0.015 A 
ATOM     12  C   UNL     1      29.034  19.389  14.919  0.00  0.00    +0.017 A 
ATOM     13  C   UNL     1      30.396  19.208  14.636  0.00  0.00    +0.028 A 
BRANCH  12  14
ATOM     14  S   UNL     1      28.352  21.032  14.992  0.00  0.00    -0.016 S 
BRANCH  14  15
ATOM     15  C   UNL     1      27.146  20.855  16.324  0.00  0.00    +0.448 C 
ATOM     16  F   UNL     1      26.162  19.962  16.062  0.00  0.00    -0.160 F 
ATOM     17  F   UNL     1      27.746  20.457  17.471  0.00  0.00    -0.160 F 
ATOM     18  F   UNL     1      26.541  22.041  16.581  0.00  0.00    -0.160 F 
ENDBRANCH  14  15
ENDBRANCH  12  14
ENDBRANCH   5   8
BRANCH   1  20
ATOM     19  N   UNL     1      34.753  15.567   9.563  0.00  0.00    -0.329 N 
ATOM     20  C   UNL     1      34.823  16.442  10.603  0.00  0.00    +0.215 C 
ATOM     21  O   UNL     1      35.058  17.627  10.387  0.00  0.00    -0.276 OA
ATOM     22  H   UNL     1      34.849  15.961   8.637  0.00  0.00    +0.145 HD
ATOM     23  H   UNL     1      34.410  14.621   9.653  0.00  0.00    +0.145 HD
ENDBRANCH   1  20
TORSDOF 4
ENDMDL
