MODEL 1
REMARK VINA RESULT:      -7.1      0.000      0.000
REMARK  Name = ZINC000826139982
REMARK  4 active torsions:
REMARK  status: ('A' for Active; 'I' for Inactive)
REMARK    1  A    between atoms: C_2  and  C_4
REMARK    2  A    between atoms: C_8  and  C_10
REMARK    3  A    between atoms: C_14  and  S_15
REMARK    4  A    between atoms: S_15  and  C_16
REMARK                            x       y       z     vdW  Elec       q    Type
REMARK                         _______ _______ _______ _____ _____    ______ ____
ROOT
ATOM      1  C   UNL     1      29.107  22.463  16.637  0.00  0.00    +0.093 C 
ATOM      2  C   UNL     1      28.499  21.242  17.327  0.00  0.00    +0.033 C 
ATOM      3  C   UNL     1      29.664  20.263  17.325  0.00  0.00    +0.109 C 
ATOM      4  N   UNL     1      30.211  20.438  15.987  0.00  0.00    -0.297 N 
ATOM      5  C   UNL     1      30.913  19.569  15.161  0.00  0.00    +0.247 C 
ATOM      6  O   UNL     1      31.406  19.965  14.102  0.00  0.00    -0.270 OA
ATOM      7  C   UNL     1      30.048  21.840  15.595  0.00  0.00    +0.120 C 
ENDROOT
BRANCH   5   8
ATOM      8  C   UNL     1      31.125  18.134  15.523  0.00  0.00    +0.038 A 
ATOM      9  C   UNL     1      32.258  17.665  16.187  0.00  0.00    +0.013 A 
ATOM     10  C   UNL     1      32.442  16.299  16.416  0.00  0.00    +0.002 A 
ATOM     11  C   UNL     1      31.425  15.401  16.108  0.00  0.00    +0.015 A 
ATOM     12  C   UNL     1      30.207  15.869  15.608  0.00  0.00    +0.017 A 
ATOM     13  C   UNL     1      30.078  17.226  15.276  0.00  0.00    +0.028 A 
BRANCH  12  14
ATOM     14  S   UNL     1      28.832  14.762  15.370  0.00  0.00    -0.016 S 
BRANCH  14  15
ATOM     15  C   UNL     1      29.044  14.303  13.637  0.00  0.00    +0.448 C 
ATOM     16  F   UNL     1      28.795  15.310  12.765  0.00  0.00    -0.160 F 
ATOM     17  F   UNL     1      30.308  13.879  13.399  0.00  0.00    -0.160 F 
ATOM     18  F   UNL     1      28.212  13.284  13.307  0.00  0.00    -0.160 F 
ENDBRANCH  14  15
ENDBRANCH  12  14
ENDBRANCH   5   8
BRANCH   1  20
ATOM     19  N   UNL     1      29.092  23.733  18.730  0.00  0.00    -0.329 N 
ATOM     20  C   UNL     1      29.823  23.342  17.651  0.00  0.00    +0.215 C 
ATOM     21  O   UNL     1      31.003  23.668  17.564  0.00  0.00    -0.276 OA
ATOM     22  H   UNL     1      29.589  24.242  19.450  0.00  0.00    +0.145 HD
ATOM     23  H   UNL     1      28.174  23.372  18.942  0.00  0.00    +0.145 HD
ENDBRANCH   1  20
TORSDOF 4
ENDMDL
MODEL 2
REMARK VINA RESULT:      -6.9      1.387      1.515
REMARK  Name = ZINC000826139982
REMARK  4 active torsions:
REMARK  status: ('A' for Active; 'I' for Inactive)
REMARK    1  A    between atoms: C_2  and  C_4
REMARK    2  A    between atoms: C_8  and  C_10
REMARK    3  A    between atoms: C_14  and  S_15
REMARK    4  A    between atoms: S_15  and  C_16
REMARK                            x       y       z     vdW  Elec       q    Type
REMARK                         _______ _______ _______ _____ _____    ______ ____
ROOT
ATOM      1  C   UNL     1      28.719  22.560  16.942  0.00  0.00    +0.093 C 
ATOM      2  C   UNL     1      28.192  21.187  17.358  0.00  0.00    +0.033 C 
ATOM      3  C   UNL     1      29.470  20.366  17.433  0.00  0.00    +0.109 C 
ATOM      4  N   UNL     1      30.185  20.800  16.241  0.00  0.00    -0.297 N 
ATOM      5  C   UNL     1      31.122  20.152  15.446  0.00  0.00    +0.247 C 
ATOM      6  O   UNL     1      31.710  20.756  14.544  0.00  0.00    -0.270 OA
ATOM      7  C   UNL     1      29.886  22.215  16.006  0.00  0.00    +0.120 C 
ENDROOT
BRANCH   5   8
ATOM      8  C   UNL     1      31.478  18.716  15.655  0.00  0.00    +0.038 A 
ATOM      9  C   UNL     1      32.407  18.280  16.600  0.00  0.00    +0.013 A 
ATOM     10  C   UNL     1      32.765  16.933  16.686  0.00  0.00    +0.002 A 
ATOM     11  C   UNL     1      32.092  15.985  15.922  0.00  0.00    +0.015 A 
ATOM     12  C   UNL     1      31.032  16.376  15.099  0.00  0.00    +0.017 A 
ATOM     13  C   UNL     1      30.758  17.742  14.936  0.00  0.00    +0.028 A 
BRANCH  12  14
ATOM     14  S   UNL     1      30.044  15.164  14.247  0.00  0.00    -0.016 S 
BRANCH  14  15
ATOM     15  C   UNL     1      28.734  14.866  15.453  0.00  0.00    +0.448 C 
ATOM     16  F   UNL     1      28.004  15.966  15.759  0.00  0.00    -0.160 F 
ATOM     17  F   UNL     1      27.866  13.929  15.003  0.00  0.00    -0.160 F 
ATOM     18  F   UNL     1      29.253  14.403  16.617  0.00  0.00    -0.160 F 
ENDBRANCH  14  15
ENDBRANCH  12  14
ENDBRANCH   5   8
BRANCH   1  20
ATOM     19  N   UNL     1      28.166  23.610  19.084  0.00  0.00    -0.329 N 
ATOM     20  C   UNL     1      29.139  23.361  18.165  0.00  0.00    +0.215 C 
ATOM     21  O   UNL     1      30.286  23.741  18.375  0.00  0.00    -0.276 OA
ATOM     22  H   UNL     1      28.460  24.062  19.939  0.00  0.00    +0.145 HD
ATOM     23  H   UNL     1      27.247  23.191  19.050  0.00  0.00    +0.145 HD
ENDBRANCH   1  20
TORSDOF 4
ENDMDL
MODEL 3
REMARK VINA RESULT:      -6.4      1.893      2.250
REMARK  Name = ZINC000826139982
REMARK  4 active torsions:
REMARK  status: ('A' for Active; 'I' for Inactive)
REMARK    1  A    between atoms: C_2  and  C_4
REMARK    2  A    between atoms: C_8  and  C_10
REMARK    3  A    between atoms: C_14  and  S_15
REMARK    4  A    between atoms: S_15  and  C_16
REMARK                            x       y       z     vdW  Elec       q    Type
REMARK                         _______ _______ _______ _____ _____    ______ ____
ROOT
ATOM      1  C   UNL     1      31.604  22.209  14.960  0.00  0.00    +0.093 C 
ATOM      2  C   UNL     1      30.345  21.630  14.316  0.00  0.00    +0.033 C 
ATOM      3  C   UNL     1      30.098  20.389  15.161  0.00  0.00    +0.109 C 
ATOM      4  N   UNL     1      31.440  19.845  15.308  0.00  0.00    -0.297 N 
ATOM      5  C   UNL     1      31.887  18.544  15.505  0.00  0.00    +0.247 C 
ATOM      6  O   UNL     1      33.077  18.314  15.738  0.00  0.00    -0.270 OA
ATOM      7  C   UNL     1      32.392  20.957  15.372  0.00  0.00    +0.120 C 
ENDROOT
BRANCH   5   8
ATOM      8  C   UNL     1      30.956  17.375  15.470  0.00  0.00    +0.038 A 
ATOM      9  C   UNL     1      29.859  17.236  16.320  0.00  0.00    +0.013 A 
ATOM     10  C   UNL     1      29.079  16.078  16.302  0.00  0.00    +0.002 A 
ATOM     11  C   UNL     1      29.304  15.105  15.332  0.00  0.00    +0.015 A 
ATOM     12  C   UNL     1      30.282  15.305  14.355  0.00  0.00    +0.017 A 
ATOM     13  C   UNL     1      31.132  16.417  14.453  0.00  0.00    +0.028 A 
BRANCH  12  14
ATOM     14  S   UNL     1      30.471  14.160  13.005  0.00  0.00    -0.016 S 
BRANCH  14  15
ATOM     15  C   UNL     1      28.761  13.982  12.451  0.00  0.00    +0.448 C 
ATOM     16  F   UNL     1      28.037  15.125  12.520  0.00  0.00    -0.160 F 
ATOM     17  F   UNL     1      28.710  13.558  11.166  0.00  0.00    -0.160 F 
ATOM     18  F   UNL     1      28.110  13.059  13.203  0.00  0.00    -0.160 F 
ENDBRANCH  14  15
ENDBRANCH  12  14
ENDBRANCH   5   8
BRANCH   1  20
ATOM     19  N   UNL     1      30.214  23.981  15.923  0.00  0.00    -0.329 N 
ATOM     20  C   UNL     1      31.234  23.105  16.133  0.00  0.00    +0.215 C 
ATOM     21  O   UNL     1      31.767  23.046  17.237  0.00  0.00    -0.276 OA
ATOM     22  H   UNL     1      29.906  24.514  16.725  0.00  0.00    +0.145 HD
ATOM     23  H   UNL     1      29.631  23.970  15.098  0.00  0.00    +0.145 HD
ENDBRANCH   1  20
TORSDOF 4
ENDMDL
MODEL 4
REMARK VINA RESULT:      -6.2      2.097      2.755
REMARK  Name = ZINC000826139982
REMARK  4 active torsions:
REMARK  status: ('A' for Active; 'I' for Inactive)
REMARK    1  A    between atoms: C_2  and  C_4
REMARK    2  A    between atoms: C_8  and  C_10
REMARK    3  A    between atoms: C_14  and  S_15
REMARK    4  A    between atoms: S_15  and  C_16
REMARK                            x       y       z     vdW  Elec       q    Type
REMARK                         _______ _______ _______ _____ _____    ______ ____
ROOT
ATOM      1  C   UNL     1      31.049  21.366  16.006  0.00  0.00    +0.093 C 
ATOM      2  C   UNL     1      32.412  20.735  15.717  0.00  0.00    +0.033 C 
ATOM      3  C   UNL     1      32.024  19.475  14.959  0.00  0.00    +0.109 C 
ATOM      4  N   UNL     1      30.885  18.992  15.726  0.00  0.00    -0.297 N 
ATOM      5  C   UNL     1      30.380  17.711  15.912  0.00  0.00    +0.247 C 
ATOM      6  O   UNL     1      29.312  17.534  16.504  0.00  0.00    -0.270 OA
ATOM      7  C   UNL     1      30.146  20.147  16.244  0.00  0.00    +0.120 C 
ENDROOT
BRANCH   5   8
ATOM      8  C   UNL     1      31.083  16.500  15.388  0.00  0.00    +0.038 A 
ATOM      9  C   UNL     1      32.099  15.839  16.078  0.00  0.00    +0.013 A 
ATOM     10  C   UNL     1      32.781  14.768  15.497  0.00  0.00    +0.002 A 
ATOM     11  C   UNL     1      32.357  14.255  14.275  0.00  0.00    +0.015 A 
ATOM     12  C   UNL     1      31.226  14.787  13.649  0.00  0.00    +0.017 A 
ATOM     13  C   UNL     1      30.620  15.933  14.185  0.00  0.00    +0.028 A 
BRANCH  12  14
ATOM     14  S   UNL     1      30.561  14.038  12.177  0.00  0.00    -0.016 S 
BRANCH  14  15
ATOM     15  C   UNL     1      28.814  13.897  12.611  0.00  0.00    +0.448 C 
ATOM     16  F   UNL     1      28.589  13.651  13.924  0.00  0.00    -0.160 F 
ATOM     17  F   UNL     1      28.145  15.033  12.301  0.00  0.00    -0.160 F 
ATOM     18  F   UNL     1      28.230  12.888  11.917  0.00  0.00    -0.160 F 
ENDBRANCH  14  15
ENDBRANCH  12  14
ENDBRANCH   5   8
BRANCH   1  20
ATOM     19  N   UNL     1      30.780  23.571  14.977  0.00  0.00    -0.329 N 
ATOM     20  C   UNL     1      30.606  22.229  14.834  0.00  0.00    +0.215 C 
ATOM     21  O   UNL     1      30.154  21.782  13.785  0.00  0.00    -0.276 OA
ATOM     22  H   UNL     1      30.571  24.141  14.167  0.00  0.00    +0.145 HD
ATOM     23  H   UNL     1      31.289  23.989  15.743  0.00  0.00    +0.145 HD
ENDBRANCH   1  20
TORSDOF 4
ENDMDL
MODEL 5
REMARK VINA RESULT:      -6.0      6.960      9.104
REMARK  Name = ZINC000826139982
REMARK  4 active torsions:
REMARK  status: ('A' for Active; 'I' for Inactive)
REMARK    1  A    between atoms: C_2  and  C_4
REMARK    2  A    between atoms: C_8  and  C_10
REMARK    3  A    between atoms: C_14  and  S_15
REMARK    4  A    between atoms: S_15  and  C_16
REMARK                            x       y       z     vdW  Elec       q    Type
REMARK                         _______ _______ _______ _____ _____    ______ ____
ROOT
ATOM      1  C   UNL     1      22.060  28.128  17.370  0.00  0.00    +0.093 C 
ATOM      2  C   UNL     1      22.751  28.063  18.732  0.00  0.00    +0.033 C 
ATOM      3  C   UNL     1      24.024  27.298  18.407  0.00  0.00    +0.109 C 
ATOM      4  N   UNL     1      23.535  26.247  17.525  0.00  0.00    -0.297 N 
ATOM      5  C   UNL     1      24.012  24.967  17.270  0.00  0.00    +0.247 C 
ATOM      6  O   UNL     1      23.516  24.275  16.377  0.00  0.00    -0.270 OA
ATOM      7  C   UNL     1      22.427  26.781  16.730  0.00  0.00    +0.120 C 
ENDROOT
BRANCH   5   8
ATOM      8  C   UNL     1      25.152  24.381  18.038  0.00  0.00    +0.038 A 
ATOM      9  C   UNL     1      25.466  24.740  19.349  0.00  0.00    +0.013 A 
ATOM     10  C   UNL     1      26.599  24.224  19.983  0.00  0.00    +0.002 A 
ATOM     11  C   UNL     1      27.352  23.232  19.361  0.00  0.00    +0.015 A 
ATOM     12  C   UNL     1      26.952  22.726  18.121  0.00  0.00    +0.017 A 
ATOM     13  C   UNL     1      25.881  23.331  17.446  0.00  0.00    +0.028 A 
BRANCH  12  14
ATOM     14  S   UNL     1      27.795  21.341  17.387  0.00  0.00    -0.016 S 
BRANCH  14  15
ATOM     15  C   UNL     1      29.228  22.152  16.646  0.00  0.00    +0.448 C 
ATOM     16  F   UNL     1      29.526  21.715  15.398  0.00  0.00    -0.160 F 
ATOM     17  F   UNL     1      29.036  23.490  16.561  0.00  0.00    -0.160 F 
ATOM     18  F   UNL     1      30.334  21.955  17.405  0.00  0.00    -0.160 F 
ENDBRANCH  14  15
ENDBRANCH  12  14
ENDBRANCH   5   8
BRANCH   1  20
ATOM     19  N   UNL     1      22.419  29.261  15.229  0.00  0.00    -0.329 N 
ATOM     20  C   UNL     1      22.558  29.330  16.581  0.00  0.00    +0.215 C 
ATOM     21  O   UNL     1      23.022  30.343  17.094  0.00  0.00    -0.276 OA
ATOM     22  H   UNL     1      22.665  30.093  14.708  0.00  0.00    +0.145 HD
ATOM     23  H   UNL     1      21.903  28.531  14.759  0.00  0.00    +0.145 HD
ENDBRANCH   1  20
TORSDOF 4
ENDMDL
MODEL 6
REMARK VINA RESULT:      -6.0      5.810      7.489
REMARK  Name = ZINC000826139982
REMARK  4 active torsions:
REMARK  status: ('A' for Active; 'I' for Inactive)
REMARK    1  A    between atoms: C_2  and  C_4
REMARK    2  A    between atoms: C_8  and  C_10
REMARK    3  A    between atoms: C_14  and  S_15
REMARK    4  A    between atoms: S_15  and  C_16
REMARK                            x       y       z     vdW  Elec       q    Type
REMARK                         _______ _______ _______ _____ _____    ______ ____
ROOT
ATOM      1  C   UNL     1      30.908  21.037  16.360  0.00  0.00    +0.093 C 
ATOM      2  C   UNL     1      29.864  21.773  15.521  0.00  0.00    +0.033 C 
ATOM      3  C   UNL     1      30.502  21.763  14.140  0.00  0.00    +0.109 C 
ATOM      4  N   UNL     1      31.891  22.079  14.440  0.00  0.00    -0.297 N 
ATOM      5  C   UNL     1      32.876  22.698  13.681  0.00  0.00    +0.247 C 
ATOM      6  O   UNL     1      34.042  22.752  14.082  0.00  0.00    -0.270 OA
ATOM      7  C   UNL     1      32.236  21.486  15.735  0.00  0.00    +0.120 C 
ENDROOT
BRANCH   5   8
ATOM      8  C   UNL     1      32.582  23.302  12.345  0.00  0.00    +0.038 A 
ATOM      9  C   UNL     1      31.721  24.384  12.159  0.00  0.00    +0.013 A 
ATOM     10  C   UNL     1      31.416  24.845  10.877  0.00  0.00    +0.002 A 
ATOM     11  C   UNL     1      32.080  24.319   9.773  0.00  0.00    +0.015 A 
ATOM     12  C   UNL     1      33.079  23.359   9.951  0.00  0.00    +0.017 A 
ATOM     13  C   UNL     1      33.296  22.823  11.230  0.00  0.00    +0.028 A 
BRANCH  12  14
ATOM     14  S   UNL     1      34.062  22.799   8.576  0.00  0.00    -0.016 S 
BRANCH  14  15
ATOM     15  C   UNL     1      32.813  21.985   7.558  0.00  0.00    +0.448 C 
ATOM     16  F   UNL     1      32.043  22.838   6.841  0.00  0.00    -0.160 F 
ATOM     17  F   UNL     1      33.387  21.133   6.676  0.00  0.00    -0.160 F 
ATOM     18  F   UNL     1      31.971  21.252   8.330  0.00  0.00    -0.160 F 
ENDBRANCH  14  15
ENDBRANCH  12  14
ENDBRANCH   5   8
BRANCH   1  20
ATOM     19  N   UNL     1      29.625  19.050  16.996  0.00  0.00    -0.329 N 
ATOM     20  C   UNL     1      30.682  19.534  16.288  0.00  0.00    +0.215 C 
ATOM     21  O   UNL     1      31.360  18.770  15.608  0.00  0.00    -0.276 OA
ATOM     22  H   UNL     1      29.417  18.067  16.879  0.00  0.00    +0.145 HD
ATOM     23  H   UNL     1      28.937  19.640  17.443  0.00  0.00    +0.145 HD
ENDBRANCH   1  20
TORSDOF 4
ENDMDL
MODEL 7
REMARK VINA RESULT:      -5.9      8.449     10.528
REMARK  Name = ZINC000826139982
REMARK  4 active torsions:
REMARK  status: ('A' for Active; 'I' for Inactive)
REMARK    1  A    between atoms: C_2  and  C_4
REMARK    2  A    between atoms: C_8  and  C_10
REMARK    3  A    between atoms: C_14  and  S_15
REMARK    4  A    between atoms: S_15  and  C_16
REMARK                            x       y       z     vdW  Elec       q    Type
REMARK                         _______ _______ _______ _____ _____    ______ ____
ROOT
ATOM      1  C   UNL     1      35.846  21.939   6.390  0.00  0.00    +0.093 C 
ATOM      2  C   UNL     1      35.282  21.143   7.567  0.00  0.00    +0.033 C 
ATOM      3  C   UNL     1      34.145  22.035   8.039  0.00  0.00    +0.109 C 
ATOM      4  N   UNL     1      34.746  23.360   7.974  0.00  0.00    -0.297 N 
ATOM      5  C   UNL     1      34.487  24.522   8.691  0.00  0.00    +0.247 C 
ATOM      6  O   UNL     1      35.030  25.587   8.385  0.00  0.00    -0.270 OA
ATOM      7  C   UNL     1      35.678  23.396   6.844  0.00  0.00    +0.120 C 
ENDROOT
BRANCH   5   8
ATOM      8  C   UNL     1      33.531  24.545   9.840  0.00  0.00    +0.038 A 
ATOM      9  C   UNL     1      32.172  24.833   9.708  0.00  0.00    +0.013 A 
ATOM     10  C   UNL     1      31.347  24.929  10.830  0.00  0.00    +0.002 A 
ATOM     11  C   UNL     1      31.843  24.598  12.088  0.00  0.00    +0.015 A 
ATOM     12  C   UNL     1      33.153  24.132  12.221  0.00  0.00    +0.017 A 
ATOM     13  C   UNL     1      34.004  24.149  11.105  0.00  0.00    +0.028 A 
BRANCH  12  14
ATOM     14  S   UNL     1      33.756  23.539  13.788  0.00  0.00    -0.016 S 
BRANCH  14  15
ATOM     15  C   UNL     1      32.693  22.103  14.054  0.00  0.00    +0.448 C 
ATOM     16  F   UNL     1      33.222  21.171  14.882  0.00  0.00    -0.160 F 
ATOM     17  F   UNL     1      31.503  22.474  14.583  0.00  0.00    -0.160 F 
ATOM     18  F   UNL     1      32.430  21.480  12.878  0.00  0.00    -0.160 F 
ENDBRANCH  14  15
ENDBRANCH  12  14
ENDBRANCH   5   8
BRANCH   1  20
ATOM     19  N   UNL     1      34.826  22.655   4.282  0.00  0.00    -0.329 N 
ATOM     20  C   UNL     1      35.084  21.610   5.115  0.00  0.00    +0.215 C 
ATOM     21  O   UNL     1      34.742  20.476   4.793  0.00  0.00    -0.276 OA
ATOM     22  H   UNL     1      34.401  22.427   3.393  0.00  0.00    +0.145 HD
ATOM     23  H   UNL     1      35.217  23.577   4.408  0.00  0.00    +0.145 HD
ENDBRANCH   1  20
TORSDOF 4
ENDMDL
MODEL 8
REMARK VINA RESULT:      -5.9      4.876      7.648
REMARK  Name = ZINC000826139982
REMARK  4 active torsions:
REMARK  status: ('A' for Active; 'I' for Inactive)
REMARK    1  A    between atoms: C_2  and  C_4
REMARK    2  A    between atoms: C_8  and  C_10
REMARK    3  A    between atoms: C_14  and  S_15
REMARK    4  A    between atoms: S_15  and  C_16
REMARK                            x       y       z     vdW  Elec       q    Type
REMARK                         _______ _______ _______ _____ _____    ______ ____
ROOT
ATOM      1  C   UNL     1      31.396  14.044  11.775  0.00  0.00    +0.093 C 
ATOM      2  C   UNL     1      32.093  15.396  11.628  0.00  0.00    +0.033 C 
ATOM      3  C   UNL     1      32.348  15.781  13.078  0.00  0.00    +0.109 C 
ATOM      4  N   UNL     1      31.094  15.410  13.719  0.00  0.00    -0.297 N 
ATOM      5  C   UNL     1      30.459  15.909  14.850  0.00  0.00    +0.247 C 
ATOM      6  O   UNL     1      29.452  15.357  15.303  0.00  0.00    -0.270 OA
ATOM      7  C   UNL     1      30.561  14.220  13.051  0.00  0.00    +0.120 C 
ENDROOT
BRANCH   5   8
ATOM      8  C   UNL     1      30.971  17.108  15.580  0.00  0.00    +0.038 A 
ATOM      9  C   UNL     1      32.070  17.078  16.438  0.00  0.00    +0.013 A 
ATOM     10  C   UNL     1      32.446  18.211  17.163  0.00  0.00    +0.002 A 
ATOM     11  C   UNL     1      31.811  19.427  16.929  0.00  0.00    +0.015 A 
ATOM     12  C   UNL     1      30.826  19.522  15.942  0.00  0.00    +0.017 A 
ATOM     13  C   UNL     1      30.380  18.356  15.303  0.00  0.00    +0.028 A 
BRANCH  12  14
ATOM     14  S   UNL     1      30.123  21.098  15.503  0.00  0.00    -0.016 S 
BRANCH  14  15
ATOM     15  C   UNL     1      29.027  21.398  16.907  0.00  0.00    +0.448 C 
ATOM     16  F   UNL     1      29.673  21.709  18.056  0.00  0.00    -0.160 F 
ATOM     17  F   UNL     1      28.173  22.417  16.646  0.00  0.00    -0.160 F 
ATOM     18  F   UNL     1      28.271  20.302  17.166  0.00  0.00    -0.160 F 
ENDBRANCH  14  15
ENDBRANCH  12  14
ENDBRANCH   5   8
BRANCH   1  20
ATOM     19  N   UNL     1      33.298  12.821  10.834  0.00  0.00    -0.329 N 
ATOM     20  C   UNL     1      32.423  12.926  11.872  0.00  0.00    +0.215 C 
ATOM     21  O   UNL     1      32.523  12.167  12.831  0.00  0.00    -0.276 OA
ATOM     22  H   UNL     1      34.037  12.138  10.937  0.00  0.00    +0.145 HD
ATOM     23  H   UNL     1      33.373  13.507  10.097  0.00  0.00    +0.145 HD
ENDBRANCH   1  20
TORSDOF 4
ENDMDL
MODEL 9
REMARK VINA RESULT:      -5.9      3.103      4.504
REMARK  Name = ZINC000826139982
REMARK  4 active torsions:
REMARK  status: ('A' for Active; 'I' for Inactive)
REMARK    1  A    between atoms: C_2  and  C_4
REMARK    2  A    between atoms: C_8  and  C_10
REMARK    3  A    between atoms: C_14  and  S_15
REMARK    4  A    between atoms: S_15  and  C_16
REMARK                            x       y       z     vdW  Elec       q    Type
REMARK                         _______ _______ _______ _____ _____    ______ ____
ROOT
ATOM      1  C   UNL     1      30.901  19.267  16.566  0.00  0.00    +0.093 C 
ATOM      2  C   UNL     1      31.602  19.083  15.220  0.00  0.00    +0.033 C 
ATOM      3  C   UNL     1      30.653  18.140  14.495  0.00  0.00    +0.109 C 
ATOM      4  N   UNL     1      30.311  17.185  15.538  0.00  0.00    -0.297 N 
ATOM      5  C   UNL     1      29.926  15.851  15.472  0.00  0.00    +0.247 C 
ATOM      6  O   UNL     1      29.550  15.252  16.483  0.00  0.00    -0.270 OA
ATOM      7  C   UNL     1      30.276  17.888  16.823  0.00  0.00    +0.120 C 
ENDROOT
BRANCH   5   8
ATOM      8  C   UNL     1      29.925  15.092  14.184  0.00  0.00    +0.038 A 
ATOM      9  C   UNL     1      28.763  14.739  13.498  0.00  0.00    +0.013 A 
ATOM     10  C   UNL     1      28.822  13.950  12.347  0.00  0.00    +0.002 A 
ATOM     11  C   UNL     1      30.055  13.626  11.789  0.00  0.00    +0.015 A 
ATOM     12  C   UNL     1      31.231  14.122  12.359  0.00  0.00    +0.017 A 
ATOM     13  C   UNL     1      31.164  14.815  13.576  0.00  0.00    +0.028 A 
BRANCH  12  14
ATOM     14  S   UNL     1      32.806  13.867  11.568  0.00  0.00    -0.016 S 
BRANCH  14  15
ATOM     15  C   UNL     1      33.011  15.426  10.680  0.00  0.00    +0.448 C 
ATOM     16  F   UNL     1      34.136  15.489   9.928  0.00  0.00    -0.160 F 
ATOM     17  F   UNL     1      31.966  15.651   9.848  0.00  0.00    -0.160 F 
ATOM     18  F   UNL     1      33.061  16.467  11.548  0.00  0.00    -0.160 F 
ENDBRANCH  14  15
ENDBRANCH  12  14
ENDBRANCH   5   8
BRANCH   1  20
ATOM     19  N   UNL     1      28.801  20.285  17.307  0.00  0.00    -0.329 N 
ATOM     20  C   UNL     1      29.879  20.390  16.483  0.00  0.00    +0.215 C 
ATOM     21  O   UNL     1      30.000  21.376  15.762  0.00  0.00    -0.276 OA
ATOM     22  H   UNL     1      28.166  21.073  17.320  0.00  0.00    +0.145 HD
ATOM     23  H   UNL     1      28.721  19.588  18.033  0.00  0.00    +0.145 HD
ENDBRANCH   1  20
TORSDOF 4
ENDMDL
