MODEL 1
REMARK VINA RESULT:      -7.2      0.000      0.000
REMARK  Name = ZINC000329563636
REMARK  3 active torsions:
REMARK  status: ('A' for Active; 'I' for Inactive)
REMARK    1  A    between atoms: C_1  and  C_2
REMARK    2  A    between atoms: C_2  and  N_3
REMARK    3  A    between atoms: N_9  and  C_10
REMARK                            x       y       z     vdW  Elec       q    Type
REMARK                         _______ _______ _______ _____ _____    ______ ____
ROOT
ATOM      1  C   UNL     1      30.489  21.939  13.968  0.00  0.00    +0.112 C 
ATOM      2  C   UNL     1      29.395  20.879  13.807  0.00  0.00    +0.075 C 
ATOM      3  C   UNL     1      29.451  19.731  14.826  0.00  0.00    +0.113 C 
ATOM      4  C   UNL     1      28.756  20.027  16.180  0.00  0.00    +0.048 C 
ATOM      5  C   UNL     1      27.529  19.125  16.239  0.00  0.00    +0.004 C 
ATOM      6  C   UNL     1      27.922  17.914  15.417  0.00  0.00    +0.004 C 
ATOM      7  C   UNL     1      28.668  18.526  14.244  0.00  0.00    +0.048 C 
ATOM      8  O   UNL     1      30.801  19.287  15.058  0.00  0.00    -0.485 OA
ATOM      9  C   UNL     1      31.631  20.290  15.485  0.00  0.00    +0.126 A 
ATOM     10  C   UNL     1      32.618  19.960  16.411  0.00  0.00    +0.046 A 
ATOM     11  C   UNL     1      33.465  20.951  16.910  0.00  0.00    +0.004 A 
ATOM     12  C   UNL     1      33.338  22.265  16.468  0.00  0.00    +0.001 A 
ATOM     13  C   UNL     1      32.370  22.585  15.517  0.00  0.00    +0.009 A 
ATOM     14  C   UNL     1      31.506  21.596  15.018  0.00  0.00    +0.015 A 
ENDROOT
BRANCH   1  21
ATOM     15  N   UNL     1      33.937  24.105   9.169  0.00  0.00    -0.299 N 
ATOM     16  C   UNL     1      33.054  25.098   9.780  0.00  0.00    +0.127 C 
ATOM     17  C   UNL     1      31.639  24.565   9.981  0.00  0.00    +0.129 C 
ATOM     18  N   UNL     1      31.701  23.346  10.774  0.00  0.00    -0.275 N 
ATOM     19  C   UNL     1      31.041  23.298  11.981  0.00  0.00    +0.303 C 
ATOM     20  O   UNL     1      30.392  24.247  12.419  0.00  0.00    -0.253 OA
ATOM     21  N   UNL     1      31.175  22.140  12.692  0.00  0.00    -0.292 N 
ATOM     22  C   UNL     1      32.533  22.289  10.195  0.00  0.00    +0.205 C 
ATOM     23  C   UNL     1      33.707  22.740   9.300  0.00  0.00    +0.233 C 
ATOM     24  O   UNL     1      34.414  21.898   8.742  0.00  0.00    -0.274 OA
ATOM     25  H   UNL     1      31.385  21.296  12.185  0.00  0.00    +0.151 HD
BRANCH  15  27
ATOM     26  C   UNL     1      35.181  26.085   8.376  0.00  0.00    +0.024 C 
ATOM     27  C   UNL     1      35.152  24.573   8.511  0.00  0.00    +0.104 C 
ENDBRANCH  15  27
ENDBRANCH   1  21
TORSDOF 2
ENDMDL
MODEL 2
REMARK VINA RESULT:      -6.8      2.386      4.285
REMARK  Name = ZINC000329563636
REMARK  3 active torsions:
REMARK  status: ('A' for Active; 'I' for Inactive)
REMARK    1  A    between atoms: C_1  and  C_2
REMARK    2  A    between atoms: C_2  and  N_3
REMARK    3  A    between atoms: N_9  and  C_10
REMARK                            x       y       z     vdW  Elec       q    Type
REMARK                         _______ _______ _______ _____ _____    ______ ____
ROOT
ATOM      1  C   UNL     1      31.884  21.615  15.767  0.00  0.00    +0.112 C 
ATOM      2  C   UNL     1      32.296  22.420  17.004  0.00  0.00    +0.075 C 
ATOM      3  C   UNL     1      31.332  22.317  18.195  0.00  0.00    +0.113 C 
ATOM      4  C   UNL     1      31.554  21.083  19.108  0.00  0.00    +0.048 C 
ATOM      5  C   UNL     1      32.071  21.621  20.437  0.00  0.00    +0.004 C 
ATOM      6  C   UNL     1      31.455  23.002  20.541  0.00  0.00    +0.004 C 
ATOM      7  C   UNL     1      31.573  23.534  19.124  0.00  0.00    +0.048 C 
ATOM      8  O   UNL     1      29.955  22.370  17.775  0.00  0.00    -0.485 OA
ATOM      9  C   UNL     1      29.633  21.398  16.866  0.00  0.00    +0.126 A 
ATOM     10  C   UNL     1      28.357  20.842  16.941  0.00  0.00    +0.046 A 
ATOM     11  C   UNL     1      27.989  19.819  16.065  0.00  0.00    +0.004 A 
ATOM     12  C   UNL     1      28.889  19.367  15.103  0.00  0.00    +0.001 A 
ATOM     13  C   UNL     1      30.153  19.948  15.011  0.00  0.00    +0.009 A 
ATOM     14  C   UNL     1      30.535  20.970  15.895  0.00  0.00    +0.015 A 
ENDROOT
BRANCH   1  21
ATOM     15  N   UNL     1      32.664  24.161  10.065  0.00  0.00    -0.299 N 
ATOM     16  C   UNL     1      33.873  23.570  10.637  0.00  0.00    +0.127 C 
ATOM     17  C   UNL     1      34.094  23.997  12.085  0.00  0.00    +0.129 C 
ATOM     18  N   UNL     1      32.913  23.655  12.864  0.00  0.00    -0.275 N 
ATOM     19  C   UNL     1      33.039  22.793  13.929  0.00  0.00    +0.303 C 
ATOM     20  O   UNL     1      34.117  22.299  14.256  0.00  0.00    -0.253 OA
ATOM     21  N   UNL     1      31.885  22.483  14.590  0.00  0.00    -0.292 N 
ATOM     22  C   UNL     1      31.669  24.254  12.372  0.00  0.00    +0.205 C 
ATOM     23  C   UNL     1      31.591  24.549  10.859  0.00  0.00    +0.233 C 
ATOM     24  O   UNL     1      30.592  25.099  10.391  0.00  0.00    -0.274 OA
ATOM     25  H   UNL     1      31.125  23.141  14.547  0.00  0.00    +0.151 HD
BRANCH  15  27
ATOM     26  C   UNL     1      32.973  22.928   7.947  0.00  0.00    +0.024 C 
ATOM     27  C   UNL     1      32.548  24.226   8.612  0.00  0.00    +0.104 C 
ENDBRANCH  15  27
ENDBRANCH   1  21
TORSDOF 2
ENDMDL
MODEL 3
REMARK VINA RESULT:      -6.6      4.410      8.057
REMARK  Name = ZINC000329563636
REMARK  3 active torsions:
REMARK  status: ('A' for Active; 'I' for Inactive)
REMARK    1  A    between atoms: C_1  and  C_2
REMARK    2  A    between atoms: C_2  and  N_3
REMARK    3  A    between atoms: N_9  and  C_10
REMARK                            x       y       z     vdW  Elec       q    Type
REMARK                         _______ _______ _______ _____ _____    ______ ____
ROOT
ATOM      1  C   UNL     1      33.246  22.934  16.987  0.00  0.00    +0.112 C 
ATOM      2  C   UNL     1      33.477  24.390  16.571  0.00  0.00    +0.075 C 
ATOM      3  C   UNL     1      34.199  25.257  17.614  0.00  0.00    +0.113 C 
ATOM      4  C   UNL     1      35.746  25.159  17.582  0.00  0.00    +0.048 C 
ATOM      5  C   UNL     1      36.251  26.512  17.094  0.00  0.00    +0.004 C 
ATOM      6  C   UNL     1      35.194  27.491  17.566  0.00  0.00    +0.004 C 
ATOM      7  C   UNL     1      33.898  26.745  17.303  0.00  0.00    +0.048 C 
ATOM      8  O   UNL     1      33.723  24.997  18.948  0.00  0.00    -0.485 OA
ATOM      9  C   UNL     1      33.840  23.681  19.314  0.00  0.00    +0.126 A 
ATOM     10  C   UNL     1      34.155  23.408  20.643  0.00  0.00    +0.046 A 
ATOM     11  C   UNL     1      34.327  22.088  21.063  0.00  0.00    +0.004 A 
ATOM     12  C   UNL     1      34.164  21.042  20.157  0.00  0.00    +0.001 A 
ATOM     13  C   UNL     1      33.818  21.319  18.835  0.00  0.00    +0.009 A 
ATOM     14  C   UNL     1      33.654  22.645  18.403  0.00  0.00    +0.015 A 
ENDROOT
BRANCH   1  21
ATOM     15  N   UNL     1      27.753  20.039  15.967  0.00  0.00    -0.299 N 
ATOM     16  C   UNL     1      28.777  19.772  14.958  0.00  0.00    +0.127 C 
ATOM     17  C   UNL     1      29.467  21.047  14.485  0.00  0.00    +0.129 C 
ATOM     18  N   UNL     1      30.021  21.741  15.638  0.00  0.00    -0.275 N 
ATOM     19  C   UNL     1      31.377  21.971  15.693  0.00  0.00    +0.303 C 
ATOM     20  O   UNL     1      32.145  21.617  14.799  0.00  0.00    -0.253 OA
ATOM     21  N   UNL     1      31.834  22.589  16.821  0.00  0.00    -0.292 N 
ATOM     22  C   UNL     1      29.038  22.082  16.669  0.00  0.00    +0.205 C 
ATOM     23  C   UNL     1      27.806  21.160  16.788  0.00  0.00    +0.233 C 
ATOM     24  O   UNL     1      26.918  21.422  17.601  0.00  0.00    -0.274 OA
ATOM     25  H   UNL     1      31.193  23.168  17.337  0.00  0.00    +0.151 HD
BRANCH  15  27
ATOM     26  C   UNL     1      27.212  17.631  15.863  0.00  0.00    +0.024 C 
ATOM     27  C   UNL     1      26.721  19.031  16.188  0.00  0.00    +0.104 C 
ENDBRANCH  15  27
ENDBRANCH   1  21
TORSDOF 2
ENDMDL
MODEL 4
REMARK VINA RESULT:      -6.5      2.470      7.665
REMARK  Name = ZINC000329563636
REMARK  3 active torsions:
REMARK  status: ('A' for Active; 'I' for Inactive)
REMARK    1  A    between atoms: C_1  and  C_2
REMARK    2  A    between atoms: C_2  and  N_3
REMARK    3  A    between atoms: N_9  and  C_10
REMARK                            x       y       z     vdW  Elec       q    Type
REMARK                         _______ _______ _______ _____ _____    ______ ____
ROOT
ATOM      1  C   UNL     1      33.115  21.804  12.882  0.00  0.00    +0.112 C 
ATOM      2  C   UNL     1      33.890  20.685  12.179  0.00  0.00    +0.075 C 
ATOM      3  C   UNL     1      34.098  20.889  10.671  0.00  0.00    +0.113 C 
ATOM      4  C   UNL     1      35.319  21.767  10.296  0.00  0.00    +0.048 C 
ATOM      5  C   UNL     1      36.326  20.838   9.627  0.00  0.00    +0.004 C 
ATOM      6  C   UNL     1      35.468  19.768   8.982  0.00  0.00    +0.004 C 
ATOM      7  C   UNL     1      34.400  19.510  10.031  0.00  0.00    +0.048 C 
ATOM      8  O   UNL     1      32.914  21.403  10.032  0.00  0.00    -0.485 OA
ATOM      9  C   UNL     1      32.478  22.582  10.578  0.00  0.00    +0.126 A 
ATOM     10  C   UNL     1      31.921  23.524   9.715  0.00  0.00    +0.046 A 
ATOM     11  C   UNL     1      31.497  24.758  10.209  0.00  0.00    +0.004 A 
ATOM     12  C   UNL     1      31.612  25.042  11.568  0.00  0.00    +0.001 A 
ATOM     13  C   UNL     1      32.141  24.084  12.433  0.00  0.00    +0.009 A 
ATOM     14  C   UNL     1      32.580  22.843  11.941  0.00  0.00    +0.015 A 
ENDROOT
BRANCH   1  21
ATOM     15  N   UNL     1      28.048  20.843  16.489  0.00  0.00    -0.299 N 
ATOM     16  C   UNL     1      29.039  21.752  17.064  0.00  0.00    +0.127 C 
ATOM     17  C   UNL     1      30.457  21.196  16.966  0.00  0.00    +0.129 C 
ATOM     18  N   UNL     1      30.752  20.895  15.573  0.00  0.00    -0.275 N 
ATOM     19  C   UNL     1      31.807  21.531  14.959  0.00  0.00    +0.303 C 
ATOM     20  O   UNL     1      32.520  22.345  15.545  0.00  0.00    -0.253 OA
ATOM     21  N   UNL     1      32.002  21.234  13.641  0.00  0.00    -0.292 N 
ATOM     22  C   UNL     1      29.822  19.951  14.947  0.00  0.00    +0.205 C 
ATOM     23  C   UNL     1      28.381  19.926  15.499  0.00  0.00    +0.233 C 
ATOM     24  O   UNL     1      27.565  19.118  15.051  0.00  0.00    -0.274 OA
ATOM     25  H   UNL     1      31.667  20.348  13.302  0.00  0.00    +0.151 HD
BRANCH  15  27
ATOM     26  C   UNL     1      26.520  21.738  18.210  0.00  0.00    +0.024 C 
ATOM     27  C   UNL     1      26.654  20.999  16.891  0.00  0.00    +0.104 C 
ENDBRANCH  15  27
ENDBRANCH   1  21
TORSDOF 2
ENDMDL
MODEL 5
REMARK VINA RESULT:      -6.5      2.700      7.919
REMARK  Name = ZINC000329563636
REMARK  3 active torsions:
REMARK  status: ('A' for Active; 'I' for Inactive)
REMARK    1  A    between atoms: C_1  and  C_2
REMARK    2  A    between atoms: C_2  and  N_3
REMARK    3  A    between atoms: N_9  and  C_10
REMARK                            x       y       z     vdW  Elec       q    Type
REMARK                         _______ _______ _______ _____ _____    ______ ____
ROOT
ATOM      1  C   UNL     1      33.014  23.402  13.577  0.00  0.00    +0.112 C 
ATOM      2  C   UNL     1      34.471  22.962  13.750  0.00  0.00    +0.075 C 
ATOM      3  C   UNL     1      35.361  23.165  12.514  0.00  0.00    +0.113 C 
ATOM      4  C   UNL     1      35.964  24.587  12.373  0.00  0.00    +0.048 C 
ATOM      5  C   UNL     1      37.465  24.441  12.598  0.00  0.00    +0.004 C 
ATOM      6  C   UNL     1      37.773  23.035  12.123  0.00  0.00    +0.004 C 
ATOM      7  C   UNL     1      36.593  22.233  12.644  0.00  0.00    +0.048 C 
ATOM      8  O   UNL     1      34.680  22.802  11.299  0.00  0.00    -0.485 OA
ATOM      9  C   UNL     1      33.510  23.490  11.113  0.00  0.00    +0.126 A 
ATOM     10  C   UNL     1      33.166  23.837   9.808  0.00  0.00    +0.046 A 
ATOM     11  C   UNL     1      32.005  24.572   9.564  0.00  0.00    +0.004 A 
ATOM     12  C   UNL     1      31.179  24.943  10.622  0.00  0.00    +0.001 A 
ATOM     13  C   UNL     1      31.510  24.566  11.924  0.00  0.00    +0.009 A 
ATOM     14  C   UNL     1      32.683  23.835  12.178  0.00  0.00    +0.015 A 
ENDROOT
BRANCH   1  21
ATOM     15  N   UNL     1      28.332  19.866  15.852  0.00  0.00    -0.299 N 
ATOM     16  C   UNL     1      28.871  20.843  16.798  0.00  0.00    +0.127 C 
ATOM     17  C   UNL     1      30.396  20.828  16.837  0.00  0.00    +0.129 C 
ATOM     18  N   UNL     1      30.905  21.050  15.491  0.00  0.00    -0.275 N 
ATOM     19  C   UNL     1      31.710  22.140  15.251  0.00  0.00    +0.303 C 
ATOM     20  O   UNL     1      32.024  22.938  16.134  0.00  0.00    -0.253 OA
ATOM     21  N   UNL     1      32.119  22.311  13.960  0.00  0.00    -0.292 N 
ATOM     22  C   UNL     1      30.442  20.076  14.500  0.00  0.00    +0.205 C 
ATOM     23  C   UNL     1      29.064  19.428  14.753  0.00  0.00    +0.233 C 
ATOM     24  O   UNL     1      28.640  18.563  13.984  0.00  0.00    -0.274 OA
ATOM     25  H   UNL     1      32.160  21.500  13.366  0.00  0.00    +0.151 HD
BRANCH  15  27
ATOM     26  C   UNL     1      26.833  18.156  16.815  0.00  0.00    +0.024 C 
ATOM     27  C   UNL     1      26.946  19.440  16.013  0.00  0.00    +0.104 C 
ENDBRANCH  15  27
ENDBRANCH   1  21
TORSDOF 2
ENDMDL
MODEL 6
REMARK VINA RESULT:      -6.4      4.379      7.588
REMARK  Name = ZINC000329563636
REMARK  3 active torsions:
REMARK  status: ('A' for Active; 'I' for Inactive)
REMARK    1  A    between atoms: C_1  and  C_2
REMARK    2  A    between atoms: C_2  and  N_3
REMARK    3  A    between atoms: N_9  and  C_10
REMARK                            x       y       z     vdW  Elec       q    Type
REMARK                         _______ _______ _______ _____ _____    ______ ____
ROOT
ATOM      1  C   UNL     1      31.540  19.859  14.175  0.00  0.00    +0.112 C 
ATOM      2  C   UNL     1      32.810  19.338  13.494  0.00  0.00    +0.075 C 
ATOM      3  C   UNL     1      32.700  17.919  12.916  0.00  0.00    +0.113 C 
ATOM      4  C   UNL     1      32.087  17.842  11.494  0.00  0.00    +0.048 C 
ATOM      5  C   UNL     1      33.214  17.409  10.563  0.00  0.00    +0.004 C 
ATOM      6  C   UNL     1      34.119  16.574  11.446  0.00  0.00    +0.004 C 
ATOM      7  C   UNL     1      34.132  17.348  12.752  0.00  0.00    +0.048 C 
ATOM      8  O   UNL     1      31.989  17.034  13.801  0.00  0.00    -0.485 OA
ATOM      9  C   UNL     1      30.731  17.479  14.110  0.00  0.00    +0.126 A 
ATOM     10  C   UNL     1      29.728  16.524  14.264  0.00  0.00    +0.046 A 
ATOM     11  C   UNL     1      28.420  16.923  14.539  0.00  0.00    +0.004 A 
ATOM     12  C   UNL     1      28.119  18.276  14.680  0.00  0.00    +0.001 A 
ATOM     13  C   UNL     1      29.131  19.227  14.557  0.00  0.00    +0.009 A 
ATOM     14  C   UNL     1      30.449  18.833  14.270  0.00  0.00    +0.015 A 
ENDROOT
BRANCH   1  21
ATOM     15  N   UNL     1      31.377  22.134  20.040  0.00  0.00    -0.299 N 
ATOM     16  C   UNL     1      30.605  22.906  19.067  0.00  0.00    +0.127 C 
ATOM     17  C   UNL     1      31.393  23.178  17.790  0.00  0.00    +0.129 C 
ATOM     18  N   UNL     1      31.842  21.911  17.232  0.00  0.00    -0.275 N 
ATOM     19  C   UNL     1      31.437  21.557  15.965  0.00  0.00    +0.303 C 
ATOM     20  O   UNL     1      30.712  22.274  15.278  0.00  0.00    -0.253 OA
ATOM     21  N   UNL     1      31.860  20.338  15.520  0.00  0.00    -0.292 N 
ATOM     22  C   UNL     1      32.663  21.106  18.140  0.00  0.00    +0.205 C 
ATOM     23  C   UNL     1      32.408  21.286  19.651  0.00  0.00    +0.233 C 
ATOM     24  O   UNL     1      33.100  20.675  20.469  0.00  0.00    -0.274 OA
ATOM     25  H   UNL     1      32.701  19.954  15.917  0.00  0.00    +0.151 HD
BRANCH  15  27
ATOM     26  C   UNL     1      31.918  22.988  22.293  0.00  0.00    +0.024 C 
ATOM     27  C   UNL     1      30.963  22.174  21.438  0.00  0.00    +0.104 C 
ENDBRANCH  15  27
ENDBRANCH   1  21
TORSDOF 2
ENDMDL
MODEL 7
REMARK VINA RESULT:      -6.3     24.795     28.329
REMARK  Name = ZINC000329563636
REMARK  3 active torsions:
REMARK  status: ('A' for Active; 'I' for Inactive)
REMARK    1  A    between atoms: C_1  and  C_2
REMARK    2  A    between atoms: C_2  and  N_3
REMARK    3  A    between atoms: N_9  and  C_10
REMARK                            x       y       z     vdW  Elec       q    Type
REMARK                         _______ _______ _______ _____ _____    ______ ____
ROOT
ATOM      1  C   UNL     1      19.191   6.125  29.336  0.00  0.00    +0.112 C 
ATOM      2  C   UNL     1      20.527   6.393  30.036  0.00  0.00    +0.075 C 
ATOM      3  C   UNL     1      21.642   5.387  29.711  0.00  0.00    +0.113 C 
ATOM      4  C   UNL     1      22.433   5.689  28.412  0.00  0.00    +0.048 C 
ATOM      5  C   UNL     1      23.839   6.085  28.848  0.00  0.00    +0.004 C 
ATOM      6  C   UNL     1      24.050   5.328  30.144  0.00  0.00    +0.004 C 
ATOM      7  C   UNL     1      22.705   5.460  30.837  0.00  0.00    +0.048 C 
ATOM      8  O   UNL     1      21.150   4.035  29.679  0.00  0.00    -0.485 OA
ATOM      9  C   UNL     1      20.126   3.857  28.785  0.00  0.00    +0.126 A 
ATOM     10  C   UNL     1      20.068   2.642  28.106  0.00  0.00    +0.046 A 
ATOM     11  C   UNL     1      19.071   2.421  27.155  0.00  0.00    +0.004 A 
ATOM     12  C   UNL     1      18.121   3.407  26.899  0.00  0.00    +0.001 A 
ATOM     13  C   UNL     1      18.164   4.610  27.604  0.00  0.00    +0.009 A 
ATOM     14  C   UNL     1      19.171   4.843  28.555  0.00  0.00    +0.015 A 
ENDROOT
BRANCH   1  21
ATOM     15  N   UNL     1      13.651   6.090  32.321  0.00  0.00    -0.299 N 
ATOM     16  C   UNL     1      13.782   7.125  31.297  0.00  0.00    +0.127 C 
ATOM     17  C   UNL     1      15.102   7.884  31.409  0.00  0.00    +0.129 C 
ATOM     18  N   UNL     1      16.201   6.931  31.350  0.00  0.00    -0.275 N 
ATOM     19  C   UNL     1      17.133   7.044  30.344  0.00  0.00    +0.303 C 
ATOM     20  O   UNL     1      17.078   7.927  29.489  0.00  0.00    -0.253 OA
ATOM     21  N   UNL     1      18.112   6.094  30.324  0.00  0.00    -0.292 N 
ATOM     22  C   UNL     1      16.156   5.891  32.381  0.00  0.00    +0.205 C 
ATOM     23  C   UNL     1      14.761   5.494  32.908  0.00  0.00    +0.233 C 
ATOM     24  O   UNL     1      14.659   4.662  33.812  0.00  0.00    -0.274 OA
ATOM     25  H   UNL     1      18.342   5.634  31.189  0.00  0.00    +0.151 HD
BRANCH  15  27
ATOM     26  C   UNL     1      11.673   6.373  33.772  0.00  0.00    +0.024 C 
ATOM     27  C   UNL     1      12.314   5.596  32.636  0.00  0.00    +0.104 C 
ENDBRANCH  15  27
ENDBRANCH   1  21
TORSDOF 2
ENDMDL
MODEL 8
REMARK VINA RESULT:      -6.2      4.528      7.285
REMARK  Name = ZINC000329563636
REMARK  3 active torsions:
REMARK  status: ('A' for Active; 'I' for Inactive)
REMARK    1  A    between atoms: C_1  and  C_2
REMARK    2  A    between atoms: C_2  and  N_3
REMARK    3  A    between atoms: N_9  and  C_10
REMARK                            x       y       z     vdW  Elec       q    Type
REMARK                         _______ _______ _______ _____ _____    ______ ____
ROOT
ATOM      1  C   UNL     1      32.137  19.118  14.242  0.00  0.00    +0.112 C 
ATOM      2  C   UNL     1      33.168  18.034  13.915  0.00  0.00    +0.075 C 
ATOM      3  C   UNL     1      32.581  16.641  13.642  0.00  0.00    +0.113 C 
ATOM      4  C   UNL     1      32.100  16.412  12.185  0.00  0.00    +0.048 C 
ATOM      5  C   UNL     1      33.054  15.391  11.575  0.00  0.00    +0.004 C 
ATOM      6  C   UNL     1      33.505  14.556  12.756  0.00  0.00    +0.004 C 
ATOM      7  C   UNL     1      33.702  15.591  13.849  0.00  0.00    +0.048 C 
ATOM      8  O   UNL     1      31.521  16.317  14.561  0.00  0.00    -0.485 OA
ATOM      9  C   UNL     1      30.502  17.232  14.549  0.00  0.00    +0.126 A 
ATOM     10  C   UNL     1      29.205  16.755  14.729  0.00  0.00    +0.046 A 
ATOM     11  C   UNL     1      28.124  17.637  14.686  0.00  0.00    +0.004 A 
ATOM     12  C   UNL     1      28.342  18.998  14.483  0.00  0.00    +0.001 A 
ATOM     13  C   UNL     1      29.644  19.475  14.335  0.00  0.00    +0.009 A 
ATOM     14  C   UNL     1      30.736  18.592  14.366  0.00  0.00    +0.015 A 
ENDROOT
BRANCH   1  21
ATOM     15  N   UNL     1      32.380  22.774  19.358  0.00  0.00    -0.299 N 
ATOM     16  C   UNL     1      32.056  23.482  18.120  0.00  0.00    +0.127 C 
ATOM     17  C   UNL     1      32.994  23.104  16.978  0.00  0.00    +0.129 C 
ATOM     18  N   UNL     1      32.957  21.661  16.793  0.00  0.00    -0.275 N 
ATOM     19  C   UNL     1      32.554  21.151  15.579  0.00  0.00    +0.303 C 
ATOM     20  O   UNL     1      32.228  21.870  14.636  0.00  0.00    -0.253 OA
ATOM     21  N   UNL     1      32.503  19.790  15.489  0.00  0.00    -0.292 N 
ATOM     22  C   UNL     1      33.318  20.889  17.985  0.00  0.00    +0.205 C 
ATOM     23  C   UNL     1      33.027  21.543  19.351  0.00  0.00    +0.233 C 
ATOM     24  O   UNL     1      33.354  20.967  20.391  0.00  0.00    -0.274 OA
ATOM     25  H   UNL     1      33.091  19.252  16.103  0.00  0.00    +0.151 HD
BRANCH  15  27
ATOM     26  C   UNL     1      30.514  22.817  20.975  0.00  0.00    +0.024 C 
ATOM     27  C   UNL     1      31.898  23.330  20.618  0.00  0.00    +0.104 C 
ENDBRANCH  15  27
ENDBRANCH   1  21
TORSDOF 2
ENDMDL
MODEL 9
REMARK VINA RESULT:      -6.1      3.560      5.856
REMARK  Name = ZINC000329563636
REMARK  3 active torsions:
REMARK  status: ('A' for Active; 'I' for Inactive)
REMARK    1  A    between atoms: C_1  and  C_2
REMARK    2  A    between atoms: C_2  and  N_3
REMARK    3  A    between atoms: N_9  and  C_10
REMARK                            x       y       z     vdW  Elec       q    Type
REMARK                         _______ _______ _______ _____ _____    ______ ____
ROOT
ATOM      1  C   UNL     1      31.628  18.427  13.406  0.00  0.00    +0.112 C 
ATOM      2  C   UNL     1      32.502  17.173  13.307  0.00  0.00    +0.075 C 
ATOM      3  C   UNL     1      31.804  15.863  13.706  0.00  0.00    +0.113 C 
ATOM      4  C   UNL     1      30.978  15.195  12.577  0.00  0.00    +0.048 C 
ATOM      5  C   UNL     1      31.711  13.909  12.213  0.00  0.00    +0.004 C 
ATOM      6  C   UNL     1      32.395  13.498  13.502  0.00  0.00    +0.004 C 
ATOM      7  C   UNL     1      32.895  14.819  14.058  0.00  0.00    +0.048 C 
ATOM      8  O   UNL     1      30.983  16.030  14.877  0.00  0.00    -0.485 OA
ATOM      9  C   UNL     1      30.032  17.006  14.731  0.00  0.00    +0.126 A 
ATOM     10  C   UNL     1      28.797  16.798  15.342  0.00  0.00    +0.046 A 
ATOM     11  C   UNL     1      27.778  17.740  15.193  0.00  0.00    +0.004 A 
ATOM     12  C   UNL     1      28.001  18.898  14.451  0.00  0.00    +0.001 A 
ATOM     13  C   UNL     1      29.249  19.117  13.869  0.00  0.00    +0.009 A 
ATOM     14  C   UNL     1      30.277  18.168  14.005  0.00  0.00    +0.015 A 
ENDROOT
BRANCH   1  21
ATOM     15  N   UNL     1      33.629  23.772  16.058  0.00  0.00    -0.299 N 
ATOM     16  C   UNL     1      33.521  23.820  14.601  0.00  0.00    +0.127 C 
ATOM     17  C   UNL     1      34.156  22.603  13.934  0.00  0.00    +0.129 C 
ATOM     18  N   UNL     1      33.548  21.396  14.476  0.00  0.00    -0.275 N 
ATOM     19  C   UNL     1      32.895  20.535  13.623  0.00  0.00    +0.303 C 
ATOM     20  O   UNL     1      32.810  20.741  12.413  0.00  0.00    -0.253 OA
ATOM     21  N   UNL     1      32.313  19.445  14.202  0.00  0.00    -0.292 N 
ATOM     22  C   UNL     1      33.662  21.261  15.930  0.00  0.00    +0.205 C 
ATOM     23  C   UNL     1      33.744  22.568  16.746  0.00  0.00    +0.233 C 
ATOM     24  O   UNL     1      33.892  22.522  17.969  0.00  0.00    -0.274 OA
ATOM     25  H   UNL     1      32.686  19.119  15.078  0.00  0.00    +0.151 HD
BRANCH  15  27
ATOM     26  C   UNL     1      34.617  25.991  16.502  0.00  0.00    +0.024 C 
ATOM     27  C   UNL     1      33.490  25.019  16.803  0.00  0.00    +0.104 C 
ENDBRANCH  15  27
ENDBRANCH   1  21
TORSDOF 2
ENDMDL
