MODEL 1
REMARK VINA RESULT:      -6.9      0.000      0.000
REMARK  Name = ZINC000435351830
REMARK  5 active torsions:
REMARK  status: ('A' for Active; 'I' for Inactive)
REMARK    1  A    between atoms: C_2  and  C_3
REMARK    2  A    between atoms: C_7  and  C_8
REMARK    3  A    between atoms: C_8  and  C_9
REMARK    4  A    between atoms: N_11  and  C_12
REMARK    5  A    between atoms: C_12  and  C_13
REMARK                            x       y       z     vdW  Elec       q    Type
REMARK                         _______ _______ _______ _____ _____    ______ ____
ROOT
ATOM      1  C   UNL     1      31.563  22.441  15.615  0.00  0.00    +0.224 C 
ATOM      2  O   UNL     1      32.420  22.881  16.374  0.00  0.00    -0.275 OA
ATOM      3  N   UNL     1      30.859  23.200  14.717  0.00  0.00    -0.309 N 
ATOM      4  H   UNL     1      30.192  22.758  14.100  0.00  0.00    +0.149 HD
ENDROOT
BRANCH   1   5
ATOM      5  C   UNL     1      31.167  20.988  15.663  0.00  0.00    +0.072 C 
ATOM      6  C   UNL     1      31.805  20.027  14.666  0.00  0.00    +0.022 C 
ATOM      7  C   UNL     1      32.248  19.988  16.092  0.00  0.00    +0.022 C 
BRANCH   5  12
ATOM      8  C   UNL     1      28.222  20.914  18.120  0.00  0.00    +0.052 A 
ATOM      9  C   UNL     1      27.309  20.086  17.467  0.00  0.00    +0.019 A 
ATOM     10  C   UNL     1      27.609  19.587  16.200  0.00  0.00    +0.002 A 
ATOM     11  C   UNL     1      28.831  19.894  15.595  0.00  0.00    +0.005 A 
ATOM     12  C   UNL     1      29.783  20.700  16.244  0.00  0.00    -0.031 A 
ATOM     13  C   UNL     1      29.436  21.226  17.502  0.00  0.00    +0.023 A 
BRANCH   8  15
ATOM     14  N   UNL     1      27.700  21.816  20.495  0.00  0.00    -0.191 NA
ATOM     15  C   UNL     1      27.940  21.417  19.430  0.00  0.00    +0.099 C 
ENDBRANCH   8  15
ENDBRANCH   5  12
ENDBRANCH   1   5
BRANCH   3  16
ATOM     16  C   UNL     1      31.011  24.637  14.653  0.00  0.00    +0.159 C 
BRANCH  16  17
ATOM     17  C   UNL     1      31.443  25.132  13.291  0.00  0.00    +0.058 A 
ATOM     18  C   UNL     1      30.815  26.238  12.713  0.00  0.00    +0.028 A 
ATOM     19  C   UNL     1      31.213  26.659  11.445  0.00  0.00    +0.042 A 
ATOM     20  C   UNL     1      32.226  25.969  10.802  0.00  0.00    +0.141 A 
ATOM     21  F   UNL     1      32.629  26.342   9.580  0.00  0.00    -0.204 F 
ATOM     22  C   UNL     1      32.811  24.891  11.440  0.00  0.00    +0.149 A 
ATOM     23  N   UNL     1      32.449  24.457  12.672  0.00  0.00    -0.255 NA
ENDBRANCH  16  17
ENDBRANCH   3  16
TORSDOF 5
ENDMDL
MODEL 2
REMARK VINA RESULT:      -6.8      5.143      7.417
REMARK  Name = ZINC000435351830
REMARK  5 active torsions:
REMARK  status: ('A' for Active; 'I' for Inactive)
REMARK    1  A    between atoms: C_2  and  C_3
REMARK    2  A    between atoms: C_7  and  C_8
REMARK    3  A    between atoms: C_8  and  C_9
REMARK    4  A    between atoms: N_11  and  C_12
REMARK    5  A    between atoms: C_12  and  C_13
REMARK                            x       y       z     vdW  Elec       q    Type
REMARK                         _______ _______ _______ _____ _____    ______ ____
ROOT
ATOM      1  C   UNL     1      27.508  22.655  19.553  0.00  0.00    +0.224 C 
ATOM      2  O   UNL     1      27.345  21.866  20.477  0.00  0.00    -0.275 OA
ATOM      3  N   UNL     1      26.629  23.653  19.221  0.00  0.00    -0.309 N 
ATOM      4  H   UNL     1      26.850  24.287  18.466  0.00  0.00    +0.149 HD
ENDROOT
BRANCH   1   5
ATOM      5  C   UNL     1      28.705  22.538  18.644  0.00  0.00    +0.072 C 
ATOM      6  C   UNL     1      29.458  23.808  18.267  0.00  0.00    +0.022 C 
ATOM      7  C   UNL     1      30.073  22.870  19.252  0.00  0.00    +0.022 C 
BRANCH   5  12
ATOM      8  C   UNL     1      30.005  19.676  16.444  0.00  0.00    +0.052 A 
ATOM      9  C   UNL     1      28.831  19.181  15.874  0.00  0.00    +0.019 A 
ATOM     10  C   UNL     1      27.600  19.727  16.238  0.00  0.00    +0.002 A 
ATOM     11  C   UNL     1      27.542  20.785  17.150  0.00  0.00    +0.005 A 
ATOM     12  C   UNL     1      28.711  21.325  17.715  0.00  0.00    -0.031 A 
ATOM     13  C   UNL     1      29.936  20.725  17.365  0.00  0.00    +0.023 A 
BRANCH   8  15
ATOM     14  N   UNL     1      32.312  18.701  15.774  0.00  0.00    -0.191 NA
ATOM     15  C   UNL     1      31.278  19.142  16.067  0.00  0.00    +0.099 C 
ENDBRANCH   8  15
ENDBRANCH   5  12
ENDBRANCH   1   5
BRANCH   3  16
ATOM     16  C   UNL     1      25.360  23.803  19.898  0.00  0.00    +0.159 C 
BRANCH  16  17
ATOM     17  C   UNL     1      24.426  24.773  19.210  0.00  0.00    +0.058 A 
ATOM     18  C   UNL     1      23.903  24.471  17.950  0.00  0.00    +0.028 A 
ATOM     19  C   UNL     1      23.065  25.393  17.324  0.00  0.00    +0.042 A 
ATOM     20  C   UNL     1      22.774  26.579  17.976  0.00  0.00    +0.141 A 
ATOM     21  F   UNL     1      21.979  27.490  17.402  0.00  0.00    -0.204 F 
ATOM     22  C   UNL     1      23.319  26.805  19.227  0.00  0.00    +0.149 A 
ATOM     23  N   UNL     1      24.134  25.929  19.864  0.00  0.00    -0.255 NA
ENDBRANCH  16  17
ENDBRANCH   3  16
TORSDOF 5
ENDMDL
MODEL 3
REMARK VINA RESULT:      -6.7      4.093      6.051
REMARK  Name = ZINC000435351830
REMARK  5 active torsions:
REMARK  status: ('A' for Active; 'I' for Inactive)
REMARK    1  A    between atoms: C_2  and  C_3
REMARK    2  A    between atoms: C_7  and  C_8
REMARK    3  A    between atoms: C_8  and  C_9
REMARK    4  A    between atoms: N_11  and  C_12
REMARK    5  A    between atoms: C_12  and  C_13
REMARK                            x       y       z     vdW  Elec       q    Type
REMARK                         _______ _______ _______ _____ _____    ______ ____
ROOT
ATOM      1  C   UNL     1      32.291  19.902  15.112  0.00  0.00    +0.224 C 
ATOM      2  O   UNL     1      32.573  20.102  13.935  0.00  0.00    -0.275 OA
ATOM      3  N   UNL     1      32.429  18.697  15.749  0.00  0.00    -0.309 N 
ATOM      4  H   UNL     1      32.207  18.620  16.732  0.00  0.00    +0.149 HD
ENDROOT
BRANCH   1   5
ATOM      5  C   UNL     1      31.692  21.000  15.954  0.00  0.00    +0.072 C 
ATOM      6  C   UNL     1      32.619  21.826  16.838  0.00  0.00    +0.022 C 
ATOM      7  C   UNL     1      32.073  22.440  15.592  0.00  0.00    +0.022 C 
BRANCH   5  12
ATOM      8  C   UNL     1      28.458  21.005  18.019  0.00  0.00    +0.052 A 
ATOM      9  C   UNL     1      27.557  20.369  17.165  0.00  0.00    +0.019 A 
ATOM     10  C   UNL     1      27.968  19.982  15.889  0.00  0.00    +0.002 A 
ATOM     11  C   UNL     1      29.284  20.206  15.475  0.00  0.00    +0.005 A 
ATOM     12  C   UNL     1      30.221  20.816  16.327  0.00  0.00    -0.031 A 
ATOM     13  C   UNL     1      29.769  21.237  17.592  0.00  0.00    +0.023 A 
BRANCH   8  15
ATOM     14  N   UNL     1      27.751  21.713  20.411  0.00  0.00    -0.191 NA
ATOM     15  C   UNL     1      28.061  21.391  19.339  0.00  0.00    +0.099 C 
ENDBRANCH   8  15
ENDBRANCH   5  12
ENDBRANCH   1   5
BRANCH   3  16
ATOM     16  C   UNL     1      32.846  17.507  15.040  0.00  0.00    +0.159 C 
BRANCH  16  17
ATOM     17  C   UNL     1      31.743  16.889  14.212  0.00  0.00    +0.058 A 
ATOM     18  C   UNL     1      30.408  17.024  14.603  0.00  0.00    +0.028 A 
ATOM     19  C   UNL     1      29.411  16.423  13.837  0.00  0.00    +0.042 A 
ATOM     20  C   UNL     1      29.777  15.714  12.706  0.00  0.00    +0.141 A 
ATOM     21  F   UNL     1      28.846  15.117  11.950  0.00  0.00    -0.204 F 
ATOM     22  C   UNL     1      31.116  15.631  12.372  0.00  0.00    +0.149 A 
ATOM     23  N   UNL     1      32.109  16.206  13.094  0.00  0.00    -0.255 NA
ENDBRANCH  16  17
ENDBRANCH   3  16
TORSDOF 5
ENDMDL
MODEL 4
REMARK VINA RESULT:      -6.6      0.603      1.048
REMARK  Name = ZINC000435351830
REMARK  5 active torsions:
REMARK  status: ('A' for Active; 'I' for Inactive)
REMARK    1  A    between atoms: C_2  and  C_3
REMARK    2  A    between atoms: C_7  and  C_8
REMARK    3  A    between atoms: C_8  and  C_9
REMARK    4  A    between atoms: N_11  and  C_12
REMARK    5  A    between atoms: C_12  and  C_13
REMARK                            x       y       z     vdW  Elec       q    Type
REMARK                         _______ _______ _______ _____ _____    ______ ____
ROOT
ATOM      1  C   UNL     1      31.751  22.247  15.794  0.00  0.00    +0.224 C 
ATOM      2  O   UNL     1      32.611  22.656  16.566  0.00  0.00    -0.275 OA
ATOM      3  N   UNL     1      31.090  23.030  14.884  0.00  0.00    -0.309 N 
ATOM      4  H   UNL     1      30.418  22.613  14.256  0.00  0.00    +0.149 HD
ENDROOT
BRANCH   1   5
ATOM      5  C   UNL     1      31.302  20.809  15.836  0.00  0.00    +0.072 C 
ATOM      6  C   UNL     1      31.961  19.814  14.887  0.00  0.00    +0.022 C 
ATOM      7  C   UNL     1      32.321  19.778  16.336  0.00  0.00    +0.022 C 
BRANCH   5  12
ATOM      8  C   UNL     1      28.221  20.874  18.120  0.00  0.00    +0.052 A 
ATOM      9  C   UNL     1      27.318  20.067  17.427  0.00  0.00    +0.019 A 
ATOM     10  C   UNL     1      27.672  19.539  16.185  0.00  0.00    +0.002 A 
ATOM     11  C   UNL     1      28.937  19.795  15.648  0.00  0.00    +0.005 A 
ATOM     12  C   UNL     1      29.878  20.578  16.339  0.00  0.00    -0.031 A 
ATOM     13  C   UNL     1      29.478  21.135  17.569  0.00  0.00    +0.023 A 
BRANCH   8  15
ATOM     14  N   UNL     1      27.597  21.848  20.441  0.00  0.00    -0.191 NA
ATOM     15  C   UNL     1      27.882  21.407  19.405  0.00  0.00    +0.099 C 
ENDBRANCH   8  15
ENDBRANCH   5  12
ENDBRANCH   1   5
BRANCH   3  16
ATOM     16  C   UNL     1      31.296  24.461  14.823  0.00  0.00    +0.159 C 
BRANCH  16  17
ATOM     17  C   UNL     1      31.605  24.961  13.430  0.00  0.00    +0.058 A 
ATOM     18  C   UNL     1      32.576  24.324  12.653  0.00  0.00    +0.028 A 
ATOM     19  C   UNL     1      32.861  24.819  11.381  0.00  0.00    +0.042 A 
ATOM     20  C   UNL     1      32.166  25.926  10.927  0.00  0.00    +0.141 A 
ATOM     21  F   UNL     1      32.419  26.433   9.713  0.00  0.00    -0.204 F 
ATOM     22  C   UNL     1      31.210  26.499  11.745  0.00  0.00    +0.149 A 
ATOM     23  N   UNL     1      30.907  26.040  12.984  0.00  0.00    -0.255 NA
ENDBRANCH  16  17
ENDBRANCH   3  16
TORSDOF 5
ENDMDL
MODEL 5
REMARK VINA RESULT:      -6.5      1.295      1.872
REMARK  Name = ZINC000435351830
REMARK  5 active torsions:
REMARK  status: ('A' for Active; 'I' for Inactive)
REMARK    1  A    between atoms: C_2  and  C_3
REMARK    2  A    between atoms: C_7  and  C_8
REMARK    3  A    between atoms: C_8  and  C_9
REMARK    4  A    between atoms: N_11  and  C_12
REMARK    5  A    between atoms: C_12  and  C_13
REMARK                            x       y       z     vdW  Elec       q    Type
REMARK                         _______ _______ _______ _____ _____    ______ ____
ROOT
ATOM      1  C   UNL     1      31.025  22.555  15.648  0.00  0.00    +0.224 C 
ATOM      2  O   UNL     1      32.190  22.268  15.901  0.00  0.00    -0.275 OA
ATOM      3  N   UNL     1      30.613  23.768  15.164  0.00  0.00    -0.309 N 
ATOM      4  H   UNL     1      29.638  23.918  14.946  0.00  0.00    +0.149 HD
ENDROOT
BRANCH   1   5
ATOM      5  C   UNL     1      29.915  21.572  15.920  0.00  0.00    +0.072 C 
ATOM      6  C   UNL     1      29.128  21.018  14.738  0.00  0.00    +0.022 C 
ATOM      7  C   UNL     1      30.121  20.136  15.422  0.00  0.00    +0.022 C 
BRANCH   5  12
ATOM      8  C   UNL     1      29.435  22.423  19.630  0.00  0.00    +0.052 A 
ATOM      9  C   UNL     1      28.245  21.763  19.937  0.00  0.00    +0.019 A 
ATOM     10  C   UNL     1      27.553  21.082  18.935  0.00  0.00    +0.002 A 
ATOM     11  C   UNL     1      28.061  21.038  17.634  0.00  0.00    +0.005 A 
ATOM     12  C   UNL     1      29.274  21.668  17.304  0.00  0.00    -0.031 A 
ATOM     13  C   UNL     1      29.929  22.385  18.323  0.00  0.00    +0.023 A 
BRANCH   8  15
ATOM     14  N   UNL     1      30.777  23.670  21.466  0.00  0.00    -0.191 NA
ATOM     15  C   UNL     1      30.169  23.109  20.649  0.00  0.00    +0.099 C 
ENDBRANCH   8  15
ENDBRANCH   5  12
ENDBRANCH   1   5
BRANCH   3  16
ATOM     16  C   UNL     1      31.535  24.870  14.992  0.00  0.00    +0.159 C 
BRANCH  16  17
ATOM     17  C   UNL     1      31.747  25.251  13.545  0.00  0.00    +0.058 A 
ATOM     18  C   UNL     1      30.932  26.215  12.944  0.00  0.00    +0.028 A 
ATOM     19  C   UNL     1      31.130  26.531  11.601  0.00  0.00    +0.042 A 
ATOM     20  C   UNL     1      32.135  25.882  10.906  0.00  0.00    +0.141 A 
ATOM     21  F   UNL     1      32.349  26.155   9.612  0.00  0.00    -0.204 F 
ATOM     22  C   UNL     1      32.911  24.948  11.567  0.00  0.00    +0.149 A 
ATOM     23  N   UNL     1      32.746  24.620  12.872  0.00  0.00    -0.255 NA
ENDBRANCH  16  17
ENDBRANCH   3  16
TORSDOF 5
ENDMDL
MODEL 6
REMARK VINA RESULT:      -6.4      3.228      7.997
REMARK  Name = ZINC000435351830
REMARK  5 active torsions:
REMARK  status: ('A' for Active; 'I' for Inactive)
REMARK    1  A    between atoms: C_2  and  C_3
REMARK    2  A    between atoms: C_7  and  C_8
REMARK    3  A    between atoms: C_8  and  C_9
REMARK    4  A    between atoms: N_11  and  C_12
REMARK    5  A    between atoms: C_12  and  C_13
REMARK                            x       y       z     vdW  Elec       q    Type
REMARK                         _______ _______ _______ _____ _____    ______ ____
ROOT
ATOM      1  C   UNL     1      31.814  22.759  14.092  0.00  0.00    +0.224 C 
ATOM      2  O   UNL     1      32.489  21.744  13.957  0.00  0.00    -0.275 OA
ATOM      3  N   UNL     1      30.454  22.770  14.256  0.00  0.00    -0.309 N 
ATOM      4  H   UNL     1      29.972  23.646  14.396  0.00  0.00    +0.149 HD
ENDROOT
BRANCH   1   5
ATOM      5  C   UNL     1      32.455  24.122  14.025  0.00  0.00    +0.072 C 
ATOM      6  C   UNL     1      32.630  24.908  15.319  0.00  0.00    +0.022 C 
ATOM      7  C   UNL     1      33.828  24.277  14.690  0.00  0.00    +0.022 C 
BRANCH   5  12
ATOM      8  C   UNL     1      33.074  25.103  10.368  0.00  0.00    +0.052 A 
ATOM      9  C   UNL     1      32.263  26.229  10.219  0.00  0.00    +0.019 A 
ATOM     10  C   UNL     1      31.463  26.650  11.281  0.00  0.00    +0.002 A 
ATOM     11  C   UNL     1      31.490  25.965  12.499  0.00  0.00    +0.005 A 
ATOM     12  C   UNL     1      32.322  24.847  12.686  0.00  0.00    -0.031 A 
ATOM     13  C   UNL     1      33.086  24.416  11.585  0.00  0.00    +0.023 A 
BRANCH   8  15
ATOM     14  N   UNL     1      34.605  24.329   8.423  0.00  0.00    -0.191 NA
ATOM     15  C   UNL     1      33.919  24.668   9.297  0.00  0.00    +0.099 C 
ENDBRANCH   8  15
ENDBRANCH   5  12
ENDBRANCH   1   5
BRANCH   3  16
ATOM     16  C   UNL     1      29.672  21.555  14.189  0.00  0.00    +0.159 C 
BRANCH  16  17
ATOM     17  C   UNL     1      28.969  21.226  15.487  0.00  0.00    +0.058 A 
ATOM     18  C   UNL     1      28.319  19.999  15.644  0.00  0.00    +0.028 A 
ATOM     19  C   UNL     1      27.656  19.729  16.841  0.00  0.00    +0.042 A 
ATOM     20  C   UNL     1      27.668  20.688  17.839  0.00  0.00    +0.141 A 
ATOM     21  F   UNL     1      27.036  20.466  18.999  0.00  0.00    -0.204 F 
ATOM     22  C   UNL     1      28.342  21.875  17.619  0.00  0.00    +0.149 A 
ATOM     23  N   UNL     1      28.998  22.167  16.469  0.00  0.00    -0.255 NA
ENDBRANCH  16  17
ENDBRANCH   3  16
TORSDOF 5
ENDMDL
MODEL 7
REMARK VINA RESULT:      -6.3      4.816      6.641
REMARK  Name = ZINC000435351830
REMARK  5 active torsions:
REMARK  status: ('A' for Active; 'I' for Inactive)
REMARK    1  A    between atoms: C_2  and  C_3
REMARK    2  A    between atoms: C_7  and  C_8
REMARK    3  A    between atoms: C_8  and  C_9
REMARK    4  A    between atoms: N_11  and  C_12
REMARK    5  A    between atoms: C_12  and  C_13
REMARK                            x       y       z     vdW  Elec       q    Type
REMARK                         _______ _______ _______ _____ _____    ______ ____
ROOT
ATOM      1  C   UNL     1      29.010  21.761  16.585  0.00  0.00    +0.224 C 
ATOM      2  O   UNL     1      29.152  22.291  15.488  0.00  0.00    -0.275 OA
ATOM      3  N   UNL     1      29.184  22.402  17.784  0.00  0.00    -0.309 N 
ATOM      4  H   UNL     1      29.014  21.906  18.647  0.00  0.00    +0.149 HD
ENDROOT
BRANCH   1   5
ATOM      5  C   UNL     1      28.678  20.295  16.693  0.00  0.00    +0.072 C 
ATOM      6  C   UNL     1      27.648  19.857  17.727  0.00  0.00    +0.022 C 
ATOM      7  C   UNL     1      27.262  19.872  16.284  0.00  0.00    +0.022 C 
BRANCH   5  12
ATOM      8  C   UNL     1      30.445  17.464  14.799  0.00  0.00    +0.052 A 
ATOM      9  C   UNL     1      31.689  17.415  15.429  0.00  0.00    +0.019 A 
ATOM     10  C   UNL     1      31.994  18.333  16.434  0.00  0.00    +0.002 A 
ATOM     11  C   UNL     1      31.048  19.284  16.828  0.00  0.00    +0.005 A 
ATOM     12  C   UNL     1      29.775  19.335  16.234  0.00  0.00    -0.031 A 
ATOM     13  C   UNL     1      29.510  18.426  15.192  0.00  0.00    +0.023 A 
BRANCH   8  15
ATOM     14  N   UNL     1      29.846  15.746  12.951  0.00  0.00    -0.191 NA
ATOM     15  C   UNL     1      30.107  16.517  13.781  0.00  0.00    +0.099 C 
ENDBRANCH   8  15
ENDBRANCH   5  12
ENDBRANCH   1   5
BRANCH   3  16
ATOM     16  C   UNL     1      29.652  23.769  17.853  0.00  0.00    +0.159 C 
BRANCH  16  17
ATOM     17  C   UNL     1      30.469  24.058  19.092  0.00  0.00    +0.058 A 
ATOM     18  C   UNL     1      30.190  23.395  20.289  0.00  0.00    +0.028 A 
ATOM     19  C   UNL     1      30.940  23.698  21.425  0.00  0.00    +0.042 A 
ATOM     20  C   UNL     1      31.944  24.645  21.326  0.00  0.00    +0.141 A 
ATOM     21  F   UNL     1      32.680  24.966  22.398  0.00  0.00    -0.204 F 
ATOM     22  C   UNL     1      32.172  25.254  20.105  0.00  0.00    +0.149 A 
ATOM     23  N   UNL     1      31.464  24.980  18.983  0.00  0.00    -0.255 NA
ENDBRANCH  16  17
ENDBRANCH   3  16
TORSDOF 5
ENDMDL
MODEL 8
REMARK VINA RESULT:      -6.3      1.574      2.365
REMARK  Name = ZINC000435351830
REMARK  5 active torsions:
REMARK  status: ('A' for Active; 'I' for Inactive)
REMARK    1  A    between atoms: C_2  and  C_3
REMARK    2  A    between atoms: C_7  and  C_8
REMARK    3  A    between atoms: C_8  and  C_9
REMARK    4  A    between atoms: N_11  and  C_12
REMARK    5  A    between atoms: C_12  and  C_13
REMARK                            x       y       z     vdW  Elec       q    Type
REMARK                         _______ _______ _______ _____ _____    ______ ____
ROOT
ATOM      1  C   UNL     1      30.612  22.626  16.261  0.00  0.00    +0.224 C 
ATOM      2  O   UNL     1      31.640  22.377  16.881  0.00  0.00    -0.275 OA
ATOM      3  N   UNL     1      30.459  23.684  15.404  0.00  0.00    -0.309 N 
ATOM      4  H   UNL     1      29.591  23.803  14.902  0.00  0.00    +0.149 HD
ENDROOT
BRANCH   1   5
ATOM      5  C   UNL     1      29.377  21.783  16.452  0.00  0.00    +0.072 C 
ATOM      6  C   UNL     1      28.568  21.388  15.221  0.00  0.00    +0.022 C 
ATOM      7  C   UNL     1      29.416  20.357  15.890  0.00  0.00    +0.022 C 
BRANCH   5  12
ATOM      8  C   UNL     1      26.836  22.744  19.161  0.00  0.00    +0.052 A 
ATOM      9  C   UNL     1      27.462  22.304  20.327  0.00  0.00    +0.019 A 
ATOM     10  C   UNL     1      28.686  21.640  20.248  0.00  0.00    +0.002 A 
ATOM     11  C   UNL     1      29.298  21.438  19.007  0.00  0.00    +0.005 A 
ATOM     12  C   UNL     1      28.705  21.899  17.819  0.00  0.00    -0.031 A 
ATOM     13  C   UNL     1      27.449  22.526  17.924  0.00  0.00    +0.023 A 
BRANCH   8  15
ATOM     14  N   UNL     1      24.574  24.006  19.285  0.00  0.00    -0.191 NA
ATOM     15  C   UNL     1      25.590  23.446  19.224  0.00  0.00    +0.099 C 
ENDBRANCH   8  15
ENDBRANCH   5  12
ENDBRANCH   1   5
BRANCH   3  16
ATOM     16  C   UNL     1      31.499  24.674  15.228  0.00  0.00    +0.159 C 
BRANCH  16  17
ATOM     17  C   UNL     1      31.693  25.086  13.786  0.00  0.00    +0.058 A 
ATOM     18  C   UNL     1      30.900  26.092  13.229  0.00  0.00    +0.028 A 
ATOM     19  C   UNL     1      31.080  26.436  11.890  0.00  0.00    +0.042 A 
ATOM     20  C   UNL     1      32.046  25.771  11.155  0.00  0.00    +0.141 A 
ATOM     21  F   UNL     1      32.241  26.071   9.865  0.00  0.00    -0.204 F 
ATOM     22  C   UNL     1      32.803  24.793  11.775  0.00  0.00    +0.149 A 
ATOM     23  N   UNL     1      32.655  24.437  13.075  0.00  0.00    -0.255 NA
ENDBRANCH  16  17
ENDBRANCH   3  16
TORSDOF 5
ENDMDL
MODEL 9
REMARK VINA RESULT:      -6.3      1.981      3.211
REMARK  Name = ZINC000435351830
REMARK  5 active torsions:
REMARK  status: ('A' for Active; 'I' for Inactive)
REMARK    1  A    between atoms: C_2  and  C_3
REMARK    2  A    between atoms: C_7  and  C_8
REMARK    3  A    between atoms: C_8  and  C_9
REMARK    4  A    between atoms: N_11  and  C_12
REMARK    5  A    between atoms: C_12  and  C_13
REMARK                            x       y       z     vdW  Elec       q    Type
REMARK                         _______ _______ _______ _____ _____    ______ ____
ROOT
ATOM      1  C   UNL     1      29.966  22.841  16.921  0.00  0.00    +0.224 C 
ATOM      2  O   UNL     1      30.509  23.229  17.950  0.00  0.00    -0.275 OA
ATOM      3  N   UNL     1      30.173  23.387  15.681  0.00  0.00    -0.309 N 
ATOM      4  H   UNL     1      29.715  22.989  14.874  0.00  0.00    +0.149 HD
ENDROOT
BRANCH   1   5
ATOM      5  C   UNL     1      28.947  21.731  16.962  0.00  0.00    +0.072 C 
ATOM      6  C   UNL     1      27.772  21.858  17.924  0.00  0.00    +0.022 C 
ATOM      7  C   UNL     1      27.536  22.065  16.464  0.00  0.00    +0.022 C 
BRANCH   5  12
ATOM      8  C   UNL     1      31.255  18.694  16.552  0.00  0.00    +0.052 A 
ATOM      9  C   UNL     1      30.543  17.896  15.655  0.00  0.00    +0.019 A 
ATOM     10  C   UNL     1      29.283  18.303  15.217  0.00  0.00    +0.002 A 
ATOM     11  C   UNL     1      28.744  19.517  15.652  0.00  0.00    +0.005 A 
ATOM     12  C   UNL     1      29.453  20.355  16.530  0.00  0.00    -0.031 A 
ATOM     13  C   UNL     1      30.703  19.900  16.992  0.00  0.00    +0.023 A 
BRANCH   8  15
ATOM     14  N   UNL     1      33.611  17.981  17.369  0.00  0.00    -0.191 NA
ATOM     15  C   UNL     1      32.558  18.304  16.996  0.00  0.00    +0.099 C 
ENDBRANCH   8  15
ENDBRANCH   5  12
ENDBRANCH   1   5
BRANCH   3  16
ATOM     16  C   UNL     1      31.004  24.556  15.496  0.00  0.00    +0.159 C 
BRANCH  16  17
ATOM     17  C   UNL     1      31.494  24.722  14.075  0.00  0.00    +0.058 A 
ATOM     18  C   UNL     1      30.998  25.754  13.275  0.00  0.00    +0.028 A 
ATOM     19  C   UNL     1      31.446  25.870  11.960  0.00  0.00    +0.042 A 
ATOM     20  C   UNL     1      32.376  24.959  11.491  0.00  0.00    +0.141 A 
ATOM     21  F   UNL     1      32.823  25.036  10.231  0.00  0.00    -0.204 F 
ATOM     22  C   UNL     1      32.832  23.969  12.342  0.00  0.00    +0.149 A 
ATOM     23  N   UNL     1      32.419  23.830  13.626  0.00  0.00    -0.255 NA
ENDBRANCH  16  17
ENDBRANCH   3  16
TORSDOF 5
ENDMDL
