MODEL 1
REMARK VINA RESULT:      -6.8      0.000      0.000
REMARK  Name = ZINC000583127796
REMARK  2 active torsions:
REMARK  status: ('A' for Active; 'I' for Inactive)
REMARK    1  A    between atoms: C_2  and  C_4
REMARK    2  A    between atoms: C_7  and  C_8
REMARK                            x       y       z     vdW  Elec       q    Type
REMARK                         _______ _______ _______ _____ _____    ______ ____
ROOT
ATOM      1  C   UNL     1      30.371  16.042  13.712  0.00  0.00    +0.247 C 
ATOM      2  O   UNL     1      29.954  15.236  12.878  0.00  0.00    -0.270 OA
ATOM      3  N   UNL     1      31.723  16.131  14.077  0.00  0.00    -0.297 N 
ATOM      4  C   UNL     1      32.307  17.051  15.055  0.00  0.00    +0.108 C 
ATOM      5  C   UNL     1      33.451  17.865  14.482  0.00  0.00    +0.020 C 
ATOM      6  C   UNL     1      34.468  16.986  13.777  0.00  0.00    +0.011 C 
ATOM      7  C   UNL     1      33.831  16.034  12.736  0.00  0.00    -0.004 C 
ATOM      8  C   UNL     1      34.962  15.120  12.216  0.00  0.00    +0.020 C 
ATOM      9  C   UNL     1      34.614  14.601  10.839  0.00  0.00    +0.070 C 
ATOM     10  S   UNL     1      33.868  16.013  10.011  0.00  0.00    -0.160 S 
ATOM     11  C   UNL     1      33.271  16.815  11.526  0.00  0.00    +0.077 C 
ATOM     12  C   UNL     1      32.694  15.233  13.422  0.00  0.00    +0.115 C 
ENDROOT
BRANCH   1  16
ATOM     13  C   UNL     1      27.820  18.932  15.576  0.00  0.00    +0.037 A 
ATOM     14  C   UNL     1      27.628  17.575  15.849  0.00  0.00    +0.014 A 
ATOM     15  C   UNL     1      28.371  16.616  15.159  0.00  0.00    +0.014 A 
ATOM     16  C   UNL     1      29.384  17.010  14.282  0.00  0.00    +0.037 A 
ATOM     17  C   UNL     1      29.509  18.363  13.938  0.00  0.00    +0.014 A 
ATOM     18  C   UNL     1      28.717  19.323  14.578  0.00  0.00    +0.014 A 
BRANCH  13  20
ATOM     19  N   UNL     1      26.147  19.547  17.229  0.00  0.00    -0.325 N 
ATOM     20  C   UNL     1      27.085  19.981  16.334  0.00  0.00    +0.242 C 
ATOM     21  O   UNL     1      27.342  21.165  16.203  0.00  0.00    -0.270 OA
ATOM     22  H   UNL     1      25.741  20.259  17.825  0.00  0.00    +0.145 HD
ATOM     23  H   UNL     1      26.115  18.593  17.561  0.00  0.00    +0.145 HD
ENDBRANCH  13  20
ENDBRANCH   1  16
TORSDOF 2
ENDMDL
MODEL 2
REMARK VINA RESULT:      -6.3      5.939     10.905
REMARK  Name = ZINC000583127796
REMARK  2 active torsions:
REMARK  status: ('A' for Active; 'I' for Inactive)
REMARK    1  A    between atoms: C_2  and  C_4
REMARK    2  A    between atoms: C_7  and  C_8
REMARK                            x       y       z     vdW  Elec       q    Type
REMARK                         _______ _______ _______ _____ _____    ______ ____
ROOT
ATOM      1  C   UNL     1      26.087  22.027  18.748  0.00  0.00    +0.247 C 
ATOM      2  O   UNL     1      26.599  21.954  19.867  0.00  0.00    -0.270 OA
ATOM      3  N   UNL     1      24.844  22.636  18.517  0.00  0.00    -0.297 N 
ATOM      4  C   UNL     1      24.159  22.765  17.229  0.00  0.00    +0.108 C 
ATOM      5  C   UNL     1      23.787  24.201  16.907  0.00  0.00    +0.020 C 
ATOM      6  C   UNL     1      23.061  24.866  18.062  0.00  0.00    +0.011 C 
ATOM      7  C   UNL     1      23.811  24.731  19.410  0.00  0.00    -0.004 C 
ATOM      8  C   UNL     1      22.888  25.326  20.496  0.00  0.00    +0.020 C 
ATOM      9  C   UNL     1      23.712  25.784  21.679  0.00  0.00    +0.070 C 
ATOM     10  S   UNL     1      25.170  26.532  20.937  0.00  0.00    -0.160 S 
ATOM     11  C   UNL     1      25.121  25.550  19.412  0.00  0.00    +0.077 C 
ATOM     12  C   UNL     1      24.123  23.231  19.659  0.00  0.00    +0.115 C 
ENDROOT
BRANCH   1  16
ATOM     13  C   UNL     1      28.488  20.265  15.673  0.00  0.00    +0.037 A 
ATOM     14  C   UNL     1      28.906  21.460  16.265  0.00  0.00    +0.014 A 
ATOM     15  C   UNL     1      28.076  22.107  17.182  0.00  0.00    +0.014 A 
ATOM     16  C   UNL     1      26.885  21.509  17.594  0.00  0.00    +0.037 A 
ATOM     17  C   UNL     1      26.423  20.364  16.930  0.00  0.00    +0.014 A 
ATOM     18  C   UNL     1      27.221  19.750  15.960  0.00  0.00    +0.014 A 
BRANCH  13  20
ATOM     19  N   UNL     1      28.839  19.190  13.520  0.00  0.00    -0.325 N 
ATOM     20  C   UNL     1      29.372  19.521  14.735  0.00  0.00    +0.242 C 
ATOM     21  O   UNL     1      30.532  19.266  15.014  0.00  0.00    -0.270 OA
ATOM     22  H   UNL     1      29.484  18.796  12.846  0.00  0.00    +0.145 HD
ATOM     23  H   UNL     1      28.003  19.628  13.159  0.00  0.00    +0.145 HD
ENDBRANCH  13  20
ENDBRANCH   1  16
TORSDOF 2
ENDMDL
MODEL 3
REMARK VINA RESULT:      -6.3      3.531      4.667
REMARK  Name = ZINC000583127796
REMARK  2 active torsions:
REMARK  status: ('A' for Active; 'I' for Inactive)
REMARK    1  A    between atoms: C_2  and  C_4
REMARK    2  A    between atoms: C_7  and  C_8
REMARK                            x       y       z     vdW  Elec       q    Type
REMARK                         _______ _______ _______ _____ _____    ______ ____
ROOT
ATOM      1  C   UNL     1      31.487  19.972  15.010  0.00  0.00    +0.247 C 
ATOM      2  O   UNL     1      32.664  19.980  14.645  0.00  0.00    -0.270 OA
ATOM      3  N   UNL     1      30.533  19.086  14.486  0.00  0.00    -0.297 N 
ATOM      4  C   UNL     1      29.118  19.006  14.854  0.00  0.00    +0.108 C 
ATOM      5  C   UNL     1      28.703  17.609  15.278  0.00  0.00    +0.020 C 
ATOM      6  C   UNL     1      29.138  16.563  14.268  0.00  0.00    +0.011 C 
ATOM      7  C   UNL     1      30.641  16.656  13.906  0.00  0.00    -0.004 C 
ATOM      8  C   UNL     1      30.892  15.632  12.778  0.00  0.00    +0.020 C 
ATOM      9  C   UNL     1      32.348  15.219  12.771  0.00  0.00    +0.070 C 
ATOM     10  S   UNL     1      32.772  15.069  14.513  0.00  0.00    -0.160 S 
ATOM     11  C   UNL     1      31.535  16.260  15.102  0.00  0.00    +0.077 C 
ATOM     12  C   UNL     1      30.959  18.109  13.465  0.00  0.00    +0.115 C 
ENDROOT
BRANCH   1  16
ATOM     13  C   UNL     1      30.202  22.342  18.335  0.00  0.00    +0.037 A 
ATOM     14  C   UNL     1      29.653  22.583  17.073  0.00  0.00    +0.014 A 
ATOM     15  C   UNL     1      30.148  21.902  15.960  0.00  0.00    +0.014 A 
ATOM     16  C   UNL     1      31.107  20.900  16.119  0.00  0.00    +0.037 A 
ATOM     17  C   UNL     1      31.723  20.729  17.366  0.00  0.00    +0.014 A 
ATOM     18  C   UNL     1      31.277  21.460  18.472  0.00  0.00    +0.014 A 
BRANCH  13  20
ATOM     19  N   UNL     1      28.461  23.653  19.413  0.00  0.00    -0.325 N 
ATOM     20  C   UNL     1      29.660  23.010  19.550  0.00  0.00    +0.242 C 
ATOM     21  O   UNL     1      30.229  22.943  20.626  0.00  0.00    -0.270 OA
ATOM     22  H   UNL     1      28.043  23.997  20.269  0.00  0.00    +0.145 HD
ATOM     23  H   UNL     1      27.842  23.485  18.631  0.00  0.00    +0.145 HD
ENDBRANCH  13  20
ENDBRANCH   1  16
TORSDOF 2
ENDMDL
MODEL 4
REMARK VINA RESULT:      -6.2     20.160     22.354
REMARK  Name = ZINC000583127796
REMARK  2 active torsions:
REMARK  status: ('A' for Active; 'I' for Inactive)
REMARK    1  A    between atoms: C_2  and  C_4
REMARK    2  A    between atoms: C_7  and  C_8
REMARK                            x       y       z     vdW  Elec       q    Type
REMARK                         _______ _______ _______ _____ _____    ______ ____
ROOT
ATOM      1  C   UNL     1      11.390  18.811   5.343  0.00  0.00    +0.247 C 
ATOM      2  O   UNL     1      12.389  19.532   5.348  0.00  0.00    -0.270 OA
ATOM      3  N   UNL     1      10.345  18.963   4.418  0.00  0.00    -0.297 N 
ATOM      4  C   UNL     1       9.123  18.159   4.339  0.00  0.00    +0.108 C 
ATOM      5  C   UNL     1       8.906  17.562   2.961  0.00  0.00    +0.020 C 
ATOM      6  C   UNL     1       9.028  18.609   1.869  0.00  0.00    +0.011 C 
ATOM      7  C   UNL     1      10.333  19.435   1.963  0.00  0.00    -0.004 C 
ATOM      8  C   UNL     1      10.243  20.537   0.885  0.00  0.00    +0.020 C 
ATOM      9  C   UNL     1      11.632  20.989   0.491  0.00  0.00    +0.070 C 
ATOM     10  S   UNL     1      12.592  19.469   0.438  0.00  0.00    -0.160 S 
ATOM     11  C   UNL     1      11.573  18.571   1.642  0.00  0.00    +0.077 C 
ATOM     12  C   UNL     1      10.452  20.021   3.395  0.00  0.00    +0.115 C 
ENDROOT
BRANCH   1  16
ATOM     13  C   UNL     1      11.572  15.753   8.333  0.00  0.00    +0.037 A 
ATOM     14  C   UNL     1      12.050  15.480   7.049  0.00  0.00    +0.014 A 
ATOM     15  C   UNL     1      11.888  16.425   6.033  0.00  0.00    +0.014 A 
ATOM     16  C   UNL     1      11.355  17.682   6.323  0.00  0.00    +0.037 A 
ATOM     17  C   UNL     1      10.789  17.917   7.584  0.00  0.00    +0.014 A 
ATOM     18  C   UNL     1      10.888  16.945   8.585  0.00  0.00    +0.014 A 
BRANCH  13  20
ATOM     19  N   UNL     1      13.052  14.672   9.930  0.00  0.00    -0.325 N 
ATOM     20  C   UNL     1      11.778  14.791   9.450  0.00  0.00    +0.242 C 
ATOM     21  O   UNL     1      10.848  14.179   9.948  0.00  0.00    -0.270 OA
ATOM     22  H   UNL     1      13.160  14.111  10.767  0.00  0.00    +0.145 HD
ATOM     23  H   UNL     1      13.770  15.358   9.739  0.00  0.00    +0.145 HD
ENDBRANCH  13  20
ENDBRANCH   1  16
TORSDOF 2
ENDMDL
MODEL 5
REMARK VINA RESULT:      -6.2      2.393      3.831
REMARK  Name = ZINC000583127796
REMARK  2 active torsions:
REMARK  status: ('A' for Active; 'I' for Inactive)
REMARK    1  A    between atoms: C_2  and  C_4
REMARK    2  A    between atoms: C_7  and  C_8
REMARK                            x       y       z     vdW  Elec       q    Type
REMARK                         _______ _______ _______ _____ _____    ______ ____
ROOT
ATOM      1  C   UNL     1      30.341  19.903  15.067  0.00  0.00    +0.247 C 
ATOM      2  O   UNL     1      31.418  20.503  15.078  0.00  0.00    -0.270 OA
ATOM      3  N   UNL     1      30.091  18.801  14.235  0.00  0.00    -0.297 N 
ATOM      4  C   UNL     1      28.847  18.033  14.152  0.00  0.00    +0.108 C 
ATOM      5  C   UNL     1      29.065  16.545  14.361  0.00  0.00    +0.020 C 
ATOM      6  C   UNL     1      30.180  16.012  13.481  0.00  0.00    +0.011 C 
ATOM      7  C   UNL     1      31.490  16.829  13.597  0.00  0.00    -0.004 C 
ATOM      8  C   UNL     1      32.469  16.255  12.551  0.00  0.00    +0.020 C 
ATOM      9  C   UNL     1      33.895  16.542  12.966  0.00  0.00    +0.070 C 
ATOM     10  S   UNL     1      33.899  16.274  14.745  0.00  0.00    -0.160 S 
ATOM     11  C   UNL     1      32.141  16.657  14.988  0.00  0.00    +0.077 C 
ATOM     12  C   UNL     1      31.168  18.326  13.345  0.00  0.00    +0.115 C 
ENDROOT
BRANCH   1  16
ATOM     13  C   UNL     1      27.231  21.374  17.615  0.00  0.00    +0.037 A 
ATOM     14  C   UNL     1      28.546  21.796  17.830  0.00  0.00    +0.014 A 
ATOM     15  C   UNL     1      29.585  21.234  17.086  0.00  0.00    +0.014 A 
ATOM     16  C   UNL     1      29.304  20.340  16.052  0.00  0.00    +0.037 A 
ATOM     17  C   UNL     1      28.000  19.846  15.904  0.00  0.00    +0.014 A 
ATOM     18  C   UNL     1      26.966  20.356  16.695  0.00  0.00    +0.014 A 
BRANCH  13  20
ATOM     19  N   UNL     1      26.252  22.153  19.700  0.00  0.00    -0.325 N 
ATOM     20  C   UNL     1      26.096  21.993  18.352  0.00  0.00    +0.242 C 
ATOM     21  O   UNL     1      25.096  22.387  17.774  0.00  0.00    -0.270 OA
ATOM     22  H   UNL     1      25.529  22.684  20.171  0.00  0.00    +0.145 HD
ATOM     23  H   UNL     1      27.157  22.104  20.150  0.00  0.00    +0.145 HD
ENDBRANCH  13  20
ENDBRANCH   1  16
TORSDOF 2
ENDMDL
MODEL 6
REMARK VINA RESULT:      -6.0      4.464      5.414
REMARK  Name = ZINC000583127796
REMARK  2 active torsions:
REMARK  status: ('A' for Active; 'I' for Inactive)
REMARK    1  A    between atoms: C_2  and  C_4
REMARK    2  A    between atoms: C_7  and  C_8
REMARK                            x       y       z     vdW  Elec       q    Type
REMARK                         _______ _______ _______ _____ _____    ______ ____
ROOT
ATOM      1  C   UNL     1      31.819  20.949  13.743  0.00  0.00    +0.247 C 
ATOM      2  O   UNL     1      32.703  20.090  13.722  0.00  0.00    -0.270 OA
ATOM      3  N   UNL     1      31.980  22.222  13.176  0.00  0.00    -0.297 N 
ATOM      4  C   UNL     1      30.992  23.302  13.157  0.00  0.00    +0.108 C 
ATOM      5  C   UNL     1      30.722  23.821  11.757  0.00  0.00    +0.020 C 
ATOM      6  C   UNL     1      32.008  24.148  11.020  0.00  0.00    +0.011 C 
ATOM      7  C   UNL     1      33.031  22.986  11.040  0.00  0.00    -0.004 C 
ATOM      8  C   UNL     1      34.323  23.518  10.382  0.00  0.00    +0.020 C 
ATOM      9  C   UNL     1      35.129  22.366   9.822  0.00  0.00    +0.070 C 
ATOM     10  S   UNL     1      33.894  21.273   9.104  0.00  0.00    -0.160 S 
ATOM     11  C   UNL     1      32.540  21.787  10.199  0.00  0.00    +0.077 C 
ATOM     12  C   UNL     1      33.257  22.544  12.510  0.00  0.00    +0.115 C 
ENDROOT
BRANCH   1  16
ATOM     13  C   UNL     1      28.227  19.564  15.617  0.00  0.00    +0.037 A 
ATOM     14  C   UNL     1      28.431  19.307  14.258  0.00  0.00    +0.014 A 
ATOM     15  C   UNL     1      29.538  19.854  13.607  0.00  0.00    +0.014 A 
ATOM     16  C   UNL     1      30.501  20.560  14.331  0.00  0.00    +0.037 A 
ATOM     17  C   UNL     1      30.246  20.898  15.668  0.00  0.00    +0.014 A 
ATOM     18  C   UNL     1      29.101  20.409  16.306  0.00  0.00    +0.014 A 
BRANCH  13  20
ATOM     19  N   UNL     1      26.423  19.754  17.236  0.00  0.00    -0.325 N 
ATOM     20  C   UNL     1      27.089  18.950  16.352  0.00  0.00    +0.242 C 
ATOM     21  O   UNL     1      26.732  17.803  16.140  0.00  0.00    -0.270 OA
ATOM     22  H   UNL     1      25.578  19.367  17.638  0.00  0.00    +0.145 HD
ATOM     23  H   UNL     1      26.509  20.762  17.221  0.00  0.00    +0.145 HD
ENDBRANCH  13  20
ENDBRANCH   1  16
TORSDOF 2
ENDMDL
MODEL 7
REMARK VINA RESULT:      -6.0      7.258      8.411
REMARK  Name = ZINC000583127796
REMARK  2 active torsions:
REMARK  status: ('A' for Active; 'I' for Inactive)
REMARK    1  A    between atoms: C_2  and  C_4
REMARK    2  A    between atoms: C_7  and  C_8
REMARK                            x       y       z     vdW  Elec       q    Type
REMARK                         _______ _______ _______ _____ _____    ______ ____
ROOT
ATOM      1  C   UNL     1      33.243  24.206   9.082  0.00  0.00    +0.247 C 
ATOM      2  O   UNL     1      33.713  25.342   8.988  0.00  0.00    -0.270 OA
ATOM      3  N   UNL     1      33.383  23.237   8.077  0.00  0.00    -0.297 N 
ATOM      4  C   UNL     1      32.858  21.870   8.100  0.00  0.00    +0.108 C 
ATOM      5  C   UNL     1      33.933  20.828   7.850  0.00  0.00    +0.020 C 
ATOM      6  C   UNL     1      34.754  21.153   6.616  0.00  0.00    +0.011 C 
ATOM      7  C   UNL     1      35.312  22.597   6.621  0.00  0.00    -0.004 C 
ATOM      8  C   UNL     1      35.995  22.816   5.253  0.00  0.00    +0.020 C 
ATOM      9  C   UNL     1      37.045  23.899   5.368  0.00  0.00    +0.070 C 
ATOM     10  S   UNL     1      37.829  23.586   6.956  0.00  0.00    -0.160 S 
ATOM     11  C   UNL     1      36.388  22.783   7.713  0.00  0.00    +0.077 C 
ATOM     12  C   UNL     1      34.139  23.585   6.858  0.00  0.00    +0.115 C 
ENDROOT
BRANCH   1  16
ATOM     13  C   UNL     1      31.220  22.854  12.605  0.00  0.00    +0.037 A 
ATOM     14  C   UNL     1      30.654  23.881  11.845  0.00  0.00    +0.014 A 
ATOM     15  C   UNL     1      31.359  24.414  10.764  0.00  0.00    +0.014 A 
ATOM     16  C   UNL     1      32.573  23.848  10.370  0.00  0.00    +0.037 A 
ATOM     17  C   UNL     1      33.182  22.887  11.189  0.00  0.00    +0.014 A 
ATOM     18  C   UNL     1      32.509  22.399  12.314  0.00  0.00    +0.014 A 
BRANCH  13  20
ATOM     19  N   UNL     1      30.781  22.660  14.988  0.00  0.00    -0.325 N 
ATOM     20  C   UNL     1      30.472  22.228  13.728  0.00  0.00    +0.242 C 
ATOM     21  O   UNL     1      29.590  21.409  13.533  0.00  0.00    -0.270 OA
ATOM     22  H   UNL     1      30.183  22.319  15.732  0.00  0.00    +0.145 HD
ATOM     23  H   UNL     1      31.286  23.519  15.158  0.00  0.00    +0.145 HD
ENDBRANCH  13  20
ENDBRANCH   1  16
TORSDOF 2
ENDMDL
MODEL 8
REMARK VINA RESULT:      -5.9      6.211      8.448
REMARK  Name = ZINC000583127796
REMARK  2 active torsions:
REMARK  status: ('A' for Active; 'I' for Inactive)
REMARK    1  A    between atoms: C_2  and  C_4
REMARK    2  A    between atoms: C_7  and  C_8
REMARK                            x       y       z     vdW  Elec       q    Type
REMARK                         _______ _______ _______ _____ _____    ______ ____
ROOT
ATOM      1  C   UNL     1      31.054  23.006  12.272  0.00  0.00    +0.247 C 
ATOM      2  O   UNL     1      29.861  23.243  12.074  0.00  0.00    -0.270 OA
ATOM      3  N   UNL     1      31.543  22.524  13.496  0.00  0.00    -0.297 N 
ATOM      4  C   UNL     1      32.937  22.219  13.822  0.00  0.00    +0.108 C 
ATOM      5  C   UNL     1      33.119  20.807  14.347  0.00  0.00    +0.020 C 
ATOM      6  C   UNL     1      32.141  20.492  15.463  0.00  0.00    +0.011 C 
ATOM      7  C   UNL     1      30.671  20.806  15.091  0.00  0.00    -0.004 C 
ATOM      8  C   UNL     1      29.828  20.570  16.362  0.00  0.00    +0.020 C 
ATOM      9  C   UNL     1      28.395  20.266  15.982  0.00  0.00    +0.070 C 
ATOM     10  S   UNL     1      28.539  19.202  14.538  0.00  0.00    -0.160 S 
ATOM     11  C   UNL     1      30.148  19.846  13.999  0.00  0.00    +0.077 C 
ATOM     12  C   UNL     1      30.586  22.273  14.591  0.00  0.00    +0.115 C 
ENDROOT
BRANCH   1  16
ATOM     13  C   UNL     1      33.419  23.561   8.747  0.00  0.00    +0.037 A 
ATOM     14  C   UNL     1      33.207  22.267   9.229  0.00  0.00    +0.014 A 
ATOM     15  C   UNL     1      32.540  22.079  10.442  0.00  0.00    +0.014 A 
ATOM     16  C   UNL     1      31.986  23.169  11.114  0.00  0.00    +0.037 A 
ATOM     17  C   UNL     1      32.283  24.469  10.681  0.00  0.00    +0.014 A 
ATOM     18  C   UNL     1      33.010  24.664   9.502  0.00  0.00    +0.014 A 
BRANCH  13  20
ATOM     19  N   UNL     1      34.828  24.928   7.313  0.00  0.00    -0.325 N 
ATOM     20  C   UNL     1      34.076  23.793   7.432  0.00  0.00    +0.242 C 
ATOM     21  O   UNL     1      33.992  22.985   6.522  0.00  0.00    -0.270 OA
ATOM     22  H   UNL     1      35.368  25.015   6.460  0.00  0.00    +0.145 HD
ATOM     23  H   UNL     1      35.145  25.455   8.116  0.00  0.00    +0.145 HD
ENDBRANCH  13  20
ENDBRANCH   1  16
TORSDOF 2
ENDMDL
MODEL 9
REMARK VINA RESULT:      -5.9      5.356      6.349
REMARK  Name = ZINC000583127796
REMARK  2 active torsions:
REMARK  status: ('A' for Active; 'I' for Inactive)
REMARK    1  A    between atoms: C_2  and  C_4
REMARK    2  A    between atoms: C_7  and  C_8
REMARK                            x       y       z     vdW  Elec       q    Type
REMARK                         _______ _______ _______ _____ _____    ______ ____
ROOT
ATOM      1  C   UNL     1      32.676  21.948  13.216  0.00  0.00    +0.247 C 
ATOM      2  O   UNL     1      33.619  21.174  13.045  0.00  0.00    -0.270 OA
ATOM      3  N   UNL     1      32.555  23.166  12.529  0.00  0.00    -0.297 N 
ATOM      4  C   UNL     1      31.477  24.147  12.669  0.00  0.00    +0.108 C 
ATOM      5  C   UNL     1      30.827  24.493  11.342  0.00  0.00    +0.020 C 
ATOM      6  C   UNL     1      31.858  24.855  10.289  0.00  0.00    +0.011 C 
ATOM      7  C   UNL     1      32.979  23.797  10.147  0.00  0.00    -0.004 C 
ATOM      8  C   UNL     1      34.011  24.370   9.152  0.00  0.00    +0.020 C 
ATOM      9  C   UNL     1      34.783  23.244   8.502  0.00  0.00    +0.070 C 
ATOM     10  S   UNL     1      33.542  21.977   8.198  0.00  0.00    -0.160 S 
ATOM     11  C   UNL     1      32.438  22.479   9.548  0.00  0.00    +0.077 C 
ATOM     12  C   UNL     1      33.594  23.530  11.546  0.00  0.00    +0.115 C 
ENDROOT
BRANCH   1  16
ATOM     13  C   UNL     1      29.345  20.970  15.722  0.00  0.00    +0.037 A 
ATOM     14  C   UNL     1      30.483  21.546  16.293  0.00  0.00    +0.014 A 
ATOM     15  C   UNL     1      31.619  21.760  15.511  0.00  0.00    +0.014 A 
ATOM     16  C   UNL     1      31.585  21.507  14.139  0.00  0.00    +0.037 A 
ATOM     17  C   UNL     1      30.481  20.840  13.589  0.00  0.00    +0.014 A 
ATOM     18  C   UNL     1      29.366  20.561  14.385  0.00  0.00    +0.014 A 
BRANCH  13  20
ATOM     19  N   UNL     1      27.292  21.874  16.660  0.00  0.00    -0.325 N 
ATOM     20  C   UNL     1      28.099  20.780  16.513  0.00  0.00    +0.242 C 
ATOM     21  O   UNL     1      27.786  19.691  16.965  0.00  0.00    -0.270 OA
ATOM     22  H   UNL     1      26.392  21.706  17.092  0.00  0.00    +0.145 HD
ATOM     23  H   UNL     1      27.377  22.692  16.071  0.00  0.00    +0.145 HD
ENDBRANCH  13  20
ENDBRANCH   1  16
TORSDOF 2
ENDMDL
