MODEL 1
REMARK VINA RESULT:      -6.0      0.000      0.000
REMARK  Name = ZINC000870248439
REMARK  2 active torsions:
REMARK  status: ('A' for Active; 'I' for Inactive)
REMARK    1  A    between atoms: C_2  and  C_4
REMARK    2  A    between atoms: C_7  and  C_8
REMARK                            x       y       z     vdW  Elec       q    Type
REMARK                         _______ _______ _______ _____ _____    ______ ____
ROOT
ATOM      1  C   UNL     1      33.335  23.375   9.911  0.00  0.00    +0.247 C 
ATOM      2  O   UNL     1      32.676  24.386   9.671  0.00  0.00    -0.270 OA
ATOM      3  N   UNL     1      33.349  22.748  11.164  0.00  0.00    -0.297 N 
ATOM      4  C   UNL     1      34.096  21.541  11.506  0.00  0.00    +0.108 C 
ATOM      5  C   UNL     1      33.295  20.545  12.322  0.00  0.00    +0.026 C 
ATOM      6  C   UNL     1      32.641  21.183  13.559  0.00  0.00    -0.025 C 
ATOM      7  C   UNL     1      31.682  20.134  14.167  0.00  0.00    +0.017 C 
ATOM      8  C   UNL     1      30.985  20.581  15.446  0.00  0.00    +0.069 C 
ATOM      9  S   UNL     1      32.157  20.986  16.771  0.00  0.00    -0.161 S 
ATOM     10  C   UNL     1      33.229  22.144  15.880  0.00  0.00    +0.069 C 
ATOM     11  C   UNL     1      33.748  21.536  14.586  0.00  0.00    +0.017 C 
ATOM     12  C   UNL     1      31.847  22.430  13.079  0.00  0.00    +0.026 C 
ATOM     13  C   UNL     1      32.702  23.418  12.286  0.00  0.00    +0.108 C 
ENDROOT
BRANCH   1  17
ATOM     14  C   UNL     1      35.412  21.893   6.486  0.00  0.00    +0.037 A 
ATOM     15  C   UNL     1      34.206  21.301   6.865  0.00  0.00    +0.014 A 
ATOM     16  C   UNL     1      33.588  21.702   8.042  0.00  0.00    +0.014 A 
ATOM     17  C   UNL     1      34.102  22.769   8.791  0.00  0.00    +0.037 A 
ATOM     18  C   UNL     1      35.343  23.316   8.449  0.00  0.00    +0.014 A 
ATOM     19  C   UNL     1      36.003  22.867   7.301  0.00  0.00    +0.014 A 
BRANCH  14  21
ATOM     20  N   UNL     1      36.204  22.432   4.254  0.00  0.00    -0.325 N 
ATOM     21  C   UNL     1      36.079  21.478   5.230  0.00  0.00    +0.242 C 
ATOM     22  O   UNL     1      36.523  20.347   5.085  0.00  0.00    -0.270 OA
ATOM     23  H   UNL     1      36.748  22.156   3.441  0.00  0.00    +0.145 HD
ATOM     24  H   UNL     1      36.104  23.415   4.439  0.00  0.00    +0.145 HD
ENDBRANCH  14  21
ENDBRANCH   1  17
TORSDOF 2
ENDMDL
MODEL 2
REMARK VINA RESULT:      -5.9      5.725      8.831
REMARK  Name = ZINC000870248439
REMARK  2 active torsions:
REMARK  status: ('A' for Active; 'I' for Inactive)
REMARK    1  A    between atoms: C_2  and  C_4
REMARK    2  A    between atoms: C_7  and  C_8
REMARK                            x       y       z     vdW  Elec       q    Type
REMARK                         _______ _______ _______ _____ _____    ______ ____
ROOT
ATOM      1  C   UNL     1      33.022  16.751  13.659  0.00  0.00    +0.247 C 
ATOM      2  O   UNL     1      32.435  15.734  14.030  0.00  0.00    -0.270 OA
ATOM      3  N   UNL     1      33.883  16.778  12.554  0.00  0.00    -0.297 N 
ATOM      4  C   UNL     1      34.594  17.952  12.055  0.00  0.00    +0.108 C 
ATOM      5  C   UNL     1      34.552  18.088  10.546  0.00  0.00    +0.026 C 
ATOM      6  C   UNL     1      34.991  16.803   9.822  0.00  0.00    -0.025 C 
ATOM      7  C   UNL     1      34.688  16.993   8.319  0.00  0.00    +0.017 C 
ATOM      8  C   UNL     1      35.116  15.829   7.435  0.00  0.00    +0.069 C 
ATOM      9  S   UNL     1      36.900  15.504   7.529  0.00  0.00    -0.161 S 
ATOM     10  C   UNL     1      37.089  15.385   9.328  0.00  0.00    +0.069 C 
ATOM     11  C   UNL     1      36.515  16.608  10.027  0.00  0.00    +0.017 C 
ATOM     12  C   UNL     1      34.151  15.630  10.401  0.00  0.00    +0.026 C 
ATOM     13  C   UNL     1      34.248  15.516  11.922  0.00  0.00    +0.108 C 
ENDROOT
BRANCH   1  17
ATOM     14  C   UNL     1      32.415  20.549  15.514  0.00  0.00    +0.037 A 
ATOM     15  C   UNL     1      33.418  19.706  15.992  0.00  0.00    +0.014 A 
ATOM     16  C   UNL     1      33.543  18.425  15.470  0.00  0.00    +0.014 A 
ATOM     17  C   UNL     1      32.747  18.014  14.393  0.00  0.00    +0.037 A 
ATOM     18  C   UNL     1      31.699  18.832  13.958  0.00  0.00    +0.014 A 
ATOM     19  C   UNL     1      31.527  20.097  14.529  0.00  0.00    +0.014 A 
BRANCH  14  21
ATOM     20  N   UNL     1      31.032  22.491  15.979  0.00  0.00    -0.325 N 
ATOM     21  C   UNL     1      32.275  21.919  16.059  0.00  0.00    +0.242 C 
ATOM     22  O   UNL     1      33.218  22.500  16.581  0.00  0.00    -0.270 OA
ATOM     23  H   UNL     1      30.934  23.390  16.443  0.00  0.00    +0.145 HD
ATOM     24  H   UNL     1      30.197  21.955  15.814  0.00  0.00    +0.145 HD
ENDBRANCH  14  21
ENDBRANCH   1  17
TORSDOF 2
ENDMDL
MODEL 3
REMARK VINA RESULT:      -5.8      5.875      7.219
REMARK  Name = ZINC000870248439
REMARK  2 active torsions:
REMARK  status: ('A' for Active; 'I' for Inactive)
REMARK    1  A    between atoms: C_2  and  C_4
REMARK    2  A    between atoms: C_7  and  C_8
REMARK                            x       y       z     vdW  Elec       q    Type
REMARK                         _______ _______ _______ _____ _____    ______ ____
ROOT
ATOM      1  C   UNL     1      33.803  17.023  11.114  0.00  0.00    +0.247 C 
ATOM      2  O   UNL     1      34.020  17.533  10.015  0.00  0.00    -0.270 OA
ATOM      3  N   UNL     1      33.680  17.770  12.294  0.00  0.00    -0.297 N 
ATOM      4  C   UNL     1      33.409  17.228  13.623  0.00  0.00    +0.108 C 
ATOM      5  C   UNL     1      32.378  18.020  14.400  0.00  0.00    +0.026 C 
ATOM      6  C   UNL     1      32.701  19.524  14.450  0.00  0.00    -0.025 C 
ATOM      7  C   UNL     1      31.475  20.240  15.062  0.00  0.00    +0.017 C 
ATOM      8  C   UNL     1      31.644  21.742  15.242  0.00  0.00    +0.069 C 
ATOM      9  S   UNL     1      33.037  22.160  16.329  0.00  0.00    -0.161 S 
ATOM     10  C   UNL     1      34.345  21.197  15.525  0.00  0.00    +0.069 C 
ATOM     11  C   UNL     1      33.939  19.741  15.358  0.00  0.00    +0.017 C 
ATOM     12  C   UNL     1      32.935  20.002  12.989  0.00  0.00    +0.026 C 
ATOM     13  C   UNL     1      34.003  19.191  12.257  0.00  0.00    +0.108 C 
ENDROOT
BRANCH   1  17
ATOM     14  C   UNL     1      33.296  12.788  10.915  0.00  0.00    +0.037 A 
ATOM     15  C   UNL     1      32.170  13.611  10.941  0.00  0.00    +0.014 A 
ATOM     16  C   UNL     1      32.328  14.980  11.124  0.00  0.00    +0.014 A 
ATOM     17  C   UNL     1      33.606  15.551  11.167  0.00  0.00    +0.037 A 
ATOM     18  C   UNL     1      34.732  14.721  11.207  0.00  0.00    +0.014 A 
ATOM     19  C   UNL     1      34.573  13.336  11.093  0.00  0.00    +0.014 A 
BRANCH  14  21
ATOM     20  N   UNL     1      33.354  10.852   9.449  0.00  0.00    -0.325 N 
ATOM     21  C   UNL     1      33.143  11.328  10.716  0.00  0.00    +0.242 C 
ATOM     22  O   UNL     1      32.869  10.581  11.647  0.00  0.00    -0.270 OA
ATOM     23  H   UNL     1      33.339   9.840   9.354  0.00  0.00    +0.145 HD
ATOM     24  H   UNL     1      33.837  11.381   8.743  0.00  0.00    +0.145 HD
ENDBRANCH  14  21
ENDBRANCH   1  17
TORSDOF 2
ENDMDL
MODEL 4
REMARK VINA RESULT:      -5.8      6.632      9.230
REMARK  Name = ZINC000870248439
REMARK  2 active torsions:
REMARK  status: ('A' for Active; 'I' for Inactive)
REMARK    1  A    between atoms: C_2  and  C_4
REMARK    2  A    between atoms: C_7  and  C_8
REMARK                            x       y       z     vdW  Elec       q    Type
REMARK                         _______ _______ _______ _____ _____    ______ ____
ROOT
ATOM      1  C   UNL     1      33.513  16.405  15.148  0.00  0.00    +0.247 C 
ATOM      2  O   UNL     1      33.243  15.865  16.221  0.00  0.00    -0.270 OA
ATOM      3  N   UNL     1      34.101  15.723  14.074  0.00  0.00    -0.297 N 
ATOM      4  C   UNL     1      34.432  16.301  12.774  0.00  0.00    +0.108 C 
ATOM      5  C   UNL     1      34.051  15.415  11.605  0.00  0.00    +0.026 C 
ATOM      6  C   UNL     1      34.591  13.981  11.747  0.00  0.00    -0.025 C 
ATOM      7  C   UNL     1      33.951  13.133  10.625  0.00  0.00    +0.017 C 
ATOM      8  C   UNL     1      34.421  11.686  10.579  0.00  0.00    +0.069 C 
ATOM      9  S   UNL     1      36.214  11.545  10.325  0.00  0.00    -0.161 S 
ATOM     10  C   UNL     1      36.791  12.637  11.651  0.00  0.00    +0.069 C 
ATOM     11  C   UNL     1      36.131  14.005  11.569  0.00  0.00    +0.017 C 
ATOM     12  C   UNL     1      34.154  13.453  13.143  0.00  0.00    +0.026 C 
ATOM     13  C   UNL     1      34.585  14.364  14.291  0.00  0.00    +0.108 C 
ENDROOT
BRANCH   1  17
ATOM     14  C   UNL     1      32.228  20.473  14.950  0.00  0.00    +0.037 A 
ATOM     15  C   UNL     1      31.620  19.522  14.130  0.00  0.00    +0.014 A 
ATOM     16  C   UNL     1      32.112  18.223  14.106  0.00  0.00    +0.014 A 
ATOM     17  C   UNL     1      33.137  17.833  14.978  0.00  0.00    +0.037 A 
ATOM     18  C   UNL     1      33.790  18.798  15.751  0.00  0.00    +0.014 A 
ATOM     19  C   UNL     1      33.342  20.123  15.726  0.00  0.00    +0.014 A 
BRANCH  14  21
ATOM     20  N   UNL     1      30.888  22.182  16.036  0.00  0.00    -0.325 N 
ATOM     21  C   UNL     1      31.710  21.860  14.988  0.00  0.00    +0.242 C 
ATOM     22  O   UNL     1      32.026  22.684  14.140  0.00  0.00    -0.270 OA
ATOM     23  H   UNL     1      30.622  23.162  16.097  0.00  0.00    +0.145 HD
ATOM     24  H   UNL     1      30.834  21.629  16.874  0.00  0.00    +0.145 HD
ENDBRANCH  14  21
ENDBRANCH   1  17
TORSDOF 2
ENDMDL
MODEL 5
REMARK VINA RESULT:      -5.8      3.315      5.251
REMARK  Name = ZINC000870248439
REMARK  2 active torsions:
REMARK  status: ('A' for Active; 'I' for Inactive)
REMARK    1  A    between atoms: C_2  and  C_4
REMARK    2  A    between atoms: C_7  and  C_8
REMARK                            x       y       z     vdW  Elec       q    Type
REMARK                         _______ _______ _______ _____ _____    ______ ____
ROOT
ATOM      1  C   UNL     1      33.071  22.349  14.199  0.00  0.00    +0.247 C 
ATOM      2  O   UNL     1      32.329  21.392  14.418  0.00  0.00    -0.270 OA
ATOM      3  N   UNL     1      33.830  22.975  15.197  0.00  0.00    -0.297 N 
ATOM      4  C   UNL     1      34.739  24.101  14.999  0.00  0.00    +0.108 C 
ATOM      5  C   UNL     1      36.058  23.950  15.729  0.00  0.00    +0.026 C 
ATOM      6  C   UNL     1      35.875  23.618  17.221  0.00  0.00    -0.025 C 
ATOM      7  C   UNL     1      37.269  23.267  17.790  0.00  0.00    +0.017 C 
ATOM      8  C   UNL     1      37.285  22.965  19.282  0.00  0.00    +0.069 C 
ATOM      9  S   UNL     1      36.695  24.362  20.281  0.00  0.00    -0.161 S 
ATOM     10  C   UNL     1      35.120  24.684  19.445  0.00  0.00    +0.069 C 
ATOM     11  C   UNL     1      35.314  24.867  17.947  0.00  0.00    +0.017 C 
ATOM     12  C   UNL     1      34.926  22.390  17.314  0.00  0.00    +0.026 C 
ATOM     13  C   UNL     1      33.599  22.601  16.588  0.00  0.00    +0.108 C 
ENDROOT
BRANCH   1  17
ATOM     14  C   UNL     1      33.201  23.444  10.074  0.00  0.00    +0.037 A 
ATOM     15  C   UNL     1      34.175  22.586  10.585  0.00  0.00    +0.014 A 
ATOM     16  C   UNL     1      34.206  22.320  11.948  0.00  0.00    +0.014 A 
ATOM     17  C   UNL     1      33.203  22.814  12.793  0.00  0.00    +0.037 A 
ATOM     18  C   UNL     1      32.267  23.726  12.294  0.00  0.00    +0.014 A 
ATOM     19  C   UNL     1      32.276  24.050  10.934  0.00  0.00    +0.014 A 
BRANCH  14  21
ATOM     20  N   UNL     1      34.335  24.092   8.025  0.00  0.00    -0.325 N 
ATOM     21  C   UNL     1      33.155  23.732   8.621  0.00  0.00    +0.242 C 
ATOM     22  O   UNL     1      32.117  23.623   7.981  0.00  0.00    -0.270 OA
ATOM     23  H   UNL     1      34.301  24.191   7.014  0.00  0.00    +0.145 HD
ATOM     24  H   UNL     1      35.231  23.926   8.451  0.00  0.00    +0.145 HD
ENDBRANCH  14  21
ENDBRANCH   1  17
TORSDOF 2
ENDMDL
MODEL 6
REMARK VINA RESULT:      -5.8      1.603      2.044
REMARK  Name = ZINC000870248439
REMARK  2 active torsions:
REMARK  status: ('A' for Active; 'I' for Inactive)
REMARK    1  A    between atoms: C_2  and  C_4
REMARK    2  A    between atoms: C_7  and  C_8
REMARK                            x       y       z     vdW  Elec       q    Type
REMARK                         _______ _______ _______ _____ _____    ______ ____
ROOT
ATOM      1  C   UNL     1      33.331  23.154  10.636  0.00  0.00    +0.247 C 
ATOM      2  O   UNL     1      32.543  24.038  10.971  0.00  0.00    -0.270 OA
ATOM      3  N   UNL     1      33.720  22.111  11.487  0.00  0.00    -0.297 N 
ATOM      4  C   UNL     1      34.636  21.026  11.145  0.00  0.00    +0.108 C 
ATOM      5  C   UNL     1      34.164  19.665  11.614  0.00  0.00    +0.026 C 
ATOM      6  C   UNL     1      33.791  19.649  13.107  0.00  0.00    -0.025 C 
ATOM      7  C   UNL     1      33.118  18.289  13.400  0.00  0.00    +0.017 C 
ATOM      8  C   UNL     1      32.732  18.075  14.858  0.00  0.00    +0.069 C 
ATOM      9  S   UNL     1      34.160  18.156  15.974  0.00  0.00    -0.161 S 
ATOM     10  C   UNL     1      34.860  19.744  15.452  0.00  0.00    +0.069 C 
ATOM     11  C   UNL     1      35.086  19.783  13.949  0.00  0.00    +0.017 C 
ATOM     12  C   UNL     1      32.790  20.813  13.351  0.00  0.00    +0.026 C 
ATOM     13  C   UNL     1      33.322  22.169  12.889  0.00  0.00    +0.108 C 
ENDROOT
BRANCH   1  17
ATOM     14  C   UNL     1      34.876  22.871   6.665  0.00  0.00    +0.037 A 
ATOM     15  C   UNL     1      35.670  23.423   7.670  0.00  0.00    +0.014 A 
ATOM     16  C   UNL     1      35.131  23.624   8.935  0.00  0.00    +0.014 A 
ATOM     17  C   UNL     1      33.839  23.174   9.239  0.00  0.00    +0.037 A 
ATOM     18  C   UNL     1      33.021  22.683   8.217  0.00  0.00    +0.014 A 
ATOM     19  C   UNL     1      33.538  22.543   6.925  0.00  0.00    +0.014 A 
BRANCH  14  21
ATOM     20  N   UNL     1      35.763  23.762   4.587  0.00  0.00    -0.325 N 
ATOM     21  C   UNL     1      35.440  22.647   5.313  0.00  0.00    +0.242 C 
ATOM     22  O   UNL     1      35.634  21.518   4.880  0.00  0.00    -0.270 OA
ATOM     23  H   UNL     1      36.236  23.587   3.704  0.00  0.00    +0.145 HD
ATOM     24  H   UNL     1      35.874  24.670   5.005  0.00  0.00    +0.145 HD
ENDBRANCH  14  21
ENDBRANCH   1  17
TORSDOF 2
ENDMDL
MODEL 7
REMARK VINA RESULT:      -5.7      3.789      7.816
REMARK  Name = ZINC000870248439
REMARK  2 active torsions:
REMARK  status: ('A' for Active; 'I' for Inactive)
REMARK    1  A    between atoms: C_2  and  C_4
REMARK    2  A    between atoms: C_7  and  C_8
REMARK                            x       y       z     vdW  Elec       q    Type
REMARK                         _______ _______ _______ _____ _____    ______ ____
ROOT
ATOM      1  C   UNL     1      32.542  23.432  11.976  0.00  0.00    +0.247 C 
ATOM      2  O   UNL     1      31.751  24.375  11.984  0.00  0.00    -0.270 OA
ATOM      3  N   UNL     1      33.335  23.106  10.868  0.00  0.00    -0.297 N 
ATOM      4  C   UNL     1      34.301  22.013  10.801  0.00  0.00    +0.108 C 
ATOM      5  C   UNL     1      35.612  22.403  10.149  0.00  0.00    +0.026 C 
ATOM      6  C   UNL     1      35.415  23.078   8.780  0.00  0.00    -0.025 C 
ATOM      7  C   UNL     1      36.790  23.626   8.333  0.00  0.00    +0.017 C 
ATOM      8  C   UNL     1      36.793  24.281   6.959  0.00  0.00    +0.069 C 
ATOM      9  S   UNL     1      36.280  23.140   5.643  0.00  0.00    -0.161 S 
ATOM     10  C   UNL     1      34.722  22.545   6.353  0.00  0.00    +0.069 C 
ATOM     11  C   UNL     1      34.922  22.015   7.764  0.00  0.00    +0.017 C 
ATOM     12  C   UNL     1      34.403  24.242   8.973  0.00  0.00    +0.026 C 
ATOM     13  C   UNL     1      33.087  23.794   9.606  0.00  0.00    +0.108 C 
ENDROOT
BRANCH   1  17
ATOM     14  C   UNL     1      33.249  21.007  15.420  0.00  0.00    +0.037 A 
ATOM     15  C   UNL     1      32.218  20.667  14.543  0.00  0.00    +0.014 A 
ATOM     16  C   UNL     1      31.910  21.516  13.488  0.00  0.00    +0.014 A 
ATOM     17  C   UNL     1      32.695  22.648  13.230  0.00  0.00    +0.037 A 
ATOM     18  C   UNL     1      33.683  23.024  14.145  0.00  0.00    +0.014 A 
ATOM     19  C   UNL     1      33.951  22.208  15.248  0.00  0.00    +0.014 A 
BRANCH  14  21
ATOM     20  N   UNL     1      33.893  18.810  16.230  0.00  0.00    -0.325 N 
ATOM     21  C   UNL     1      33.591  20.109  16.547  0.00  0.00    +0.242 C 
ATOM     22  O   UNL     1      33.631  20.516  17.700  0.00  0.00    -0.270 OA
ATOM     23  H   UNL     1      34.217  18.236  17.004  0.00  0.00    +0.145 HD
ATOM     24  H   UNL     1      34.134  18.520  15.298  0.00  0.00    +0.145 HD
ENDBRANCH  14  21
ENDBRANCH   1  17
TORSDOF 2
ENDMDL
MODEL 8
REMARK VINA RESULT:      -5.6      7.152     10.025
REMARK  Name = ZINC000870248439
REMARK  2 active torsions:
REMARK  status: ('A' for Active; 'I' for Inactive)
REMARK    1  A    between atoms: C_2  and  C_4
REMARK    2  A    between atoms: C_7  and  C_8
REMARK                            x       y       z     vdW  Elec       q    Type
REMARK                         _______ _______ _______ _____ _____    ______ ____
ROOT
ATOM      1  C   UNL     1      36.468  18.998  17.088  0.00  0.00    +0.247 C 
ATOM      2  O   UNL     1      37.394  19.666  16.626  0.00  0.00    -0.270 OA
ATOM      3  N   UNL     1      36.665  17.898  17.934  0.00  0.00    -0.297 N 
ATOM      4  C   UNL     1      35.611  17.077  18.525  0.00  0.00    +0.108 C 
ATOM      5  C   UNL     1      35.844  16.758  19.988  0.00  0.00    +0.026 C 
ATOM      6  C   UNL     1      37.241  16.171  20.252  0.00  0.00    -0.025 C 
ATOM      7  C   UNL     1      37.433  16.106  21.784  0.00  0.00    +0.017 C 
ATOM      8  C   UNL     1      38.753  15.491  22.231  0.00  0.00    +0.069 C 
ATOM      9  S   UNL     1      38.958  13.784  21.647  0.00  0.00    -0.161 S 
ATOM     10  C   UNL     1      38.632  14.030  19.881  0.00  0.00    +0.069 C 
ATOM     11  C   UNL     1      37.306  14.742  19.656  0.00  0.00    +0.017 C 
ATOM     12  C   UNL     1      38.281  17.136  19.616  0.00  0.00    +0.026 C 
ATOM     13  C   UNL     1      38.022  17.405  18.134  0.00  0.00    +0.108 C 
ENDROOT
BRANCH   1  17
ATOM     14  C   UNL     1      32.623  20.469  15.953  0.00  0.00    +0.037 A 
ATOM     15  C   UNL     1      33.202  20.912  17.143  0.00  0.00    +0.014 A 
ATOM     16  C   UNL     1      34.397  20.349  17.574  0.00  0.00    +0.014 A 
ATOM     17  C   UNL     1      35.081  19.427  16.771  0.00  0.00    +0.037 A 
ATOM     18  C   UNL     1      34.471  18.935  15.613  0.00  0.00    +0.014 A 
ATOM     19  C   UNL     1      33.234  19.449  15.211  0.00  0.00    +0.014 A 
BRANCH  14  21
ATOM     20  N   UNL     1      30.985  22.261  16.038  0.00  0.00    -0.325 N 
ATOM     21  C   UNL     1      31.352  21.064  15.480  0.00  0.00    +0.242 C 
ATOM     22  O   UNL     1      30.678  20.526  14.612  0.00  0.00    -0.270 OA
ATOM     23  H   UNL     1      30.162  22.698  15.632  0.00  0.00    +0.145 HD
ATOM     24  H   UNL     1      31.632  22.849  16.535  0.00  0.00    +0.145 HD
ENDBRANCH  14  21
ENDBRANCH   1  17
TORSDOF 2
ENDMDL
MODEL 9
REMARK VINA RESULT:      -5.6      6.021      9.601
REMARK  Name = ZINC000870248439
REMARK  2 active torsions:
REMARK  status: ('A' for Active; 'I' for Inactive)
REMARK    1  A    between atoms: C_2  and  C_4
REMARK    2  A    between atoms: C_7  and  C_8
REMARK                            x       y       z     vdW  Elec       q    Type
REMARK                         _______ _______ _______ _____ _____    ______ ____
ROOT
ATOM      1  C   UNL     1      34.968  24.020  16.149  0.00  0.00    +0.247 C 
ATOM      2  O   UNL     1      35.329  24.721  15.203  0.00  0.00    -0.270 OA
ATOM      3  N   UNL     1      34.407  22.746  15.987  0.00  0.00    -0.297 N 
ATOM      4  C   UNL     1      33.975  21.861  17.066  0.00  0.00    +0.108 C 
ATOM      5  C   UNL     1      34.394  20.418  16.868  0.00  0.00    +0.026 C 
ATOM      6  C   UNL     1      33.999  19.870  15.486  0.00  0.00    -0.025 C 
ATOM      7  C   UNL     1      34.674  18.489  15.326  0.00  0.00    +0.017 C 
ATOM      8  C   UNL     1      34.342  17.769  14.026  0.00  0.00    +0.069 C 
ATOM      9  S   UNL     1      32.563  17.460  13.837  0.00  0.00    -0.161 S 
ATOM     10  C   UNL     1      31.935  19.135  14.124  0.00  0.00    +0.069 C 
ATOM     11  C   UNL     1      32.458  19.707  15.433  0.00  0.00    +0.017 C 
ATOM     12  C   UNL     1      34.536  20.864  14.418  0.00  0.00    +0.026 C 
ATOM     13  C   UNL     1      34.064  22.300  14.642  0.00  0.00    +0.108 C 
ENDROOT
BRANCH   1  17
ATOM     14  C   UNL     1      35.508  25.203  20.216  0.00  0.00    +0.037 A 
ATOM     15  C   UNL     1      34.385  25.648  19.517  0.00  0.00    +0.014 A 
ATOM     16  C   UNL     1      34.265  25.363  18.163  0.00  0.00    +0.014 A 
ATOM     17  C   UNL     1      35.200  24.539  17.522  0.00  0.00    +0.037 A 
ATOM     18  C   UNL     1      36.358  24.150  18.203  0.00  0.00    +0.014 A 
ATOM     19  C   UNL     1      36.516  24.494  19.550  0.00  0.00    +0.014 A 
BRANCH  14  21
ATOM     20  N   UNL     1      35.593  26.815  22.032  0.00  0.00    -0.325 N 
ATOM     21  C   UNL     1      35.646  25.496  21.662  0.00  0.00    +0.242 C 
ATOM     22  O   UNL     1      35.771  24.601  22.487  0.00  0.00    -0.270 OA
ATOM     23  H   UNL     1      35.593  26.987  23.034  0.00  0.00    +0.145 HD
ATOM     24  H   UNL     1      35.225  27.533  21.432  0.00  0.00    +0.145 HD
ENDBRANCH  14  21
ENDBRANCH   1  17
TORSDOF 2
ENDMDL
