MODEL 1
REMARK VINA RESULT:      -6.8      0.000      0.000
REMARK  Name = ZINC000329563636
REMARK  3 active torsions:
REMARK  status: ('A' for Active; 'I' for Inactive)
REMARK    1  A    between atoms: C_1  and  C_2
REMARK    2  A    between atoms: C_2  and  N_3
REMARK    3  A    between atoms: N_9  and  C_10
REMARK                            x       y       z     vdW  Elec       q    Type
REMARK                         _______ _______ _______ _____ _____    ______ ____
ROOT
ATOM      1  C   UNL     1      31.563  24.131  13.433  0.00  0.00    +0.112 C 
ATOM      2  C   UNL     1      30.617  23.060  13.988  0.00  0.00    +0.075 C 
ATOM      3  C   UNL     1      30.728  22.820  15.501  0.00  0.00    +0.113 C 
ATOM      4  C   UNL     1      29.903  23.800  16.377  0.00  0.00    +0.048 C 
ATOM      5  C   UNL     1      28.784  22.976  17.002  0.00  0.00    +0.004 C 
ATOM      6  C   UNL     1      29.379  21.588  17.129  0.00  0.00    +0.004 C 
ATOM      7  C   UNL     1      30.134  21.423  15.821  0.00  0.00    +0.048 C 
ATOM      8  O   UNL     1      32.099  22.806  15.944  0.00  0.00    -0.485 OA
ATOM      9  C   UNL     1      32.774  23.957  15.629  0.00  0.00    +0.126 A 
ATOM     10  C   UNL     1      33.723  24.412  16.543  0.00  0.00    +0.046 A 
ATOM     11  C   UNL     1      34.414  25.601  16.298  0.00  0.00    +0.004 A 
ATOM     12  C   UNL     1      34.172  26.318  15.129  0.00  0.00    +0.001 A 
ATOM     13  C   UNL     1      33.244  25.841  14.202  0.00  0.00    +0.009 A 
ATOM     14  C   UNL     1      32.536  24.654  14.447  0.00  0.00    +0.015 A 
ENDROOT
BRANCH   1  21
ATOM     15  N   UNL     1      35.394  23.197   8.498  0.00  0.00    -0.299 N 
ATOM     16  C   UNL     1      34.682  24.474   8.518  0.00  0.00    +0.127 C 
ATOM     17  C   UNL     1      33.198  24.285   8.810  0.00  0.00    +0.129 C 
ATOM     18  N   UNL     1      33.054  23.616  10.094  0.00  0.00    -0.275 N 
ATOM     19  C   UNL     1      32.382  24.259  11.109  0.00  0.00    +0.303 C 
ATOM     20  O   UNL     1      31.900  25.383  10.973  0.00  0.00    -0.253 OA
ATOM     21  N   UNL     1      32.307  23.590  12.294  0.00  0.00    -0.292 N 
ATOM     22  C   UNL     1      33.734  22.320  10.179  0.00  0.00    +0.205 C 
ATOM     23  C   UNL     1      35.021  22.153   9.342  0.00  0.00    +0.233 C 
ATOM     24  O   UNL     1      35.665  21.102   9.411  0.00  0.00    -0.274 OA
ATOM     25  H   UNL     1      32.378  22.585  12.277  0.00  0.00    +0.151 HD
BRANCH  15  27
ATOM     26  C   UNL     1      36.618  22.648   6.413  0.00  0.00    +0.024 C 
ATOM     27  C   UNL     1      36.699  23.147   7.848  0.00  0.00    +0.104 C 
ENDBRANCH  15  27
ENDBRANCH   1  21
TORSDOF 2
ENDMDL
MODEL 2
REMARK VINA RESULT:      -6.5      2.784      6.972
REMARK  Name = ZINC000329563636
REMARK  3 active torsions:
REMARK  status: ('A' for Active; 'I' for Inactive)
REMARK    1  A    between atoms: C_1  and  C_2
REMARK    2  A    between atoms: C_2  and  N_3
REMARK    3  A    between atoms: N_9  and  C_10
REMARK                            x       y       z     vdW  Elec       q    Type
REMARK                         _______ _______ _______ _____ _____    ______ ____
ROOT
ATOM      1  C   UNL     1      32.957  25.607  12.915  0.00  0.00    +0.112 C 
ATOM      2  C   UNL     1      33.846  26.675  13.562  0.00  0.00    +0.075 C 
ATOM      3  C   UNL     1      34.932  27.255  12.646  0.00  0.00    +0.113 C 
ATOM      4  C   UNL     1      34.459  28.411  11.726  0.00  0.00    +0.048 C 
ATOM      5  C   UNL     1      35.150  29.671  12.232  0.00  0.00    +0.004 C 
ATOM      6  C   UNL     1      36.456  29.164  12.812  0.00  0.00    +0.004 C 
ATOM      7  C   UNL     1      36.033  27.894  13.533  0.00  0.00    +0.048 C 
ATOM      8  O   UNL     1      35.571  26.233  11.855  0.00  0.00    -0.485 OA
ATOM      9  C   UNL     1      34.686  25.518  11.091  0.00  0.00    +0.126 A 
ATOM     10  C   UNL     1      35.119  25.097   9.835  0.00  0.00    +0.046 A 
ATOM     11  C   UNL     1      34.249  24.400   8.994  0.00  0.00    +0.004 A 
ATOM     12  C   UNL     1      32.957  24.104   9.421  0.00  0.00    +0.001 A 
ATOM     13  C   UNL     1      32.539  24.499  10.693  0.00  0.00    +0.009 A 
ATOM     14  C   UNL     1      33.403  25.211  11.539  0.00  0.00    +0.015 A 
ENDROOT
BRANCH   1  21
ATOM     15  N   UNL     1      31.860  19.941  15.483  0.00  0.00    -0.299 N 
ATOM     16  C   UNL     1      30.693  20.623  14.924  0.00  0.00    +0.127 C 
ATOM     17  C   UNL     1      30.617  22.074  15.387  0.00  0.00    +0.129 C 
ATOM     18  N   UNL     1      31.835  22.759  14.982  0.00  0.00    -0.275 N 
ATOM     19  C   UNL     1      31.741  23.835  14.127  0.00  0.00    +0.303 C 
ATOM     20  O   UNL     1      30.664  24.237  13.688  0.00  0.00    -0.253 OA
ATOM     21  N   UNL     1      32.920  24.415  13.764  0.00  0.00    -0.292 N 
ATOM     22  C   UNL     1      33.068  22.152  15.491  0.00  0.00    +0.205 C 
ATOM     23  C   UNL     1      33.057  20.622  15.698  0.00  0.00    +0.233 C 
ATOM     24  O   UNL     1      34.080  20.047  16.078  0.00  0.00    -0.274 OA
ATOM     25  H   UNL     1      33.709  24.314  14.383  0.00  0.00    +0.151 HD
BRANCH  15  27
ATOM     26  C   UNL     1      31.888  17.899  14.076  0.00  0.00    +0.024 C 
ATOM     27  C   UNL     1      31.869  18.482  15.482  0.00  0.00    +0.104 C 
ENDBRANCH  15  27
ENDBRANCH   1  21
TORSDOF 2
ENDMDL
MODEL 3
REMARK VINA RESULT:      -6.4      2.392      4.772
REMARK  Name = ZINC000329563636
REMARK  3 active torsions:
REMARK  status: ('A' for Active; 'I' for Inactive)
REMARK    1  A    between atoms: C_1  and  C_2
REMARK    2  A    between atoms: C_2  and  N_3
REMARK    3  A    between atoms: N_9  and  C_10
REMARK                            x       y       z     vdW  Elec       q    Type
REMARK                         _______ _______ _______ _____ _____    ______ ____
ROOT
ATOM      1  C   UNL     1      32.685  23.330  16.758  0.00  0.00    +0.112 C 
ATOM      2  C   UNL     1      33.329  24.271  17.782  0.00  0.00    +0.075 C 
ATOM      3  C   UNL     1      32.463  24.577  19.012  0.00  0.00    +0.113 C 
ATOM      4  C   UNL     1      32.545  23.520  20.145  0.00  0.00    +0.048 C 
ATOM      5  C   UNL     1      33.262  24.195  21.309  0.00  0.00    +0.004 C 
ATOM      6  C   UNL     1      32.893  25.658  21.166  0.00  0.00    +0.004 C 
ATOM      7  C   UNL     1      32.984  25.884  19.666  0.00  0.00    +0.048 C 
ATOM      8  O   UNL     1      31.085  24.805  18.657  0.00  0.00    -0.485 OA
ATOM      9  C   UNL     1      30.528  23.754  17.977  0.00  0.00    +0.126 A 
ATOM     10  C   UNL     1      29.185  23.473  18.222  0.00  0.00    +0.046 A 
ATOM     11  C   UNL     1      28.572  22.388  17.591  0.00  0.00    +0.004 A 
ATOM     12  C   UNL     1      29.297  21.604  16.697  0.00  0.00    +0.001 A 
ATOM     13  C   UNL     1      30.632  21.909  16.430  0.00  0.00    +0.009 A 
ATOM     14  C   UNL     1      31.259  22.989  17.071  0.00  0.00    +0.015 A 
ENDROOT
BRANCH   1  21
ATOM     15  N   UNL     1      33.372  24.514  10.591  0.00  0.00    -0.299 N 
ATOM     16  C   UNL     1      34.413  23.688  11.200  0.00  0.00    +0.127 C 
ATOM     17  C   UNL     1      34.924  24.297  12.501  0.00  0.00    +0.129 C 
ATOM     18  N   UNL     1      33.806  24.445  13.420  0.00  0.00    -0.275 N 
ATOM     19  C   UNL     1      33.839  23.774  14.622  0.00  0.00    +0.303 C 
ATOM     20  O   UNL     1      34.778  23.050  14.948  0.00  0.00    -0.253 OA
ATOM     21  N   UNL     1      32.748  23.933  15.425  0.00  0.00    -0.292 N 
ATOM     22  C   UNL     1      32.702  25.260  12.903  0.00  0.00    +0.205 C 
ATOM     23  C   UNL     1      32.470  25.229  11.377  0.00  0.00    +0.233 C 
ATOM     24  O   UNL     1      31.525  25.855  10.888  0.00  0.00    -0.274 OA
ATOM     25  H   UNL     1      32.194  24.766  15.313  0.00  0.00    +0.151 HD
BRANCH  15  27
ATOM     26  C   UNL     1      34.306  23.973   8.359  0.00  0.00    +0.024 C 
ATOM     27  C   UNL     1      33.068  24.308   9.179  0.00  0.00    +0.104 C 
ENDBRANCH  15  27
ENDBRANCH   1  21
TORSDOF 2
ENDMDL
MODEL 4
REMARK VINA RESULT:      -6.3      4.302      6.018
REMARK  Name = ZINC000329563636
REMARK  3 active torsions:
REMARK  status: ('A' for Active; 'I' for Inactive)
REMARK    1  A    between atoms: C_1  and  C_2
REMARK    2  A    between atoms: C_2  and  N_3
REMARK    3  A    between atoms: N_9  and  C_10
REMARK                            x       y       z     vdW  Elec       q    Type
REMARK                         _______ _______ _______ _____ _____    ______ ____
ROOT
ATOM      1  C   UNL     1      33.498  22.497  14.273  0.00  0.00    +0.112 C 
ATOM      2  C   UNL     1      33.328  23.431  13.069  0.00  0.00    +0.075 C 
ATOM      3  C   UNL     1      32.111  24.364  13.142  0.00  0.00    +0.113 C 
ATOM      4  C   UNL     1      32.341  25.672  13.944  0.00  0.00    +0.048 C 
ATOM      5  C   UNL     1      32.313  26.808  12.927  0.00  0.00    +0.004 C 
ATOM      6  C   UNL     1      31.378  26.306  11.844  0.00  0.00    +0.004 C 
ATOM      7  C   UNL     1      31.775  24.846  11.706  0.00  0.00    +0.048 C 
ATOM      8  O   UNL     1      30.942  23.685  13.641  0.00  0.00    -0.485 OA
ATOM      9  C   UNL     1      31.138  23.120  14.875  0.00  0.00    +0.126 A 
ATOM     10  C   UNL     1      30.060  23.123  15.759  0.00  0.00    +0.046 A 
ATOM     11  C   UNL     1      30.211  22.599  17.044  0.00  0.00    +0.004 A 
ATOM     12  C   UNL     1      31.431  22.052  17.434  0.00  0.00    +0.001 A 
ATOM     13  C   UNL     1      32.497  22.022  16.534  0.00  0.00    +0.009 A 
ATOM     14  C   UNL     1      32.358  22.559  15.244  0.00  0.00    +0.015 A 
ENDROOT
BRANCH   1  21
ATOM     15  N   UNL     1      35.224  16.486  13.381  0.00  0.00    -0.299 N 
ATOM     16  C   UNL     1      36.314  17.434  13.608  0.00  0.00    +0.127 C 
ATOM     17  C   UNL     1      36.167  18.677  12.737  0.00  0.00    +0.129 C 
ATOM     18  N   UNL     1      34.890  19.308  13.033  0.00  0.00    -0.275 N 
ATOM     19  C   UNL     1      34.881  20.595  13.525  0.00  0.00    +0.303 C 
ATOM     20  O   UNL     1      35.913  21.231  13.728  0.00  0.00    -0.253 OA
ATOM     21  N   UNL     1      33.654  21.118  13.809  0.00  0.00    -0.292 N 
ATOM     22  C   UNL     1      33.726  18.438  12.838  0.00  0.00    +0.205 C 
ATOM     23  C   UNL     1      33.936  16.929  13.085  0.00  0.00    +0.233 C 
ATOM     24  O   UNL     1      32.982  16.153  12.985  0.00  0.00    -0.274 OA
ATOM     25  H   UNL     1      32.855  20.745  13.320  0.00  0.00    +0.151 HD
BRANCH  15  27
ATOM     26  C   UNL     1      35.445  14.960  15.323  0.00  0.00    +0.024 C 
ATOM     27  C   UNL     1      35.415  15.105  13.808  0.00  0.00    +0.104 C 
ENDBRANCH  15  27
ENDBRANCH   1  21
TORSDOF 2
ENDMDL
MODEL 5
REMARK VINA RESULT:      -6.2      3.789      8.498
REMARK  Name = ZINC000329563636
REMARK  3 active torsions:
REMARK  status: ('A' for Active; 'I' for Inactive)
REMARK    1  A    between atoms: C_1  and  C_2
REMARK    2  A    between atoms: C_2  and  N_3
REMARK    3  A    between atoms: N_9  and  C_10
REMARK                            x       y       z     vdW  Elec       q    Type
REMARK                         _______ _______ _______ _____ _____    ______ ____
ROOT
ATOM      1  C   UNL     1      31.565  24.186  14.706  0.00  0.00    +0.112 C 
ATOM      2  C   UNL     1      31.938  25.357  13.790  0.00  0.00    +0.075 C 
ATOM      3  C   UNL     1      32.818  24.982  12.589  0.00  0.00    +0.113 C 
ATOM      4  C   UNL     1      32.043  24.450  11.355  0.00  0.00    +0.048 C 
ATOM      5  C   UNL     1      32.177  25.515  10.273  0.00  0.00    +0.004 C 
ATOM      6  C   UNL     1      33.517  26.162  10.561  0.00  0.00    +0.004 C 
ATOM      7  C   UNL     1      33.522  26.266  12.077  0.00  0.00    +0.048 C 
ATOM      8  O   UNL     1      33.856  24.050  12.952  0.00  0.00    -0.485 OA
ATOM      9  C   UNL     1      33.368  22.900  13.516  0.00  0.00    +0.126 A 
ATOM     10  C   UNL     1      34.039  21.712  13.230  0.00  0.00    +0.046 A 
ATOM     11  C   UNL     1      33.565  20.502  13.742  0.00  0.00    +0.004 A 
ATOM     12  C   UNL     1      32.436  20.487  14.557  0.00  0.00    +0.001 A 
ATOM     13  C   UNL     1      31.787  21.683  14.867  0.00  0.00    +0.009 A 
ATOM     14  C   UNL     1      32.249  22.901  14.346  0.00  0.00    +0.015 A 
ENDROOT
BRANCH   1  21
ATOM     15  N   UNL     1      32.344  24.263  20.975  0.00  0.00    -0.299 N 
ATOM     16  C   UNL     1      31.057  23.758  20.500  0.00  0.00    +0.127 C 
ATOM     17  C   UNL     1      30.441  24.684  19.457  0.00  0.00    +0.129 C 
ATOM     18  N   UNL     1      31.366  24.813  18.341  0.00  0.00    -0.275 N 
ATOM     19  C   UNL     1      30.963  24.401  17.090  0.00  0.00    +0.303 C 
ATOM     20  O   UNL     1      29.850  23.924  16.879  0.00  0.00    -0.253 OA
ATOM     21  N   UNL     1      31.886  24.523  16.094  0.00  0.00    -0.292 N 
ATOM     22  C   UNL     1      32.693  25.314  18.712  0.00  0.00    +0.205 C 
ATOM     23  C   UNL     1      33.205  24.951  20.122  0.00  0.00    +0.233 C 
ATOM     24  O   UNL     1      34.335  25.302  20.473  0.00  0.00    -0.274 OA
ATOM     25  H   UNL     1      32.613  25.214  16.203  0.00  0.00    +0.151 HD
BRANCH  15  27
ATOM     26  C   UNL     1      31.833  23.772  23.350  0.00  0.00    +0.024 C 
ATOM     27  C   UNL     1      32.866  23.741  22.233  0.00  0.00    +0.104 C 
ENDBRANCH  15  27
ENDBRANCH   1  21
TORSDOF 2
ENDMDL
MODEL 6
REMARK VINA RESULT:      -6.2      2.775      3.825
REMARK  Name = ZINC000329563636
REMARK  3 active torsions:
REMARK  status: ('A' for Active; 'I' for Inactive)
REMARK    1  A    between atoms: C_1  and  C_2
REMARK    2  A    between atoms: C_2  and  N_3
REMARK    3  A    between atoms: N_9  and  C_10
REMARK                            x       y       z     vdW  Elec       q    Type
REMARK                         _______ _______ _______ _____ _____    ______ ____
ROOT
ATOM      1  C   UNL     1      33.463  21.489  13.754  0.00  0.00    +0.112 C 
ATOM      2  C   UNL     1      32.283  22.289  14.317  0.00  0.00    +0.075 C 
ATOM      3  C   UNL     1      31.188  21.443  14.983  0.00  0.00    +0.113 C 
ATOM      4  C   UNL     1      31.462  21.074  16.465  0.00  0.00    +0.048 C 
ATOM      5  C   UNL     1      30.440  21.845  17.293  0.00  0.00    +0.004 C 
ATOM      6  C   UNL     1      29.242  21.970  16.371  0.00  0.00    +0.004 C 
ATOM      7  C   UNL     1      29.882  22.279  15.028  0.00  0.00    +0.048 C 
ATOM      8  O   UNL     1      30.898  20.249  14.229  0.00  0.00    -0.485 OA
ATOM      9  C   UNL     1      32.001  19.462  14.029  0.00  0.00    +0.126 A 
ATOM     10  C   UNL     1      31.813  18.081  14.034  0.00  0.00    +0.046 A 
ATOM     11  C   UNL     1      32.905  17.226  13.876  0.00  0.00    +0.004 A 
ATOM     12  C   UNL     1      34.180  17.755  13.689  0.00  0.00    +0.001 A 
ATOM     13  C   UNL     1      34.360  19.138  13.652  0.00  0.00    +0.009 A 
ATOM     14  C   UNL     1      33.268  20.004  13.823  0.00  0.00    +0.015 A 
ENDROOT
BRANCH   1  21
ATOM     15  N   UNL     1      35.667  23.905   8.349  0.00  0.00    -0.299 N 
ATOM     16  C   UNL     1      35.634  24.821   9.488  0.00  0.00    +0.127 C 
ATOM     17  C   UNL     1      34.290  24.776  10.206  0.00  0.00    +0.129 C 
ATOM     18  N   UNL     1      34.044  23.414  10.655  0.00  0.00    -0.275 N 
ATOM     19  C   UNL     1      33.900  23.173  12.004  0.00  0.00    +0.303 C 
ATOM     20  O   UNL     1      33.974  24.067  12.845  0.00  0.00    -0.253 OA
ATOM     21  N   UNL     1      33.699  21.873  12.361  0.00  0.00    -0.292 N 
ATOM     22  C   UNL     1      34.056  22.413   9.584  0.00  0.00    +0.205 C 
ATOM     23  C   UNL     1      34.984  22.691   8.382  0.00  0.00    +0.233 C 
ATOM     24  O   UNL     1      35.074  21.861   7.473  0.00  0.00    -0.274 OA
ATOM     25  H   UNL     1      33.297  21.250  11.678  0.00  0.00    +0.151 HD
BRANCH  15  27
ATOM     26  C   UNL     1      36.390  25.298   6.430  0.00  0.00    +0.024 C 
ATOM     27  C   UNL     1      36.692  24.110   7.331  0.00  0.00    +0.104 C 
ENDBRANCH  15  27
ENDBRANCH   1  21
TORSDOF 2
ENDMDL
MODEL 7
REMARK VINA RESULT:      -6.1      2.515      7.830
REMARK  Name = ZINC000329563636
REMARK  3 active torsions:
REMARK  status: ('A' for Active; 'I' for Inactive)
REMARK    1  A    between atoms: C_1  and  C_2
REMARK    2  A    between atoms: C_2  and  N_3
REMARK    3  A    between atoms: N_9  and  C_10
REMARK                            x       y       z     vdW  Elec       q    Type
REMARK                         _______ _______ _______ _____ _____    ______ ____
ROOT
ATOM      1  C   UNL     1      34.232  23.696  13.136  0.00  0.00    +0.112 C 
ATOM      2  C   UNL     1      34.226  22.601  12.064  0.00  0.00    +0.075 C 
ATOM      3  C   UNL     1      34.138  23.111  10.618  0.00  0.00    +0.113 C 
ATOM      4  C   UNL     1      35.496  23.520   9.990  0.00  0.00    +0.048 C 
ATOM      5  C   UNL     1      35.792  22.492   8.904  0.00  0.00    +0.004 C 
ATOM      6  C   UNL     1      34.419  22.061   8.425  0.00  0.00    +0.004 C 
ATOM      7  C   UNL     1      33.630  21.954   9.719  0.00  0.00    +0.048 C 
ATOM      8  O   UNL     1      33.194  24.192  10.486  0.00  0.00    -0.485 OA
ATOM      9  C   UNL     1      33.474  25.250  11.310  0.00  0.00    +0.126 A 
ATOM     10  C   UNL     1      33.206  26.529  10.825  0.00  0.00    +0.046 A 
ATOM     11  C   UNL     1      33.509  27.649  11.602  0.00  0.00    +0.004 A 
ATOM     12  C   UNL     1      34.056  27.486  12.873  0.00  0.00    +0.001 A 
ATOM     13  C   UNL     1      34.292  26.203  13.368  0.00  0.00    +0.009 A 
ATOM     14  C   UNL     1      34.003  25.073  12.587  0.00  0.00    +0.015 A 
ENDROOT
BRANCH   1  21
ATOM     15  N   UNL     1      30.531  23.562  18.254  0.00  0.00    -0.299 N 
ATOM     16  C   UNL     1      31.967  23.665  18.510  0.00  0.00    +0.127 C 
ATOM     17  C   UNL     1      32.757  22.646  17.696  0.00  0.00    +0.129 C 
ATOM     18  N   UNL     1      32.487  22.864  16.283  0.00  0.00    -0.275 N 
ATOM     19  C   UNL     1      33.532  23.190  15.447  0.00  0.00    +0.303 C 
ATOM     20  O   UNL     1      34.688  23.308  15.852  0.00  0.00    -0.253 OA
ATOM     21  N   UNL     1      33.208  23.409  14.141  0.00  0.00    -0.292 N 
ATOM     22  C   UNL     1      31.069  22.782  15.919  0.00  0.00    +0.205 C 
ATOM     23  C   UNL     1      30.048  23.216  16.993  0.00  0.00    +0.233 C 
ATOM     24  O   UNL     1      28.843  23.216  16.728  0.00  0.00    -0.274 OA
ATOM     25  H   UNL     1      32.374  22.973  13.781  0.00  0.00    +0.151 HD
BRANCH  15  27
ATOM     26  C   UNL     1      30.246  24.324  20.596  0.00  0.00    +0.024 C 
ATOM     27  C   UNL     1      29.616  24.159  19.220  0.00  0.00    +0.104 C 
ENDBRANCH  15  27
ENDBRANCH   1  21
TORSDOF 2
ENDMDL
MODEL 8
REMARK VINA RESULT:      -6.0      3.441      6.752
REMARK  Name = ZINC000329563636
REMARK  3 active torsions:
REMARK  status: ('A' for Active; 'I' for Inactive)
REMARK    1  A    between atoms: C_1  and  C_2
REMARK    2  A    between atoms: C_2  and  N_3
REMARK    3  A    between atoms: N_9  and  C_10
REMARK                            x       y       z     vdW  Elec       q    Type
REMARK                         _______ _______ _______ _____ _____    ______ ____
ROOT
ATOM      1  C   UNL     1      33.289  24.432  12.765  0.00  0.00    +0.112 C 
ATOM      2  C   UNL     1      33.921  25.659  13.432  0.00  0.00    +0.075 C 
ATOM      3  C   UNL     1      34.628  26.625  12.471  0.00  0.00    +0.113 C 
ATOM      4  C   UNL     1      33.695  27.657  11.784  0.00  0.00    +0.048 C 
ATOM      5  C   UNL     1      34.062  29.018  12.363  0.00  0.00    +0.004 C 
ATOM      6  C   UNL     1      35.535  28.887  12.698  0.00  0.00    +0.004 C 
ATOM      7  C   UNL     1      35.623  27.490  13.288  0.00  0.00    +0.048 C 
ATOM      8  O   UNL     1      35.398  25.925  11.475  0.00  0.00    -0.485 OA
ATOM      9  C   UNL     1      34.648  25.044  10.741  0.00  0.00    +0.126 A 
ATOM     10  C   UNL     1      34.975  24.892   9.394  0.00  0.00    +0.046 A 
ATOM     11  C   UNL     1      34.221  24.040   8.585  0.00  0.00    +0.004 A 
ATOM     12  C   UNL     1      33.158  23.323   9.129  0.00  0.00    +0.001 A 
ATOM     13  C   UNL     1      32.856  23.453  10.485  0.00  0.00    +0.009 A 
ATOM     14  C   UNL     1      33.601  24.318  11.303  0.00  0.00    +0.015 A 
ENDROOT
BRANCH   1  21
ATOM     15  N   UNL     1      33.999  18.570  15.011  0.00  0.00    -0.299 N 
ATOM     16  C   UNL     1      32.635  19.097  15.028  0.00  0.00    +0.127 C 
ATOM     17  C   UNL     1      32.583  20.502  15.617  0.00  0.00    +0.129 C 
ATOM     18  N   UNL     1      33.442  21.373  14.829  0.00  0.00    -0.275 N 
ATOM     19  C   UNL     1      32.885  22.456  14.187  0.00  0.00    +0.303 C 
ATOM     20  O   UNL     1      31.684  22.714  14.251  0.00  0.00    -0.253 OA
ATOM     21  N   UNL     1      33.739  23.215  13.443  0.00  0.00    -0.292 N 
ATOM     22  C   UNL     1      34.838  20.932  14.749  0.00  0.00    +0.205 C 
ATOM     23  C   UNL     1      35.091  19.409  14.799  0.00  0.00    +0.233 C 
ATOM     24  O   UNL     1      36.240  18.975  14.686  0.00  0.00    -0.274 OA
ATOM     25  H   UNL     1      34.717  23.205  13.687  0.00  0.00    +0.151 HD
BRANCH  15  27
ATOM     26  C   UNL     1      33.857  16.637  13.466  0.00  0.00    +0.024 C 
ATOM     27  C   UNL     1      34.178  17.130  14.870  0.00  0.00    +0.104 C 
ENDBRANCH  15  27
ENDBRANCH   1  21
TORSDOF 2
ENDMDL
MODEL 9
REMARK VINA RESULT:      -5.9      3.642      4.598
REMARK  Name = ZINC000329563636
REMARK  3 active torsions:
REMARK  status: ('A' for Active; 'I' for Inactive)
REMARK    1  A    between atoms: C_1  and  C_2
REMARK    2  A    between atoms: C_2  and  N_3
REMARK    3  A    between atoms: N_9  and  C_10
REMARK                            x       y       z     vdW  Elec       q    Type
REMARK                         _______ _______ _______ _____ _____    ______ ____
ROOT
ATOM      1  C   UNL     1      31.960  22.990  14.997  0.00  0.00    +0.112 C 
ATOM      2  C   UNL     1      32.304  21.571  14.529  0.00  0.00    +0.075 C 
ATOM      3  C   UNL     1      32.587  20.569  15.657  0.00  0.00    +0.113 C 
ATOM      4  C   UNL     1      31.326  19.908  16.272  0.00  0.00    +0.048 C 
ATOM      5  C   UNL     1      31.368  18.441  15.862  0.00  0.00    +0.004 C 
ATOM      6  C   UNL     1      32.849  18.137  15.744  0.00  0.00    +0.004 C 
ATOM      7  C   UNL     1      33.396  19.384  15.068  0.00  0.00    +0.048 C 
ATOM      8  O   UNL     1      33.392  21.150  16.702  0.00  0.00    -0.485 OA
ATOM      9  C   UNL     1      32.832  22.277  17.244  0.00  0.00    +0.126 A 
ATOM     10  C   UNL     1      33.018  22.491  18.609  0.00  0.00    +0.046 A 
ATOM     11  C   UNL     1      32.437  23.600  19.228  0.00  0.00    +0.004 A 
ATOM     12  C   UNL     1      31.693  24.505  18.475  0.00  0.00    +0.001 A 
ATOM     13  C   UNL     1      31.537  24.304  17.103  0.00  0.00    +0.009 A 
ATOM     14  C   UNL     1      32.107  23.184  16.476  0.00  0.00    +0.015 A 
ENDROOT
BRANCH   1  21
ATOM     15  N   UNL     1      34.634  28.176  12.574  0.00  0.00    -0.299 N 
ATOM     16  C   UNL     1      33.176  28.111  12.486  0.00  0.00    +0.127 C 
ATOM     17  C   UNL     1      32.705  26.764  11.950  0.00  0.00    +0.129 C 
ATOM     18  N   UNL     1      33.197  25.713  12.829  0.00  0.00    -0.275 N 
ATOM     19  C   UNL     1      32.288  24.904  13.474  0.00  0.00    +0.303 C 
ATOM     20  O   UNL     1      31.073  25.039  13.339  0.00  0.00    -0.253 OA
ATOM     21  N   UNL     1      32.813  23.958  14.303  0.00  0.00    -0.292 N 
ATOM     22  C   UNL     1      34.654  25.690  12.986  0.00  0.00    +0.205 C 
ATOM     23  C   UNL     1      35.386  27.046  12.893  0.00  0.00    +0.233 C 
ATOM     24  O   UNL     1      36.606  27.097  13.067  0.00  0.00    -0.274 OA
ATOM     25  H   UNL     1      33.753  23.641  14.126  0.00  0.00    +0.151 HD
BRANCH  15  27
ATOM     26  C   UNL     1      35.903  29.927  11.363  0.00  0.00    +0.024 C 
ATOM     27  C   UNL     1      35.260  29.490  12.671  0.00  0.00    +0.104 C 
ENDBRANCH  15  27
ENDBRANCH   1  21
TORSDOF 2
ENDMDL
