MODEL 1
REMARK VINA RESULT:      -6.4      0.000      0.000
REMARK  Name = ZINC000870248439
REMARK  2 active torsions:
REMARK  status: ('A' for Active; 'I' for Inactive)
REMARK    1  A    between atoms: C_2  and  C_4
REMARK    2  A    between atoms: C_7  and  C_8
REMARK                            x       y       z     vdW  Elec       q    Type
REMARK                         _______ _______ _______ _____ _____    ______ ____
ROOT
ATOM      1  C   UNL     1      33.627  17.255  14.676  0.00  0.00    +0.247 C 
ATOM      2  O   UNL     1      33.988  16.743  15.736  0.00  0.00    -0.270 OA
ATOM      3  N   UNL     1      33.801  16.640  13.429  0.00  0.00    -0.297 N 
ATOM      4  C   UNL     1      33.381  17.187  12.142  0.00  0.00    +0.108 C 
ATOM      5  C   UNL     1      32.714  16.168  11.241  0.00  0.00    +0.026 C 
ATOM      6  C   UNL     1      33.550  14.887  11.073  0.00  0.00    -0.025 C 
ATOM      7  C   UNL     1      32.671  13.855  10.332  0.00  0.00    +0.017 C 
ATOM      8  C   UNL     1      33.366  12.534  10.027  0.00  0.00    +0.069 C 
ATOM      9  S   UNL     1      34.838  12.748   8.986  0.00  0.00    -0.161 S 
ATOM     10  C   UNL     1      35.702  14.019   9.945  0.00  0.00    +0.069 C 
ATOM     11  C   UNL     1      34.802  15.215  10.219  0.00  0.00    +0.017 C 
ATOM     12  C   UNL     1      33.910  14.373  12.495  0.00  0.00    +0.026 C 
ATOM     13  C   UNL     1      34.606  15.426  13.356  0.00  0.00    +0.108 C 
ENDROOT
BRANCH   1  17
ATOM     14  C   UNL     1      31.589  21.005  14.521  0.00  0.00    +0.037 A 
ATOM     15  C   UNL     1      32.971  20.984  14.705  0.00  0.00    +0.014 A 
ATOM     16  C   UNL     1      33.622  19.768  14.872  0.00  0.00    +0.014 A 
ATOM     17  C   UNL     1      32.921  18.562  14.746  0.00  0.00    +0.037 A 
ATOM     18  C   UNL     1      31.528  18.582  14.629  0.00  0.00    +0.014 A 
ATOM     19  C   UNL     1      30.861  19.807  14.529  0.00  0.00    +0.014 A 
BRANCH  14  21
ATOM     20  N   UNL     1      30.894  23.161  15.397  0.00  0.00    -0.325 N 
ATOM     21  C   UNL     1      30.884  22.294  14.336  0.00  0.00    +0.242 C 
ATOM     22  O   UNL     1      30.344  22.582  13.275  0.00  0.00    -0.270 OA
ATOM     23  H   UNL     1      30.489  24.076  15.217  0.00  0.00    +0.145 HD
ATOM     24  H   UNL     1      31.543  23.077  16.160  0.00  0.00    +0.145 HD
ENDBRANCH  14  21
ENDBRANCH   1  17
TORSDOF 2
ENDMDL
MODEL 2
REMARK VINA RESULT:      -6.3      0.843      1.331
REMARK  Name = ZINC000870248439
REMARK  2 active torsions:
REMARK  status: ('A' for Active; 'I' for Inactive)
REMARK    1  A    between atoms: C_2  and  C_4
REMARK    2  A    between atoms: C_7  and  C_8
REMARK                            x       y       z     vdW  Elec       q    Type
REMARK                         _______ _______ _______ _____ _____    ______ ____
ROOT
ATOM      1  C   UNL     1      33.570  16.709  14.485  0.00  0.00    +0.247 C 
ATOM      2  O   UNL     1      33.890  16.195  15.557  0.00  0.00    -0.270 OA
ATOM      3  N   UNL     1      33.804  16.102  13.244  0.00  0.00    -0.297 N 
ATOM      4  C   UNL     1      33.434  16.652  11.942  0.00  0.00    +0.108 C 
ATOM      5  C   UNL     1      32.818  15.631  11.008  0.00  0.00    +0.026 C 
ATOM      6  C   UNL     1      33.675  14.360  10.870  0.00  0.00    -0.025 C 
ATOM      7  C   UNL     1      32.839  13.322  10.087  0.00  0.00    +0.017 C 
ATOM      8  C   UNL     1      33.562  12.011   9.806  0.00  0.00    +0.069 C 
ATOM      9  S   UNL     1      35.075  12.246   8.831  0.00  0.00    -0.161 S 
ATOM     10  C   UNL     1      35.883  13.521   9.832  0.00  0.00    +0.069 C 
ATOM     11  C   UNL     1      34.959  14.705  10.073  0.00  0.00    +0.017 C 
ATOM     12  C   UNL     1      33.978  13.842  12.304  0.00  0.00    +0.026 C 
ATOM     13  C   UNL     1      34.624  14.898  13.200  0.00  0.00    +0.108 C 
ENDROOT
BRANCH   1  17
ATOM     14  C   UNL     1      31.493  20.409  14.969  0.00  0.00    +0.037 A 
ATOM     15  C   UNL     1      30.775  19.259  14.642  0.00  0.00    +0.014 A 
ATOM     16  C   UNL     1      31.457  18.080  14.369  0.00  0.00    +0.014 A 
ATOM     17  C   UNL     1      32.847  18.008  14.531  0.00  0.00    +0.037 A 
ATOM     18  C   UNL     1      33.573  19.174  14.793  0.00  0.00    +0.014 A 
ATOM     19  C   UNL     1      32.894  20.379  15.000  0.00  0.00    +0.014 A 
BRANCH  14  21
ATOM     20  N   UNL     1      29.665  21.577  16.063  0.00  0.00    -0.325 N 
ATOM     21  C   UNL     1      30.777  21.671  15.267  0.00  0.00    +0.242 C 
ATOM     22  O   UNL     1      31.178  22.749  14.846  0.00  0.00    -0.270 OA
ATOM     23  H   UNL     1      29.246  22.463  16.333  0.00  0.00    +0.145 HD
ATOM     24  H   UNL     1      29.474  20.773  16.635  0.00  0.00    +0.145 HD
ENDBRANCH  14  21
ENDBRANCH   1  17
TORSDOF 2
ENDMDL
MODEL 3
REMARK VINA RESULT:      -6.1      2.280      3.094
REMARK  Name = ZINC000870248439
REMARK  2 active torsions:
REMARK  status: ('A' for Active; 'I' for Inactive)
REMARK    1  A    between atoms: C_2  and  C_4
REMARK    2  A    between atoms: C_7  and  C_8
REMARK                            x       y       z     vdW  Elec       q    Type
REMARK                         _______ _______ _______ _____ _____    ______ ____
ROOT
ATOM      1  C   UNL     1      33.105  18.061  12.835  0.00  0.00    +0.247 C 
ATOM      2  O   UNL     1      33.191  18.454  11.671  0.00  0.00    -0.270 OA
ATOM      3  N   UNL     1      33.545  16.797  13.251  0.00  0.00    -0.297 N 
ATOM      4  C   UNL     1      33.486  16.279  14.615  0.00  0.00    +0.108 C 
ATOM      5  C   UNL     1      34.752  15.568  15.047  0.00  0.00    +0.026 C 
ATOM      6  C   UNL     1      35.198  14.489  14.044  0.00  0.00    -0.025 C 
ATOM      7  C   UNL     1      36.601  14.007  14.478  0.00  0.00    +0.017 C 
ATOM      8  C   UNL     1      37.178  12.888  13.622  0.00  0.00    +0.069 C 
ATOM      9  S   UNL     1      36.136  11.401  13.627  0.00  0.00    -0.161 S 
ATOM     10  C   UNL     1      34.546  12.147  13.181  0.00  0.00    +0.069 C 
ATOM     11  C   UNL     1      34.198  13.306  14.103  0.00  0.00    +0.017 C 
ATOM     12  C   UNL     1      35.262  15.154  12.640  0.00  0.00    +0.026 C 
ATOM     13  C   UNL     1      33.954  15.832  12.237  0.00  0.00    +0.108 C 
ENDROOT
BRANCH   1  17
ATOM     14  C   UNL     1      31.449  20.986  15.469  0.00  0.00    +0.037 A 
ATOM     15  C   UNL     1      32.828  20.956  15.259  0.00  0.00    +0.014 A 
ATOM     16  C   UNL     1      33.382  19.936  14.496  0.00  0.00    +0.014 A 
ATOM     17  C   UNL     1      32.561  19.006  13.846  0.00  0.00    +0.037 A 
ATOM     18  C   UNL     1      31.188  18.994  14.109  0.00  0.00    +0.014 A 
ATOM     19  C   UNL     1      30.634  19.980  14.932  0.00  0.00    +0.014 A 
BRANCH  14  21
ATOM     20  N   UNL     1      30.916  23.338  15.757  0.00  0.00    -0.325 N 
ATOM     21  C   UNL     1      30.844  22.072  16.275  0.00  0.00    +0.242 C 
ATOM     22  O   UNL     1      30.282  21.842  17.338  0.00  0.00    -0.270 OA
ATOM     23  H   UNL     1      30.413  24.052  16.278  0.00  0.00    +0.145 HD
ATOM     24  H   UNL     1      31.117  23.519  14.789  0.00  0.00    +0.145 HD
ENDBRANCH  14  21
ENDBRANCH   1  17
TORSDOF 2
ENDMDL
MODEL 4
REMARK VINA RESULT:      -6.0      5.040      6.231
REMARK  Name = ZINC000870248439
REMARK  2 active torsions:
REMARK  status: ('A' for Active; 'I' for Inactive)
REMARK    1  A    between atoms: C_2  and  C_4
REMARK    2  A    between atoms: C_7  and  C_8
REMARK                            x       y       z     vdW  Elec       q    Type
REMARK                         _______ _______ _______ _____ _____    ______ ____
ROOT
ATOM      1  C   UNL     1      33.007  19.963  12.048  0.00  0.00    +0.247 C 
ATOM      2  O   UNL     1      32.896  18.767  11.778  0.00  0.00    -0.270 OA
ATOM      3  N   UNL     1      33.557  20.900  11.164  0.00  0.00    -0.297 N 
ATOM      4  C   UNL     1      33.702  22.331  11.419  0.00  0.00    +0.108 C 
ATOM      5  C   UNL     1      33.305  23.198  10.241  0.00  0.00    +0.026 C 
ATOM      6  C   UNL     1      33.999  22.777   8.934  0.00  0.00    -0.025 C 
ATOM      7  C   UNL     1      33.346  23.577   7.785  0.00  0.00    +0.017 C 
ATOM      8  C   UNL     1      33.956  23.325   6.412  0.00  0.00    +0.069 C 
ATOM      9  S   UNL     1      35.721  23.745   6.348  0.00  0.00    -0.161 S 
ATOM     10  C   UNL     1      36.306  22.802   7.780  0.00  0.00    +0.069 C 
ATOM     11  C   UNL     1      35.505  23.134   9.029  0.00  0.00    +0.017 C 
ATOM     12  C   UNL     1      33.753  21.253   8.744  0.00  0.00    +0.026 C 
ATOM     13  C   UNL     1      34.196  20.419   9.945  0.00  0.00    +0.108 C 
ENDROOT
BRANCH   1  17
ATOM     14  C   UNL     1      31.469  21.629  15.667  0.00  0.00    +0.037 A 
ATOM     15  C   UNL     1      32.832  21.347  15.568  0.00  0.00    +0.014 A 
ATOM     16  C   UNL     1      33.317  20.699  14.439  0.00  0.00    +0.014 A 
ATOM     17  C   UNL     1      32.472  20.428  13.355  0.00  0.00    +0.037 A 
ATOM     18  C   UNL     1      31.096  20.648  13.480  0.00  0.00    +0.014 A 
ATOM     19  C   UNL     1      30.595  21.239  14.644  0.00  0.00    +0.014 A 
BRANCH  14  21
ATOM     20  N   UNL     1      31.696  23.352  17.364  0.00  0.00    -0.325 N 
ATOM     21  C   UNL     1      30.941  22.324  16.864  0.00  0.00    +0.242 C 
ATOM     22  O   UNL     1      29.866  22.013  17.361  0.00  0.00    -0.270 OA
ATOM     23  H   UNL     1      31.271  23.876  18.124  0.00  0.00    +0.145 HD
ATOM     24  H   UNL     1      32.422  23.801  16.833  0.00  0.00    +0.145 HD
ENDBRANCH  14  21
ENDBRANCH   1  17
TORSDOF 2
ENDMDL
MODEL 5
REMARK VINA RESULT:      -6.0      1.931      2.493
REMARK  Name = ZINC000870248439
REMARK  2 active torsions:
REMARK  status: ('A' for Active; 'I' for Inactive)
REMARK    1  A    between atoms: C_2  and  C_4
REMARK    2  A    between atoms: C_7  and  C_8
REMARK                            x       y       z     vdW  Elec       q    Type
REMARK                         _______ _______ _______ _____ _____    ______ ____
ROOT
ATOM      1  C   UNL     1      33.102  19.004  11.938  0.00  0.00    +0.247 C 
ATOM      2  O   UNL     1      33.506  19.749  11.046  0.00  0.00    -0.270 OA
ATOM      3  N   UNL     1      33.226  17.609  11.886  0.00  0.00    -0.297 N 
ATOM      4  C   UNL     1      32.783  16.673  12.917  0.00  0.00    +0.108 C 
ATOM      5  C   UNL     1      33.788  15.580  13.213  0.00  0.00    +0.026 C 
ATOM      6  C   UNL     1      34.263  14.850  11.944  0.00  0.00    -0.025 C 
ATOM      7  C   UNL     1      35.437  13.931  12.351  0.00  0.00    +0.017 C 
ATOM      8  C   UNL     1      35.998  13.082  11.218  0.00  0.00    +0.069 C 
ATOM      9  S   UNL     1      34.751  11.978  10.494  0.00  0.00    -0.161 S 
ATOM     10  C   UNL     1      33.444  13.185  10.152  0.00  0.00    +0.069 C 
ATOM     11  C   UNL     1      33.095  13.992  11.393  0.00  0.00    +0.017 C 
ATOM     12  C   UNL     1      34.744  15.931  10.935  0.00  0.00    +0.026 C 
ATOM     13  C   UNL     1      33.686  16.995  10.646  0.00  0.00    +0.108 C 
ENDROOT
BRANCH   1  17
ATOM     14  C   UNL     1      31.409  21.118  15.240  0.00  0.00    +0.037 A 
ATOM     15  C   UNL     1      32.773  20.829  15.239  0.00  0.00    +0.014 A 
ATOM     16  C   UNL     1      33.306  20.042  14.226  0.00  0.00    +0.014 A 
ATOM     17  C   UNL     1      32.510  19.632  13.148  0.00  0.00    +0.037 A 
ATOM     18  C   UNL     1      31.131  19.864  13.182  0.00  0.00    +0.014 A 
ATOM     19  C   UNL     1      30.580  20.598  14.236  0.00  0.00    +0.014 A 
BRANCH  14  21
ATOM     20  N   UNL     1      30.886  23.317  16.128  0.00  0.00    -0.325 N 
ATOM     21  C   UNL     1      30.829  21.961  16.311  0.00  0.00    +0.242 C 
ATOM     22  O   UNL     1      30.298  21.466  17.297  0.00  0.00    -0.270 OA
ATOM     23  H   UNL     1      30.399  23.873  16.827  0.00  0.00    +0.145 HD
ATOM     24  H   UNL     1      31.059  23.738  15.231  0.00  0.00    +0.145 HD
ENDBRANCH  14  21
ENDBRANCH   1  17
TORSDOF 2
ENDMDL
MODEL 6
REMARK VINA RESULT:      -6.0      3.099      4.618
REMARK  Name = ZINC000870248439
REMARK  2 active torsions:
REMARK  status: ('A' for Active; 'I' for Inactive)
REMARK    1  A    between atoms: C_2  and  C_4
REMARK    2  A    between atoms: C_7  and  C_8
REMARK                            x       y       z     vdW  Elec       q    Type
REMARK                         _______ _______ _______ _____ _____    ______ ____
ROOT
ATOM      1  C   UNL     1      32.191  21.741  13.893  0.00  0.00    +0.247 C 
ATOM      2  O   UNL     1      31.779  22.452  12.976  0.00  0.00    -0.270 OA
ATOM      3  N   UNL     1      32.351  20.354  13.775  0.00  0.00    -0.297 N 
ATOM      4  C   UNL     1      32.849  19.461  14.817  0.00  0.00    +0.108 C 
ATOM      5  C   UNL     1      33.848  18.440  14.312  0.00  0.00    +0.026 C 
ATOM      6  C   UNL     1      33.334  17.661  13.089  0.00  0.00    -0.025 C 
ATOM      7  C   UNL     1      34.516  16.831  12.540  0.00  0.00    +0.017 C 
ATOM      8  C   UNL     1      34.169  15.945  11.351  0.00  0.00    +0.069 C 
ATOM      9  S   UNL     1      32.871  14.737  11.740  0.00  0.00    -0.161 S 
ATOM     10  C   UNL     1      31.619  15.851  12.428  0.00  0.00    +0.069 C 
ATOM     11  C   UNL     1      32.195  16.712  13.542  0.00  0.00    +0.017 C 
ATOM     12  C   UNL     1      32.867  18.703  12.034  0.00  0.00    +0.026 C 
ATOM     13  C   UNL     1      31.838  19.691  12.581  0.00  0.00    +0.108 C 
ENDROOT
BRANCH   1  17
ATOM     14  C   UNL     1      33.153  23.946  17.421  0.00  0.00    +0.037 A 
ATOM     15  C   UNL     1      34.087  23.866  16.388  0.00  0.00    +0.014 A 
ATOM     16  C   UNL     1      33.826  23.055  15.291  0.00  0.00    +0.014 A 
ATOM     17  C   UNL     1      32.589  22.410  15.159  0.00  0.00    +0.037 A 
ATOM     18  C   UNL     1      31.681  22.436  16.222  0.00  0.00    +0.014 A 
ATOM     19  C   UNL     1      31.970  23.196  17.360  0.00  0.00    +0.014 A 
BRANCH  14  21
ATOM     20  N   UNL     1      32.492  25.786  18.863  0.00  0.00    -0.325 N 
ATOM     21  C   UNL     1      33.417  24.811  18.595  0.00  0.00    +0.242 C 
ATOM     22  O   UNL     1      34.399  24.642  19.306  0.00  0.00    -0.270 OA
ATOM     23  H   UNL     1      32.641  26.304  19.725  0.00  0.00    +0.145 HD
ATOM     24  H   UNL     1      31.563  25.774  18.478  0.00  0.00    +0.145 HD
ENDBRANCH  14  21
ENDBRANCH   1  17
TORSDOF 2
ENDMDL
MODEL 7
REMARK VINA RESULT:      -5.9      2.413      3.068
REMARK  Name = ZINC000870248439
REMARK  2 active torsions:
REMARK  status: ('A' for Active; 'I' for Inactive)
REMARK    1  A    between atoms: C_2  and  C_4
REMARK    2  A    between atoms: C_7  and  C_8
REMARK                            x       y       z     vdW  Elec       q    Type
REMARK                         _______ _______ _______ _____ _____    ______ ____
ROOT
ATOM      1  C   UNL     1      32.122  17.601  12.804  0.00  0.00    +0.247 C 
ATOM      2  O   UNL     1      31.369  16.638  12.950  0.00  0.00    -0.270 OA
ATOM      3  N   UNL     1      33.201  17.602  11.909  0.00  0.00    -0.297 N 
ATOM      4  C   UNL     1      34.119  18.714  11.680  0.00  0.00    +0.108 C 
ATOM      5  C   UNL     1      34.419  18.958  10.215  0.00  0.00    +0.026 C 
ATOM      6  C   UNL     1      34.872  17.683   9.483  0.00  0.00    -0.025 C 
ATOM      7  C   UNL     1      34.923  18.010   7.973  0.00  0.00    +0.017 C 
ATOM      8  C   UNL     1      35.412  16.867   7.094  0.00  0.00    +0.069 C 
ATOM      9  S   UNL     1      37.090  16.326   7.526  0.00  0.00    -0.161 S 
ATOM     10  C   UNL     1      36.872  16.062   9.306  0.00  0.00    +0.069 C 
ATOM     11  C   UNL     1      36.288  17.294   9.981  0.00  0.00    +0.017 C 
ATOM     12  C   UNL     1      33.811  16.581   9.763  0.00  0.00    +0.026 C 
ATOM     13  C   UNL     1      33.564  16.351  11.253  0.00  0.00    +0.108 C 
ENDROOT
BRANCH   1  17
ATOM     14  C   UNL     1      31.057  20.946  15.235  0.00  0.00    +0.037 A 
ATOM     15  C   UNL     1      30.414  20.757  14.011  0.00  0.00    +0.014 A 
ATOM     16  C   UNL     1      30.838  19.740  13.166  0.00  0.00    +0.014 A 
ATOM     17  C   UNL     1      31.824  18.835  13.579  0.00  0.00    +0.037 A 
ATOM     18  C   UNL     1      32.514  19.063  14.774  0.00  0.00    +0.014 A 
ATOM     19  C   UNL     1      32.136  20.129  15.597  0.00  0.00    +0.014 A 
BRANCH  14  21
ATOM     20  N   UNL     1      30.711  23.309  15.681  0.00  0.00    -0.325 N 
ATOM     21  C   UNL     1      30.611  22.024  16.148  0.00  0.00    +0.242 C 
ATOM     22  O   UNL     1      30.148  21.776  17.254  0.00  0.00    -0.270 OA
ATOM     23  H   UNL     1      30.313  24.025  16.283  0.00  0.00    +0.145 HD
ATOM     24  H   UNL     1      30.822  23.525  14.706  0.00  0.00    +0.145 HD
ENDBRANCH  14  21
ENDBRANCH   1  17
TORSDOF 2
ENDMDL
MODEL 8
REMARK VINA RESULT:      -5.9      3.821      8.005
REMARK  Name = ZINC000870248439
REMARK  2 active torsions:
REMARK  status: ('A' for Active; 'I' for Inactive)
REMARK    1  A    between atoms: C_2  and  C_4
REMARK    2  A    between atoms: C_7  and  C_8
REMARK                            x       y       z     vdW  Elec       q    Type
REMARK                         _______ _______ _______ _____ _____    ______ ____
ROOT
ATOM      1  C   UNL     1      34.113  17.370  11.040  0.00  0.00    +0.247 C 
ATOM      2  O   UNL     1      34.809  17.856  10.148  0.00  0.00    -0.270 OA
ATOM      3  N   UNL     1      33.525  18.135  12.056  0.00  0.00    -0.297 N 
ATOM      4  C   UNL     1      32.679  17.621  13.130  0.00  0.00    +0.108 C 
ATOM      5  C   UNL     1      31.451  18.470  13.390  0.00  0.00    +0.026 C 
ATOM      6  C   UNL     1      31.790  19.957  13.591  0.00  0.00    -0.025 C 
ATOM      7  C   UNL     1      30.455  20.736  13.617  0.00  0.00    +0.017 C 
ATOM      8  C   UNL     1      30.601  22.231  13.868  0.00  0.00    +0.069 C 
ATOM      9  S   UNL     1      31.401  22.596  15.455  0.00  0.00    -0.161 S 
ATOM     10  C   UNL     1      32.882  21.564  15.289  0.00  0.00    +0.069 C 
ATOM     11  C   UNL     1      32.520  20.126  14.948  0.00  0.00    +0.017 C 
ATOM     12  C   UNL     1      32.657  20.407  12.381  0.00  0.00    +0.026 C 
ATOM     13  C   UNL     1      33.898  19.539  12.177  0.00  0.00    +0.108 C 
ENDROOT
BRANCH   1  17
ATOM     14  C   UNL     1      33.507  13.168  10.575  0.00  0.00    +0.037 A 
ATOM     15  C   UNL     1      32.471  14.048  10.261  0.00  0.00    +0.014 A 
ATOM     16  C   UNL     1      32.622  15.404  10.521  0.00  0.00    +0.014 A 
ATOM     17  C   UNL     1      33.843  15.909  10.987  0.00  0.00    +0.037 A 
ATOM     18  C   UNL     1      34.858  15.022  11.363  0.00  0.00    +0.014 A 
ATOM     19  C   UNL     1      34.682  13.649  11.167  0.00  0.00    +0.014 A 
BRANCH  14  21
ATOM     20  N   UNL     1      33.173  11.358   8.990  0.00  0.00    -0.325 N 
ATOM     21  C   UNL     1      33.360  11.720  10.298  0.00  0.00    +0.242 C 
ATOM     22  O   UNL     1      33.432  10.887  11.193  0.00  0.00    -0.270 OA
ATOM     23  H   UNL     1      33.171  10.357   8.810  0.00  0.00    +0.145 HD
ATOM     24  H   UNL     1      33.381  11.972   8.221  0.00  0.00    +0.145 HD
ENDBRANCH  14  21
ENDBRANCH   1  17
TORSDOF 2
ENDMDL
MODEL 9
REMARK VINA RESULT:      -5.9      4.508      8.653
REMARK  Name = ZINC000870248439
REMARK  2 active torsions:
REMARK  status: ('A' for Active; 'I' for Inactive)
REMARK    1  A    between atoms: C_2  and  C_4
REMARK    2  A    between atoms: C_7  and  C_8
REMARK                            x       y       z     vdW  Elec       q    Type
REMARK                         _______ _______ _______ _____ _____    ______ ____
ROOT
ATOM      1  C   UNL     1      31.292  21.168  14.746  0.00  0.00    +0.247 C 
ATOM      2  O   UNL     1      30.102  21.466  14.853  0.00  0.00    -0.270 OA
ATOM      3  N   UNL     1      32.324  21.909  15.336  0.00  0.00    -0.297 N 
ATOM      4  C   UNL     1      33.749  21.599  15.260  0.00  0.00    +0.108 C 
ATOM      5  C   UNL     1      34.471  21.745  16.585  0.00  0.00    +0.026 C 
ATOM      6  C   UNL     1      34.217  23.109  17.251  0.00  0.00    -0.025 C 
ATOM      7  C   UNL     1      34.811  23.044  18.677  0.00  0.00    +0.017 C 
ATOM      8  C   UNL     1      34.699  24.340  19.468  0.00  0.00    +0.069 C 
ATOM      9  S   UNL     1      35.546  25.726  18.656  0.00  0.00    -0.161 S 
ATOM     10  C   UNL     1      34.800  25.610  17.009  0.00  0.00    +0.069 C 
ATOM     11  C   UNL     1      34.941  24.209  16.434  0.00  0.00    +0.017 C 
ATOM     12  C   UNL     1      32.678  23.320  17.313  0.00  0.00    +0.026 C 
ATOM     13  C   UNL     1      31.999  23.191  15.951  0.00  0.00    +0.108 C 
ENDROOT
BRANCH   1  17
ATOM     14  C   UNL     1      32.547  17.572  12.815  0.00  0.00    +0.037 A 
ATOM     15  C   UNL     1      32.814  18.802  12.212  0.00  0.00    +0.014 A 
ATOM     16  C   UNL     1      32.307  19.965  12.777  0.00  0.00    +0.014 A 
ATOM     17  C   UNL     1      31.628  19.926  14.002  0.00  0.00    +0.037 A 
ATOM     18  C   UNL     1      31.303  18.690  14.571  0.00  0.00    +0.014 A 
ATOM     19  C   UNL     1      31.754  17.512  13.968  0.00  0.00    +0.014 A 
BRANCH  14  21
ATOM     20  N   UNL     1      32.182  15.474  11.647  0.00  0.00    -0.325 N 
ATOM     21  C   UNL     1      33.087  16.325  12.225  0.00  0.00    +0.242 C 
ATOM     22  O   UNL     1      34.287  16.082  12.230  0.00  0.00    -0.270 OA
ATOM     23  H   UNL     1      32.582  14.672  11.166  0.00  0.00    +0.145 HD
ATOM     24  H   UNL     1      31.254  15.762  11.387  0.00  0.00    +0.145 HD
ENDBRANCH  14  21
ENDBRANCH   1  17
TORSDOF 2
ENDMDL
