MODEL 1
REMARK VINA RESULT:      -8.1      0.000      0.000
REMARK  Name = ZINC000329563636
REMARK  3 active torsions:
REMARK  status: ('A' for Active; 'I' for Inactive)
REMARK    1  A    between atoms: C_1  and  C_2
REMARK    2  A    between atoms: C_2  and  N_3
REMARK    3  A    between atoms: N_9  and  C_10
REMARK                            x       y       z     vdW  Elec       q    Type
REMARK                         _______ _______ _______ _____ _____    ______ ____
ROOT
ATOM      1  C   UNL     1      30.082  23.552  14.931  0.00  0.00    +0.112 C 
ATOM      2  C   UNL     1      28.990  22.481  14.857  0.00  0.00    +0.075 C 
ATOM      3  C   UNL     1      28.677  21.780  16.188  0.00  0.00    +0.113 C 
ATOM      4  C   UNL     1      27.670  22.530  17.097  0.00  0.00    +0.048 C 
ATOM      5  C   UNL     1      26.404  21.682  17.125  0.00  0.00    +0.004 C 
ATOM      6  C   UNL     1      26.905  20.265  16.930  0.00  0.00    +0.004 C 
ATOM      7  C   UNL     1      27.985  20.429  15.875  0.00  0.00    +0.048 C 
ATOM      8  O   UNL     1      29.875  21.482  16.930  0.00  0.00    -0.485 OA
ATOM      9  C   UNL     1      30.637  22.591  17.187  0.00  0.00    +0.126 A 
ATOM     10  C   UNL     1      31.309  22.642  18.407  0.00  0.00    +0.046 A 
ATOM     11  C   UNL     1      32.067  23.766  18.739  0.00  0.00    +0.004 A 
ATOM     12  C   UNL     1      32.170  24.828  17.844  0.00  0.00    +0.001 A 
ATOM     13  C   UNL     1      31.522  24.759  16.611  0.00  0.00    +0.009 A 
ATOM     14  C   UNL     1      30.748  23.636  16.274  0.00  0.00    +0.015 A 
ENDROOT
BRANCH   1  21
ATOM     15  N   UNL     1      34.541  23.992  10.511  0.00  0.00    -0.299 N 
ATOM     16  C   UNL     1      33.389  24.868  10.302  0.00  0.00    +0.127 C 
ATOM     17  C   UNL     1      32.064  24.131  10.476  0.00  0.00    +0.129 C 
ATOM     18  N   UNL     1      32.035  23.517  11.796  0.00  0.00    -0.275 N 
ATOM     19  C   UNL     1      31.044  23.877  12.680  0.00  0.00    +0.303 C 
ATOM     20  O   UNL     1      30.172  24.697  12.398  0.00  0.00    -0.253 OA
ATOM     21  N   UNL     1      31.100  23.294  13.913  0.00  0.00    -0.292 N 
ATOM     22  C   UNL     1      33.138  22.589  12.056  0.00  0.00    +0.205 C 
ATOM     23  C   UNL     1      34.463  22.857  11.311  0.00  0.00    +0.233 C 
ATOM     24  O   UNL     1      35.413  22.083  11.447  0.00  0.00    -0.274 OA
ATOM     25  H   UNL     1      31.566  22.406  13.995  0.00  0.00    +0.151 HD
BRANCH  15  27
ATOM     26  C   UNL     1      35.976  23.997   8.502  0.00  0.00    +0.024 C 
ATOM     27  C   UNL     1      35.828  24.400   9.959  0.00  0.00    +0.104 C 
ENDBRANCH  15  27
ENDBRANCH   1  21
TORSDOF 2
ENDMDL
MODEL 2
REMARK VINA RESULT:      -7.9      3.293      7.437
REMARK  Name = ZINC000329563636
REMARK  3 active torsions:
REMARK  status: ('A' for Active; 'I' for Inactive)
REMARK    1  A    between atoms: C_1  and  C_2
REMARK    2  A    between atoms: C_2  and  N_3
REMARK    3  A    between atoms: N_9  and  C_10
REMARK                            x       y       z     vdW  Elec       q    Type
REMARK                         _______ _______ _______ _____ _____    ______ ____
ROOT
ATOM      1  C   UNL     1      30.716  23.923  16.395  0.00  0.00    +0.112 C 
ATOM      2  C   UNL     1      31.412  24.347  15.098  0.00  0.00    +0.075 C 
ATOM      3  C   UNL     1      30.804  23.761  13.814  0.00  0.00    +0.113 C 
ATOM      4  C   UNL     1      29.595  24.550  13.248  0.00  0.00    +0.048 C 
ATOM      5  C   UNL     1      30.066  25.173  11.939  0.00  0.00    +0.004 C 
ATOM      6  C   UNL     1      31.120  24.210  11.430  0.00  0.00    +0.004 C 
ATOM      7  C   UNL     1      31.872  23.831  12.694  0.00  0.00    +0.048 C 
ATOM      8  O   UNL     1      30.448  22.375  13.975  0.00  0.00    -0.485 OA
ATOM      9  C   UNL     1      29.576  22.161  15.010  0.00  0.00    +0.126 A 
ATOM     10  C   UNL     1      28.614  21.166  14.847  0.00  0.00    +0.046 A 
ATOM     11  C   UNL     1      27.674  20.932  15.853  0.00  0.00    +0.004 A 
ATOM     12  C   UNL     1      27.710  21.678  17.028  0.00  0.00    +0.001 A 
ATOM     13  C   UNL     1      28.695  22.651  17.200  0.00  0.00    +0.009 A 
ATOM     14  C   UNL     1      29.637  22.900  16.188  0.00  0.00    +0.015 A 
ENDROOT
BRANCH   1  21
ATOM     15  N   UNL     1      34.055  22.334  21.487  0.00  0.00    -0.299 N 
ATOM     16  C   UNL     1      33.675  23.745  21.426  0.00  0.00    +0.127 C 
ATOM     17  C   UNL     1      33.957  24.359  20.058  0.00  0.00    +0.129 C 
ATOM     18  N   UNL     1      33.273  23.577  19.038  0.00  0.00    -0.275 N 
ATOM     19  C   UNL     1      32.334  24.190  18.241  0.00  0.00    +0.303 C 
ATOM     20  O   UNL     1      32.050  25.382  18.352  0.00  0.00    -0.253 OA
ATOM     21  N   UNL     1      31.702  23.389  17.334  0.00  0.00    -0.292 N 
ATOM     22  C   UNL     1      33.644  22.159  19.013  0.00  0.00    +0.205 C 
ATOM     23  C   UNL     1      34.100  21.536  20.349  0.00  0.00    +0.233 C 
ATOM     24  O   UNL     1      34.474  20.362  20.384  0.00  0.00    -0.274 OA
ATOM     25  H   UNL     1      32.179  22.560  17.023  0.00  0.00    +0.151 HD
BRANCH  15  27
ATOM     26  C   UNL     1      33.661  22.564  23.914  0.00  0.00    +0.024 C 
ATOM     27  C   UNL     1      34.273  21.734  22.799  0.00  0.00    +0.104 C 
ENDBRANCH  15  27
ENDBRANCH   1  21
TORSDOF 2
ENDMDL
MODEL 3
REMARK VINA RESULT:      -7.8      3.417      7.154
REMARK  Name = ZINC000329563636
REMARK  3 active torsions:
REMARK  status: ('A' for Active; 'I' for Inactive)
REMARK    1  A    between atoms: C_1  and  C_2
REMARK    2  A    between atoms: C_2  and  N_3
REMARK    3  A    between atoms: N_9  and  C_10
REMARK                            x       y       z     vdW  Elec       q    Type
REMARK                         _______ _______ _______ _____ _____    ______ ____
ROOT
ATOM      1  C   UNL     1      31.129  23.623  16.254  0.00  0.00    +0.112 C 
ATOM      2  C   UNL     1      31.666  24.202  14.942  0.00  0.00    +0.075 C 
ATOM      3  C   UNL     1      30.890  23.785  13.683  0.00  0.00    +0.113 C 
ATOM      4  C   UNL     1      29.638  24.646  13.376  0.00  0.00    +0.048 C 
ATOM      5  C   UNL     1      29.955  25.426  12.105  0.00  0.00    +0.004 C 
ATOM      6  C   UNL     1      30.916  24.529  11.352  0.00  0.00    +0.004 C 
ATOM      7  C   UNL     1      31.812  23.989  12.454  0.00  0.00    +0.048 C 
ATOM      8  O   UNL     1      30.527  22.392  13.715  0.00  0.00    -0.485 OA
ATOM      9  C   UNL     1      29.787  22.055  14.817  0.00  0.00    +0.126 A 
ATOM     10  C   UNL     1      28.790  21.094  14.656  0.00  0.00    +0.046 A 
ATOM     11  C   UNL     1      27.979  20.742  15.735  0.00  0.00    +0.004 A 
ATOM     12  C   UNL     1      28.178  21.334  16.980  0.00  0.00    +0.001 A 
ATOM     13  C   UNL     1      29.197  22.272  17.145  0.00  0.00    +0.009 A 
ATOM     14  C   UNL     1      30.011  22.640  16.061  0.00  0.00    +0.015 A 
ENDROOT
BRANCH   1  21
ATOM     15  N   UNL     1      34.765  20.850  20.578  0.00  0.00    -0.299 N 
ATOM     16  C   UNL     1      34.090  22.063  21.039  0.00  0.00    +0.127 C 
ATOM     17  C   UNL     1      34.224  23.211  20.043  0.00  0.00    +0.129 C 
ATOM     18  N   UNL     1      33.718  22.777  18.749  0.00  0.00    -0.275 N 
ATOM     19  C   UNL     1      32.664  23.455  18.181  0.00  0.00    +0.303 C 
ATOM     20  O   UNL     1      32.131  24.422  18.723  0.00  0.00    -0.253 OA
ATOM     21  N   UNL     1      32.213  22.969  16.988  0.00  0.00    -0.292 N 
ATOM     22  C   UNL     1      34.384  21.591  18.206  0.00  0.00    +0.205 C 
ATOM     23  C   UNL     1      34.972  20.594  19.227  0.00  0.00    +0.233 C 
ATOM     24  O   UNL     1      35.590  19.602  18.833  0.00  0.00    -0.274 OA
ATOM     25  H   UNL     1      32.855  22.445  16.417  0.00  0.00    +0.151 HD
BRANCH  15  27
ATOM     26  C   UNL     1      33.945  18.922  21.885  0.00  0.00    +0.024 C 
ATOM     27  C   UNL     1      35.115  19.836  21.567  0.00  0.00    +0.104 C 
ENDBRANCH  15  27
ENDBRANCH   1  21
TORSDOF 2
ENDMDL
MODEL 4
REMARK VINA RESULT:      -6.7      3.541      6.051
REMARK  Name = ZINC000329563636
REMARK  3 active torsions:
REMARK  status: ('A' for Active; 'I' for Inactive)
REMARK    1  A    between atoms: C_1  and  C_2
REMARK    2  A    between atoms: C_2  and  N_3
REMARK    3  A    between atoms: N_9  and  C_10
REMARK                            x       y       z     vdW  Elec       q    Type
REMARK                         _______ _______ _______ _____ _____    ______ ____
ROOT
ATOM      1  C   UNL     1      31.553  22.642  16.610  0.00  0.00    +0.112 C 
ATOM      2  C   UNL     1      30.246  22.301  17.333  0.00  0.00    +0.075 C 
ATOM      3  C   UNL     1      28.975  22.465  16.485  0.00  0.00    +0.113 C 
ATOM      4  C   UNL     1      28.625  21.245  15.594  0.00  0.00    +0.048 C 
ATOM      5  C   UNL     1      27.351  20.642  16.174  0.00  0.00    +0.004 C 
ATOM      6  C   UNL     1      26.635  21.823  16.798  0.00  0.00    +0.004 C 
ATOM      7  C   UNL     1      27.765  22.604  17.444  0.00  0.00    +0.048 C 
ATOM      8  O   UNL     1      29.018  23.659  15.681  0.00  0.00    -0.485 OA
ATOM      9  C   UNL     1      30.107  23.709  14.852  0.00  0.00    +0.126 A 
ATOM     10  C   UNL     1      29.935  24.290  13.597  0.00  0.00    +0.046 A 
ATOM     11  C   UNL     1      31.000  24.331  12.695  0.00  0.00    +0.004 A 
ATOM     12  C   UNL     1      32.240  23.810  13.056  0.00  0.00    +0.001 A 
ATOM     13  C   UNL     1      32.417  23.259  14.325  0.00  0.00    +0.009 A 
ATOM     14  C   UNL     1      31.347  23.204  15.234  0.00  0.00    +0.015 A 
ENDROOT
BRANCH   1  21
ATOM     15  N   UNL     1      35.853  26.665  18.830  0.00  0.00    -0.299 N 
ATOM     16  C   UNL     1      36.402  25.408  18.322  0.00  0.00    +0.127 C 
ATOM     17  C   UNL     1      35.641  24.194  18.845  0.00  0.00    +0.129 C 
ATOM     18  N   UNL     1      34.232  24.337  18.506  0.00  0.00    -0.275 N 
ATOM     19  C   UNL     1      33.633  23.382  17.716  0.00  0.00    +0.303 C 
ATOM     20  O   UNL     1      34.241  22.404  17.285  0.00  0.00    -0.253 OA
ATOM     21  N   UNL     1      32.322  23.600  17.404  0.00  0.00    -0.292 N 
ATOM     22  C   UNL     1      33.605  25.555  19.026  0.00  0.00    +0.205 C 
ATOM     23  C   UNL     1      34.524  26.779  19.224  0.00  0.00    +0.233 C 
ATOM     24  O   UNL     1      34.069  27.818  19.706  0.00  0.00    -0.274 OA
ATOM     25  H   UNL     1      31.775  24.169  18.028  0.00  0.00    +0.151 HD
BRANCH  15  27
ATOM     26  C   UNL     1      36.746  28.488  17.423  0.00  0.00    +0.024 C 
ATOM     27  C   UNL     1      36.702  27.851  18.801  0.00  0.00    +0.104 C 
ENDBRANCH  15  27
ENDBRANCH   1  21
TORSDOF 2
ENDMDL
MODEL 5
REMARK VINA RESULT:      -6.7      3.517      4.925
REMARK  Name = ZINC000329563636
REMARK  3 active torsions:
REMARK  status: ('A' for Active; 'I' for Inactive)
REMARK    1  A    between atoms: C_1  and  C_2
REMARK    2  A    between atoms: C_2  and  N_3
REMARK    3  A    between atoms: N_9  and  C_10
REMARK                            x       y       z     vdW  Elec       q    Type
REMARK                         _______ _______ _______ _____ _____    ______ ____
ROOT
ATOM      1  C   UNL     1      32.346  22.995  14.540  0.00  0.00    +0.112 C 
ATOM      2  C   UNL     1      31.565  22.555  15.783  0.00  0.00    +0.075 C 
ATOM      3  C   UNL     1      30.052  22.816  15.723  0.00  0.00    +0.113 C 
ATOM      4  C   UNL     1      29.230  21.716  15.002  0.00  0.00    +0.048 C 
ATOM      5  C   UNL     1      28.391  21.034  16.076  0.00  0.00    +0.004 C 
ATOM      6  C   UNL     1      28.157  22.121  17.106  0.00  0.00    +0.004 C 
ATOM      7  C   UNL     1      29.502  22.822  17.172  0.00  0.00    +0.048 C 
ATOM      8  O   UNL     1      29.753  24.102  15.150  0.00  0.00    -0.485 OA
ATOM      9  C   UNL     1      30.274  24.265  13.894  0.00  0.00    +0.126 A 
ATOM     10  C   UNL     1      29.526  24.999  12.975  0.00  0.00    +0.046 A 
ATOM     11  C   UNL     1      29.991  25.163  11.669  0.00  0.00    +0.004 A 
ATOM     12  C   UNL     1      31.211  24.610  11.288  0.00  0.00    +0.001 A 
ATOM     13  C   UNL     1      31.972  23.903  12.220  0.00  0.00    +0.009 A 
ATOM     14  C   UNL     1      31.506  23.725  13.533  0.00  0.00    +0.015 A 
ENDROOT
BRANCH   1  21
ATOM     15  N   UNL     1      37.600  26.450  14.767  0.00  0.00    -0.299 N 
ATOM     16  C   UNL     1      37.765  25.133  14.153  0.00  0.00    +0.127 C 
ATOM     17  C   UNL     1      37.126  24.025  14.984  0.00  0.00    +0.129 C 
ATOM     18  N   UNL     1      35.721  24.344  15.197  0.00  0.00    -0.275 N 
ATOM     19  C   UNL     1      34.760  23.470  14.740  0.00  0.00    +0.303 C 
ATOM     20  O   UNL     1      35.041  22.422  14.161  0.00  0.00    -0.253 OA
ATOM     21  N   UNL     1      33.464  23.851  14.935  0.00  0.00    -0.292 N 
ATOM     22  C   UNL     1      35.485  25.632  15.853  0.00  0.00    +0.205 C 
ATOM     23  C   UNL     1      36.545  26.731  15.628  0.00  0.00    +0.233 C 
ATOM     24  O   UNL     1      36.431  27.821  16.193  0.00  0.00    -0.274 OA
ATOM     25  H   UNL     1      33.266  24.485  15.691  0.00  0.00    +0.151 HD
BRANCH  15  27
ATOM     26  C   UNL     1      38.375  27.846  12.883  0.00  0.00    +0.024 C 
ATOM     27  C   UNL     1      38.505  27.520  14.360  0.00  0.00    +0.104 C 
ENDBRANCH  15  27
ENDBRANCH   1  21
TORSDOF 2
ENDMDL
MODEL 6
REMARK VINA RESULT:      -6.6     22.107     24.207
REMARK  Name = ZINC000329563636
REMARK  3 active torsions:
REMARK  status: ('A' for Active; 'I' for Inactive)
REMARK    1  A    between atoms: C_1  and  C_2
REMARK    2  A    between atoms: C_2  and  N_3
REMARK    3  A    between atoms: N_9  and  C_10
REMARK                            x       y       z     vdW  Elec       q    Type
REMARK                         _______ _______ _______ _____ _____    ______ ____
ROOT
ATOM      1  C   UNL     1      10.099  29.734   6.987  0.00  0.00    +0.112 C 
ATOM      2  C   UNL     1       9.521  28.835   8.085  0.00  0.00    +0.075 C 
ATOM      3  C   UNL     1      10.565  28.073   8.915  0.00  0.00    +0.113 C 
ATOM      4  C   UNL     1      11.169  28.875  10.097  0.00  0.00    +0.048 C 
ATOM      5  C   UNL     1      10.657  28.212  11.371  0.00  0.00    +0.004 C 
ATOM      6  C   UNL     1      10.461  26.761  10.978  0.00  0.00    +0.004 C 
ATOM      7  C   UNL     1       9.864  26.863   9.585  0.00  0.00    +0.048 C 
ATOM      8  O   UNL     1      11.623  27.547   8.092  0.00  0.00    -0.485 OA
ATOM      9  C   UNL     1      12.265  28.513   7.361  0.00  0.00    +0.126 A 
ATOM     10  C   UNL     1      13.636  28.364   7.160  0.00  0.00    +0.046 A 
ATOM     11  C   UNL     1      14.347  29.337   6.458  0.00  0.00    +0.004 A 
ATOM     12  C   UNL     1      13.685  30.448   5.940  0.00  0.00    +0.001 A 
ATOM     13  C   UNL     1      12.308  30.577   6.117  0.00  0.00    +0.009 A 
ATOM     14  C   UNL     1      11.586  29.607   6.832  0.00  0.00    +0.015 A 
ENDROOT
BRANCH   1  21
ATOM     15  N   UNL     1       8.008  29.747   1.051  0.00  0.00    -0.299 N 
ATOM     16  C   UNL     1       7.830  31.013   1.761  0.00  0.00    +0.127 C 
ATOM     17  C   UNL     1       7.231  30.816   3.151  0.00  0.00    +0.129 C 
ATOM     18  N   UNL     1       8.073  29.896   3.902  0.00  0.00    -0.275 N 
ATOM     19  C   UNL     1       8.650  30.324   5.076  0.00  0.00    +0.303 C 
ATOM     20  O   UNL     1       8.479  31.457   5.523  0.00  0.00    -0.253 OA
ATOM     21  N   UNL     1       9.460  29.425   5.708  0.00  0.00    -0.292 N 
ATOM     22  C   UNL     1       8.256  28.588   3.269  0.00  0.00    +0.205 C 
ATOM     23  C   UNL     1       8.173  28.543   1.728  0.00  0.00    +0.233 C 
ATOM     24  O   UNL     1       8.267  27.465   1.138  0.00  0.00    -0.274 OA
ATOM     25  H   UNL     1       9.303  28.445   5.538  0.00  0.00    +0.151 HD
BRANCH  15  27
ATOM     26  C   UNL     1       7.356  30.933  -1.014  0.00  0.00    +0.024 C 
ATOM     27  C   UNL     1       8.135  29.782  -0.402  0.00  0.00    +0.104 C 
ENDBRANCH  15  27
ENDBRANCH   1  21
TORSDOF 2
ENDMDL
MODEL 7
REMARK VINA RESULT:      -6.5     11.302     15.203
REMARK  Name = ZINC000329563636
REMARK  3 active torsions:
REMARK  status: ('A' for Active; 'I' for Inactive)
REMARK    1  A    between atoms: C_1  and  C_2
REMARK    2  A    between atoms: C_2  and  N_3
REMARK    3  A    between atoms: N_9  and  C_10
REMARK                            x       y       z     vdW  Elec       q    Type
REMARK                         _______ _______ _______ _____ _____    ______ ____
ROOT
ATOM      1  C   UNL     1      20.353  26.775  19.419  0.00  0.00    +0.112 C 
ATOM      2  C   UNL     1      20.954  26.766  20.828  0.00  0.00    +0.075 C 
ATOM      3  C   UNL     1      22.104  25.770  21.036  0.00  0.00    +0.113 C 
ATOM      4  C   UNL     1      23.501  26.288  20.605  0.00  0.00    +0.048 C 
ATOM      5  C   UNL     1      24.309  26.457  21.887  0.00  0.00    +0.004 C 
ATOM      6  C   UNL     1      23.736  25.413  22.824  0.00  0.00    +0.004 C 
ATOM      7  C   UNL     1      22.243  25.498  22.555  0.00  0.00    +0.048 C 
ATOM      8  O   UNL     1      21.838  24.505  20.401  0.00  0.00    -0.485 OA
ATOM      9  C   UNL     1      21.595  24.619  19.057  0.00  0.00    +0.126 A 
ATOM     10  C   UNL     1      22.056  23.597  18.230  0.00  0.00    +0.046 A 
ATOM     11  C   UNL     1      21.872  23.680  16.849  0.00  0.00    +0.004 A 
ATOM     12  C   UNL     1      21.209  24.774  16.298  0.00  0.00    +0.001 A 
ATOM     13  C   UNL     1      20.721  25.779  17.133  0.00  0.00    +0.009 A 
ATOM     14  C   UNL     1      20.912  25.708  18.523  0.00  0.00    +0.015 A 
ENDROOT
BRANCH   1  21
ATOM     15  N   UNL     1      14.150  26.737  18.354  0.00  0.00    -0.299 N 
ATOM     16  C   UNL     1      14.810  28.009  18.060  0.00  0.00    +0.127 C 
ATOM     17  C   UNL     1      15.742  28.448  19.184  0.00  0.00    +0.129 C 
ATOM     18  N   UNL     1      16.711  27.391  19.436  0.00  0.00    -0.275 N 
ATOM     19  C   UNL     1      18.052  27.661  19.287  0.00  0.00    +0.303 C 
ATOM     20  O   UNL     1      18.470  28.768  18.953  0.00  0.00    -0.253 OA
ATOM     21  N   UNL     1      18.901  26.614  19.499  0.00  0.00    -0.292 N 
ATOM     22  C   UNL     1      16.117  26.097  19.784  0.00  0.00    +0.205 C 
ATOM     23  C   UNL     1      14.715  25.799  19.212  0.00  0.00    +0.233 C 
ATOM     24  O   UNL     1      14.139  24.750  19.508  0.00  0.00    -0.274 OA
ATOM     25  H   UNL     1      18.590  25.865  20.095  0.00  0.00    +0.151 HD
BRANCH  15  27
ATOM     26  C   UNL     1      13.223  25.801  16.265  0.00  0.00    +0.024 C 
ATOM     27  C   UNL     1      12.929  26.408  17.626  0.00  0.00    +0.104 C 
ENDBRANCH  15  27
ENDBRANCH   1  21
TORSDOF 2
ENDMDL
MODEL 8
REMARK VINA RESULT:      -6.3      4.622      7.784
REMARK  Name = ZINC000329563636
REMARK  3 active torsions:
REMARK  status: ('A' for Active; 'I' for Inactive)
REMARK    1  A    between atoms: C_1  and  C_2
REMARK    2  A    between atoms: C_2  and  N_3
REMARK    3  A    between atoms: N_9  and  C_10
REMARK                            x       y       z     vdW  Elec       q    Type
REMARK                         _______ _______ _______ _____ _____    ______ ____
ROOT
ATOM      1  C   UNL     1      34.419  22.328  20.451  0.00  0.00    +0.112 C 
ATOM      2  C   UNL     1      34.152  23.093  21.751  0.00  0.00    +0.075 C 
ATOM      3  C   UNL     1      34.358  22.278  23.038  0.00  0.00    +0.113 C 
ATOM      4  C   UNL     1      35.821  22.223  23.546  0.00  0.00    +0.048 C 
ATOM      5  C   UNL     1      35.853  23.020  24.846  0.00  0.00    +0.004 C 
ATOM      6  C   UNL     1      34.458  22.856  25.413  0.00  0.00    +0.004 C 
ATOM      7  C   UNL     1      33.575  22.970  24.182  0.00  0.00    +0.048 C 
ATOM      8  O   UNL     1      33.835  20.942  22.913  0.00  0.00    -0.485 OA
ATOM      9  C   UNL     1      34.378  20.248  21.864  0.00  0.00    +0.126 A 
ATOM     10  C   UNL     1      34.589  18.881  22.035  0.00  0.00    +0.046 A 
ATOM     11  C   UNL     1      35.176  18.132  21.014  0.00  0.00    +0.004 A 
ATOM     12  C   UNL     1      35.533  18.746  19.816  0.00  0.00    +0.001 A 
ATOM     13  C   UNL     1      35.291  20.108  19.637  0.00  0.00    +0.009 A 
ATOM     14  C   UNL     1      34.710  20.871  20.664  0.00  0.00    +0.015 A 
ENDROOT
BRANCH   1  21
ATOM     15  N   UNL     1      30.570  22.824  15.498  0.00  0.00    -0.299 N 
ATOM     16  C   UNL     1      31.735  23.707  15.453  0.00  0.00    +0.127 C 
ATOM     17  C   UNL     1      31.951  24.443  16.771  0.00  0.00    +0.129 C 
ATOM     18  N   UNL     1      32.062  23.467  17.846  0.00  0.00    -0.275 N 
ATOM     19  C   UNL     1      33.217  23.422  18.593  0.00  0.00    +0.303 C 
ATOM     20  O   UNL     1      34.164  24.181  18.393  0.00  0.00    -0.253 OA
ATOM     21  N   UNL     1      33.270  22.456  19.556  0.00  0.00    -0.292 N 
ATOM     22  C   UNL     1      30.905  22.578  17.977  0.00  0.00    +0.205 C 
ATOM     23  C   UNL     1      30.101  22.288  16.692  0.00  0.00    +0.233 C 
ATOM     24  O   UNL     1      29.087  21.589  16.745  0.00  0.00    -0.274 OA
ATOM     25  H   UNL     1      32.401  22.112  19.930  0.00  0.00    +0.151 HD
BRANCH  15  27
ATOM     26  C   UNL     1      29.851  23.560  13.253  0.00  0.00    +0.024 C 
ATOM     27  C   UNL     1      29.970  22.407  14.234  0.00  0.00    +0.104 C 
ENDBRANCH  15  27
ENDBRANCH   1  21
TORSDOF 2
ENDMDL
MODEL 9
REMARK VINA RESULT:      -6.3      3.343      6.277
REMARK  Name = ZINC000329563636
REMARK  3 active torsions:
REMARK  status: ('A' for Active; 'I' for Inactive)
REMARK    1  A    between atoms: C_1  and  C_2
REMARK    2  A    between atoms: C_2  and  N_3
REMARK    3  A    between atoms: N_9  and  C_10
REMARK                            x       y       z     vdW  Elec       q    Type
REMARK                         _______ _______ _______ _____ _____    ______ ____
ROOT
ATOM      1  C   UNL     1      32.016  22.925  15.272  0.00  0.00    +0.112 C 
ATOM      2  C   UNL     1      30.948  22.341  16.202  0.00  0.00    +0.075 C 
ATOM      3  C   UNL     1      29.501  22.510  15.716  0.00  0.00    +0.113 C 
ATOM      4  C   UNL     1      29.017  21.423  14.722  0.00  0.00    +0.048 C 
ATOM      5  C   UNL     1      27.963  20.606  15.460  0.00  0.00    +0.004 C 
ATOM      6  C   UNL     1      27.352  21.590  16.437  0.00  0.00    +0.004 C 
ATOM      7  C   UNL     1      28.557  22.367  16.937  0.00  0.00    +0.048 C 
ATOM      8  O   UNL     1      29.275  23.817  15.155  0.00  0.00    -0.485 OA
ATOM      9  C   UNL     1      30.122  24.112  14.120  0.00  0.00    +0.126 A 
ATOM     10  C   UNL     1      29.613  24.869  13.066  0.00  0.00    +0.046 A 
ATOM     11  C   UNL     1      30.420  25.164  11.966  0.00  0.00    +0.004 A 
ATOM     12  C   UNL     1      31.740  24.721  11.930  0.00  0.00    +0.001 A 
ATOM     13  C   UNL     1      32.254  23.991  13.001  0.00  0.00    +0.009 A 
ATOM     14  C   UNL     1      31.445  23.680  14.107  0.00  0.00    +0.015 A 
ENDROOT
BRANCH   1  21
ATOM     15  N   UNL     1      35.230  25.976  19.740  0.00  0.00    -0.299 N 
ATOM     16  C   UNL     1      33.802  25.826  20.015  0.00  0.00    +0.127 C 
ATOM     17  C   UNL     1      32.940  26.200  18.812  0.00  0.00    +0.129 C 
ATOM     18  N   UNL     1      33.352  25.399  17.668  0.00  0.00    -0.275 N 
ATOM     19  C   UNL     1      32.434  24.568  17.068  0.00  0.00    +0.303 C 
ATOM     20  O   UNL     1      31.270  24.477  17.456  0.00  0.00    -0.253 OA
ATOM     21  N   UNL     1      32.897  23.815  16.028  0.00  0.00    -0.292 N 
ATOM     22  C   UNL     1      34.765  25.539  17.308  0.00  0.00    +0.205 C 
ATOM     23  C   UNL     1      35.742  25.892  18.450  0.00  0.00    +0.233 C 
ATOM     24  O   UNL     1      36.936  26.074  18.204  0.00  0.00    -0.274 OA
ATOM     25  H   UNL     1      33.696  24.153  15.518  0.00  0.00    +0.151 HD
BRANCH  15  27
ATOM     26  C   UNL     1      35.846  27.327  21.713  0.00  0.00    +0.024 C 
ATOM     27  C   UNL     1      36.142  26.098  20.873  0.00  0.00    +0.104 C 
ENDBRANCH  15  27
ENDBRANCH   1  21
TORSDOF 2
ENDMDL
