MODEL 1
REMARK VINA RESULT:      -8.0      0.000      0.000
REMARK  Name = ZINC000329563636
REMARK  3 active torsions:
REMARK  status: ('A' for Active; 'I' for Inactive)
REMARK    1  A    between atoms: C_1  and  C_2
REMARK    2  A    between atoms: C_2  and  N_3
REMARK    3  A    between atoms: N_9  and  C_10
REMARK                            x       y       z     vdW  Elec       q    Type
REMARK                         _______ _______ _______ _____ _____    ______ ____
ROOT
ATOM      1  C   UNL     1      30.102  23.547  14.945  0.00  0.00    +0.112 C 
ATOM      2  C   UNL     1      29.007  22.479  14.874  0.00  0.00    +0.075 C 
ATOM      3  C   UNL     1      28.692  21.784  16.207  0.00  0.00    +0.113 C 
ATOM      4  C   UNL     1      27.688  22.540  17.115  0.00  0.00    +0.048 C 
ATOM      5  C   UNL     1      26.419  21.696  17.146  0.00  0.00    +0.004 C 
ATOM      6  C   UNL     1      26.916  20.277  16.955  0.00  0.00    +0.004 C 
ATOM      7  C   UNL     1      27.996  20.434  15.899  0.00  0.00    +0.048 C 
ATOM      8  O   UNL     1      29.889  21.484  16.950  0.00  0.00    -0.485 OA
ATOM      9  C   UNL     1      30.655  22.591  17.204  0.00  0.00    +0.126 A 
ATOM     10  C   UNL     1      31.328  22.644  18.423  0.00  0.00    +0.046 A 
ATOM     11  C   UNL     1      32.090  23.765  18.751  0.00  0.00    +0.004 A 
ATOM     12  C   UNL     1      32.196  24.825  17.853  0.00  0.00    +0.001 A 
ATOM     13  C   UNL     1      31.547  24.754  16.621  0.00  0.00    +0.009 A 
ATOM     14  C   UNL     1      30.769  23.633  16.287  0.00  0.00    +0.015 A 
ENDROOT
BRANCH   1  21
ATOM     15  N   UNL     1      34.577  23.959  10.539  0.00  0.00    -0.299 N 
ATOM     16  C   UNL     1      33.438  24.853  10.334  0.00  0.00    +0.127 C 
ATOM     17  C   UNL     1      32.103  24.134  10.499  0.00  0.00    +0.129 C 
ATOM     18  N   UNL     1      32.062  23.509  11.814  0.00  0.00    -0.275 N 
ATOM     19  C   UNL     1      31.074  23.876  12.699  0.00  0.00    +0.303 C 
ATOM     20  O   UNL     1      30.214  24.711  12.421  0.00  0.00    -0.253 OA
ATOM     21  N   UNL     1      31.119  23.282  13.927  0.00  0.00    -0.292 N 
ATOM     22  C   UNL     1      33.151  22.563  12.069  0.00  0.00    +0.205 C 
ATOM     23  C   UNL     1      34.481  22.819  11.329  0.00  0.00    +0.233 C 
ATOM     24  O   UNL     1      35.420  22.030  11.461  0.00  0.00    -0.274 OA
ATOM     25  H   UNL     1      31.572  22.387  14.003  0.00  0.00    +0.151 HD
BRANCH  15  27
ATOM     26  C   UNL     1      36.015  23.964   8.531  0.00  0.00    +0.024 C 
ATOM     27  C   UNL     1      35.871  24.353   9.993  0.00  0.00    +0.104 C 
ENDBRANCH  15  27
ENDBRANCH   1  21
TORSDOF 2
ENDMDL
MODEL 2
REMARK VINA RESULT:      -7.9      3.282      7.424
REMARK  Name = ZINC000329563636
REMARK  3 active torsions:
REMARK  status: ('A' for Active; 'I' for Inactive)
REMARK    1  A    between atoms: C_1  and  C_2
REMARK    2  A    between atoms: C_2  and  N_3
REMARK    3  A    between atoms: N_9  and  C_10
REMARK                            x       y       z     vdW  Elec       q    Type
REMARK                         _______ _______ _______ _____ _____    ______ ____
ROOT
ATOM      1  C   UNL     1      30.716  23.924  16.395  0.00  0.00    +0.112 C 
ATOM      2  C   UNL     1      31.411  24.352  15.099  0.00  0.00    +0.075 C 
ATOM      3  C   UNL     1      30.804  23.768  13.814  0.00  0.00    +0.113 C 
ATOM      4  C   UNL     1      29.594  24.557  13.249  0.00  0.00    +0.048 C 
ATOM      5  C   UNL     1      30.064  25.184  11.941  0.00  0.00    +0.004 C 
ATOM      6  C   UNL     1      31.120  24.224  11.431  0.00  0.00    +0.004 C 
ATOM      7  C   UNL     1      31.873  23.842  12.694  0.00  0.00    +0.048 C 
ATOM      8  O   UNL     1      30.450  22.381  13.972  0.00  0.00    -0.485 OA
ATOM      9  C   UNL     1      29.578  22.164  15.006  0.00  0.00    +0.126 A 
ATOM     10  C   UNL     1      28.618  21.168  14.841  0.00  0.00    +0.046 A 
ATOM     11  C   UNL     1      27.679  20.931  15.845  0.00  0.00    +0.004 A 
ATOM     12  C   UNL     1      27.713  21.674  17.023  0.00  0.00    +0.001 A 
ATOM     13  C   UNL     1      28.697  22.648  17.197  0.00  0.00    +0.009 A 
ATOM     14  C   UNL     1      29.639  22.900  16.186  0.00  0.00    +0.015 A 
ENDROOT
BRANCH   1  21
ATOM     15  N   UNL     1      34.058  22.331  21.483  0.00  0.00    -0.299 N 
ATOM     16  C   UNL     1      33.677  23.741  21.424  0.00  0.00    +0.127 C 
ATOM     17  C   UNL     1      33.958  24.358  20.057  0.00  0.00    +0.129 C 
ATOM     18  N   UNL     1      33.274  23.576  19.036  0.00  0.00    -0.275 N 
ATOM     19  C   UNL     1      32.334  24.190  18.241  0.00  0.00    +0.303 C 
ATOM     20  O   UNL     1      32.049  25.382  18.353  0.00  0.00    -0.253 OA
ATOM     21  N   UNL     1      31.703  23.390  17.333  0.00  0.00    -0.292 N 
ATOM     22  C   UNL     1      33.646  22.159  19.009  0.00  0.00    +0.205 C 
ATOM     23  C   UNL     1      34.103  21.534  20.344  0.00  0.00    +0.233 C 
ATOM     24  O   UNL     1      34.477  20.360  20.377  0.00  0.00    -0.274 OA
ATOM     25  H   UNL     1      32.180  22.561  17.020  0.00  0.00    +0.151 HD
BRANCH  15  27
ATOM     26  C   UNL     1      33.668  22.559  23.911  0.00  0.00    +0.024 C 
ATOM     27  C   UNL     1      34.277  21.729  22.794  0.00  0.00    +0.104 C 
ENDBRANCH  15  27
ENDBRANCH   1  21
TORSDOF 2
ENDMDL
MODEL 3
REMARK VINA RESULT:      -7.8      3.405      7.125
REMARK  Name = ZINC000329563636
REMARK  3 active torsions:
REMARK  status: ('A' for Active; 'I' for Inactive)
REMARK    1  A    between atoms: C_1  and  C_2
REMARK    2  A    between atoms: C_2  and  N_3
REMARK    3  A    between atoms: N_9  and  C_10
REMARK                            x       y       z     vdW  Elec       q    Type
REMARK                         _______ _______ _______ _____ _____    ______ ____
ROOT
ATOM      1  C   UNL     1      31.130  23.625  16.248  0.00  0.00    +0.112 C 
ATOM      2  C   UNL     1      31.660  24.206  14.933  0.00  0.00    +0.075 C 
ATOM      3  C   UNL     1      30.875  23.794  13.679  0.00  0.00    +0.113 C 
ATOM      4  C   UNL     1      29.623  24.659  13.382  0.00  0.00    +0.048 C 
ATOM      5  C   UNL     1      29.933  25.441  12.110  0.00  0.00    +0.004 C 
ATOM      6  C   UNL     1      30.887  24.542  11.349  0.00  0.00    +0.004 C 
ATOM      7  C   UNL     1      31.788  23.998  12.443  0.00  0.00    +0.048 C 
ATOM      8  O   UNL     1      30.508  22.402  13.710  0.00  0.00    -0.485 OA
ATOM      9  C   UNL     1      29.774  22.064  14.817  0.00  0.00    +0.126 A 
ATOM     10  C   UNL     1      28.774  21.107  14.660  0.00  0.00    +0.046 A 
ATOM     11  C   UNL     1      27.969  20.754  15.744  0.00  0.00    +0.004 A 
ATOM     12  C   UNL     1      28.178  21.344  16.989  0.00  0.00    +0.001 A 
ATOM     13  C   UNL     1      29.201  22.278  17.149  0.00  0.00    +0.009 A 
ATOM     14  C   UNL     1      30.008  22.646  16.060  0.00  0.00    +0.015 A 
ENDROOT
BRANCH   1  21
ATOM     15  N   UNL     1      34.781  20.819  20.537  0.00  0.00    -0.299 N 
ATOM     16  C   UNL     1      34.104  22.025  21.011  0.00  0.00    +0.127 C 
ATOM     17  C   UNL     1      34.233  23.184  20.028  0.00  0.00    +0.129 C 
ATOM     18  N   UNL     1      33.726  22.762  18.730  0.00  0.00    -0.275 N 
ATOM     19  C   UNL     1      32.668  23.442  18.171  0.00  0.00    +0.303 C 
ATOM     20  O   UNL     1      32.134  24.402  18.723  0.00  0.00    -0.253 OA
ATOM     21  N   UNL     1      32.217  22.968  16.973  0.00  0.00    -0.292 N 
ATOM     22  C   UNL     1      34.395  21.583  18.173  0.00  0.00    +0.205 C 
ATOM     23  C   UNL     1      34.987  20.577  19.183  0.00  0.00    +0.233 C 
ATOM     24  O   UNL     1      35.607  19.592  18.778  0.00  0.00    -0.274 OA
ATOM     25  H   UNL     1      32.859  22.451  16.396  0.00  0.00    +0.151 HD
BRANCH  15  27
ATOM     26  C   UNL     1      33.954  18.907  21.864  0.00  0.00    +0.024 C 
ATOM     27  C   UNL     1      35.136  19.796  21.515  0.00  0.00    +0.104 C 
ENDBRANCH  15  27
ENDBRANCH   1  21
TORSDOF 2
ENDMDL
MODEL 4
REMARK VINA RESULT:      -7.2      1.196      1.367
REMARK  Name = ZINC000329563636
REMARK  3 active torsions:
REMARK  status: ('A' for Active; 'I' for Inactive)
REMARK    1  A    between atoms: C_1  and  C_2
REMARK    2  A    between atoms: C_2  and  N_3
REMARK    3  A    between atoms: N_9  and  C_10
REMARK                            x       y       z     vdW  Elec       q    Type
REMARK                         _______ _______ _______ _____ _____    ______ ____
ROOT
ATOM      1  C   UNL     1      30.175  23.046  14.781  0.00  0.00    +0.112 C 
ATOM      2  C   UNL     1      29.100  21.955  14.829  0.00  0.00    +0.075 C 
ATOM      3  C   UNL     1      28.642  21.557  16.240  0.00  0.00    +0.113 C 
ATOM      4  C   UNL     1      27.539  22.462  16.846  0.00  0.00    +0.048 C 
ATOM      5  C   UNL     1      26.279  21.607  16.925  0.00  0.00    +0.004 C 
ATOM      6  C   UNL     1      26.802  20.196  17.104  0.00  0.00    +0.004 C 
ATOM      7  C   UNL     1      27.992  20.152  16.162  0.00  0.00    +0.048 C 
ATOM      8  O   UNL     1      29.751  21.461  17.155  0.00  0.00    -0.485 OA
ATOM      9  C   UNL     1      30.477  22.619  17.241  0.00  0.00    +0.126 A 
ATOM     10  C   UNL     1      31.010  22.955  18.484  0.00  0.00    +0.046 A 
ATOM     11  C   UNL     1      31.724  24.144  18.639  0.00  0.00    +0.004 A 
ATOM     12  C   UNL     1      31.924  24.985  17.547  0.00  0.00    +0.001 A 
ATOM     13  C   UNL     1      31.417  24.630  16.298  0.00  0.00    +0.009 A 
ATOM     14  C   UNL     1      30.687  23.440  16.136  0.00  0.00    +0.015 A 
ENDROOT
BRANCH   1  21
ATOM     15  N   UNL     1      35.547  22.545  11.543  0.00  0.00    -0.299 N 
ATOM     16  C   UNL     1      34.792  23.769  11.280  0.00  0.00    +0.127 C 
ATOM     17  C   UNL     1      33.312  23.492  11.031  0.00  0.00    +0.129 C 
ATOM     18  N   UNL     1      32.770  22.762  12.168  0.00  0.00    -0.275 N 
ATOM     19  C   UNL     1      31.732  23.314  12.884  0.00  0.00    +0.303 C 
ATOM     20  O   UNL     1      31.237  24.403  12.599  0.00  0.00    -0.253 OA
ATOM     21  N   UNL     1      31.300  22.596  13.962  0.00  0.00    -0.292 N 
ATOM     22  C   UNL     1      33.453  21.499  12.458  0.00  0.00    +0.205 C 
ATOM     23  C   UNL     1      34.943  21.408  12.067  0.00  0.00    +0.233 C 
ATOM     24  O   UNL     1      35.561  20.355  12.238  0.00  0.00    -0.274 OA
ATOM     25  H   UNL     1      31.453  21.601  13.960  0.00  0.00    +0.151 HD
BRANCH  15  27
ATOM     26  C   UNL     1      37.703  23.270  12.506  0.00  0.00    +0.024 C 
ATOM     27  C   UNL     1      36.994  22.574  11.357  0.00  0.00    +0.104 C 
ENDBRANCH  15  27
ENDBRANCH   1  21
TORSDOF 2
ENDMDL
MODEL 5
REMARK VINA RESULT:      -6.7      3.498      6.006
REMARK  Name = ZINC000329563636
REMARK  3 active torsions:
REMARK  status: ('A' for Active; 'I' for Inactive)
REMARK    1  A    between atoms: C_1  and  C_2
REMARK    2  A    between atoms: C_2  and  N_3
REMARK    3  A    between atoms: N_9  and  C_10
REMARK                            x       y       z     vdW  Elec       q    Type
REMARK                         _______ _______ _______ _____ _____    ______ ____
ROOT
ATOM      1  C   UNL     1      31.510  22.628  16.581  0.00  0.00    +0.112 C 
ATOM      2  C   UNL     1      30.216  22.272  17.319  0.00  0.00    +0.075 C 
ATOM      3  C   UNL     1      28.932  22.432  16.490  0.00  0.00    +0.113 C 
ATOM      4  C   UNL     1      28.580  21.216  15.595  0.00  0.00    +0.048 C 
ATOM      5  C   UNL     1      27.319  20.598  16.188  0.00  0.00    +0.004 C 
ATOM      6  C   UNL     1      26.602  21.768  16.830  0.00  0.00    +0.004 C 
ATOM      7  C   UNL     1      27.735  22.553  17.467  0.00  0.00    +0.048 C 
ATOM      8  O   UNL     1      28.955  23.632  15.696  0.00  0.00    -0.485 OA
ATOM      9  C   UNL     1      30.032  23.697  14.851  0.00  0.00    +0.126 A 
ATOM     10  C   UNL     1      29.837  24.286  13.603  0.00  0.00    +0.046 A 
ATOM     11  C   UNL     1      30.889  24.343  12.687  0.00  0.00    +0.004 A 
ATOM     12  C   UNL     1      32.139  23.830  13.027  0.00  0.00    +0.001 A 
ATOM     13  C   UNL     1      32.337  23.270  14.288  0.00  0.00    +0.009 A 
ATOM     14  C   UNL     1      31.281  23.199  15.212  0.00  0.00    +0.015 A 
ENDROOT
BRANCH   1  21
ATOM     15  N   UNL     1      35.800  26.682  18.764  0.00  0.00    -0.299 N 
ATOM     16  C   UNL     1      36.356  25.441  18.227  0.00  0.00    +0.127 C 
ATOM     17  C   UNL     1      35.624  24.208  18.748  0.00  0.00    +0.129 C 
ATOM     18  N   UNL     1      34.206  24.335  18.442  0.00  0.00    -0.275 N 
ATOM     19  C   UNL     1      33.603  23.384  17.652  0.00  0.00    +0.303 C 
ATOM     20  O   UNL     1      34.216  22.420  17.194  0.00  0.00    -0.253 OA
ATOM     21  N   UNL     1      32.283  23.587  17.371  0.00  0.00    -0.292 N 
ATOM     22  C   UNL     1      33.574  25.537  18.992  0.00  0.00    +0.205 C 
ATOM     23  C   UNL     1      34.479  26.771  19.188  0.00  0.00    +0.233 C 
ATOM     24  O   UNL     1      34.020  27.797  19.694  0.00  0.00    -0.274 OA
ATOM     25  H   UNL     1      31.742  24.139  18.015  0.00  0.00    +0.151 HD
BRANCH  15  27
ATOM     26  C   UNL     1      36.626  28.545  17.368  0.00  0.00    +0.024 C 
ATOM     27  C   UNL     1      36.632  27.881  18.734  0.00  0.00    +0.104 C 
ENDBRANCH  15  27
ENDBRANCH   1  21
TORSDOF 2
ENDMDL
MODEL 6
REMARK VINA RESULT:      -6.6      3.484      4.909
REMARK  Name = ZINC000329563636
REMARK  3 active torsions:
REMARK  status: ('A' for Active; 'I' for Inactive)
REMARK    1  A    between atoms: C_1  and  C_2
REMARK    2  A    between atoms: C_2  and  N_3
REMARK    3  A    between atoms: N_9  and  C_10
REMARK                            x       y       z     vdW  Elec       q    Type
REMARK                         _______ _______ _______ _____ _____    ______ ____
ROOT
ATOM      1  C   UNL     1      32.361  22.983  14.486  0.00  0.00    +0.112 C 
ATOM      2  C   UNL     1      31.584  22.542  15.730  0.00  0.00    +0.075 C 
ATOM      3  C   UNL     1      30.071  22.800  15.676  0.00  0.00    +0.113 C 
ATOM      4  C   UNL     1      29.249  21.701  14.956  0.00  0.00    +0.048 C 
ATOM      5  C   UNL     1      28.413  21.016  16.032  0.00  0.00    +0.004 C 
ATOM      6  C   UNL     1      28.181  22.102  17.064  0.00  0.00    +0.004 C 
ATOM      7  C   UNL     1      29.526  22.805  17.127  0.00  0.00    +0.048 C 
ATOM      8  O   UNL     1      29.768  24.087  15.105  0.00  0.00    -0.485 OA
ATOM      9  C   UNL     1      30.286  24.252  13.847  0.00  0.00    +0.126 A 
ATOM     10  C   UNL     1      29.535  24.986  12.931  0.00  0.00    +0.046 A 
ATOM     11  C   UNL     1      29.995  25.151  11.624  0.00  0.00    +0.004 A 
ATOM     12  C   UNL     1      31.215  24.601  11.239  0.00  0.00    +0.001 A 
ATOM     13  C   UNL     1      31.979  23.894  12.168  0.00  0.00    +0.009 A 
ATOM     14  C   UNL     1      31.517  23.714  13.482  0.00  0.00    +0.015 A 
ENDROOT
BRANCH   1  21
ATOM     15  N   UNL     1      37.598  26.467  14.693  0.00  0.00    -0.299 N 
ATOM     16  C   UNL     1      37.763  25.159  14.059  0.00  0.00    +0.127 C 
ATOM     17  C   UNL     1      37.141  24.036  14.883  0.00  0.00    +0.129 C 
ATOM     18  N   UNL     1      35.737  24.343  15.117  0.00  0.00    -0.275 N 
ATOM     19  C   UNL     1      34.775  23.471  14.661  0.00  0.00    +0.303 C 
ATOM     20  O   UNL     1      35.055  22.432  14.064  0.00  0.00    -0.253 OA
ATOM     21  N   UNL     1      33.480  23.840  14.879  0.00  0.00    -0.292 N 
ATOM     22  C   UNL     1      35.502  25.621  15.795  0.00  0.00    +0.205 C 
ATOM     23  C   UNL     1      36.553  26.729  15.572  0.00  0.00    +0.233 C 
ATOM     24  O   UNL     1      36.440  27.810  16.154  0.00  0.00    -0.274 OA
ATOM     25  H   UNL     1      33.287  24.463  15.645  0.00  0.00    +0.151 HD
BRANCH  15  27
ATOM     26  C   UNL     1      38.389  27.848  12.805  0.00  0.00    +0.024 C 
ATOM     27  C   UNL     1      38.492  27.547  14.290  0.00  0.00    +0.104 C 
ENDBRANCH  15  27
ENDBRANCH   1  21
TORSDOF 2
ENDMDL
MODEL 7
REMARK VINA RESULT:      -6.6     22.127     24.236
REMARK  Name = ZINC000329563636
REMARK  3 active torsions:
REMARK  status: ('A' for Active; 'I' for Inactive)
REMARK    1  A    between atoms: C_1  and  C_2
REMARK    2  A    between atoms: C_2  and  N_3
REMARK    3  A    between atoms: N_9  and  C_10
REMARK                            x       y       z     vdW  Elec       q    Type
REMARK                         _______ _______ _______ _____ _____    ______ ____
ROOT
ATOM      1  C   UNL     1      10.095  29.729   6.995  0.00  0.00    +0.112 C 
ATOM      2  C   UNL     1       9.521  28.825   8.091  0.00  0.00    +0.075 C 
ATOM      3  C   UNL     1      10.568  28.059   8.915  0.00  0.00    +0.113 C 
ATOM      4  C   UNL     1      11.175  28.857  10.098  0.00  0.00    +0.048 C 
ATOM      5  C   UNL     1      10.668  28.188  11.370  0.00  0.00    +0.004 C 
ATOM      6  C   UNL     1      10.471  26.739  10.972  0.00  0.00    +0.004 C 
ATOM      7  C   UNL     1       9.871  26.847   9.581  0.00  0.00    +0.048 C 
ATOM      8  O   UNL     1      11.624  27.539   8.086  0.00  0.00    -0.485 OA
ATOM      9  C   UNL     1      12.263  28.508   7.358  0.00  0.00    +0.126 A 
ATOM     10  C   UNL     1      13.634  28.360   7.152  0.00  0.00    +0.046 A 
ATOM     11  C   UNL     1      14.343  29.338   6.452  0.00  0.00    +0.004 A 
ATOM     12  C   UNL     1      13.679  30.450   5.941  0.00  0.00    +0.001 A 
ATOM     13  C   UNL     1      12.302  30.578   6.122  0.00  0.00    +0.009 A 
ATOM     14  C   UNL     1      11.582  29.604   6.835  0.00  0.00    +0.015 A 
ENDROOT
BRANCH   1  21
ATOM     15  N   UNL     1       8.009  29.753   1.058  0.00  0.00    -0.299 N 
ATOM     16  C   UNL     1       7.848  31.024   1.764  0.00  0.00    +0.127 C 
ATOM     17  C   UNL     1       7.246  30.840   3.154  0.00  0.00    +0.129 C 
ATOM     18  N   UNL     1       8.074  29.910   3.908  0.00  0.00    -0.275 N 
ATOM     19  C   UNL     1       8.657  30.333   5.082  0.00  0.00    +0.303 C 
ATOM     20  O   UNL     1       8.501  31.470   5.525  0.00  0.00    -0.253 OA
ATOM     21  N   UNL     1       9.453  29.425   5.716  0.00  0.00    -0.292 N 
ATOM     22  C   UNL     1       8.239  28.597   3.279  0.00  0.00    +0.205 C 
ATOM     23  C   UNL     1       8.156  28.550   1.739  0.00  0.00    +0.233 C 
ATOM     24  O   UNL     1       8.235  27.468   1.152  0.00  0.00    -0.274 OA
ATOM     25  H   UNL     1       9.283  28.447   5.549  0.00  0.00    +0.151 HD
BRANCH  15  27
ATOM     26  C   UNL     1       7.356  30.928  -1.014  0.00  0.00    +0.024 C 
ATOM     27  C   UNL     1       8.137  29.782  -0.395  0.00  0.00    +0.104 C 
ENDBRANCH  15  27
ENDBRANCH   1  21
TORSDOF 2
ENDMDL
MODEL 8
REMARK VINA RESULT:      -6.6      4.255      7.718
REMARK  Name = ZINC000329563636
REMARK  3 active torsions:
REMARK  status: ('A' for Active; 'I' for Inactive)
REMARK    1  A    between atoms: C_1  and  C_2
REMARK    2  A    between atoms: C_2  and  N_3
REMARK    3  A    between atoms: N_9  and  C_10
REMARK                            x       y       z     vdW  Elec       q    Type
REMARK                         _______ _______ _______ _____ _____    ______ ____
ROOT
ATOM      1  C   UNL     1      33.124  23.951  18.018  0.00  0.00    +0.112 C 
ATOM      2  C   UNL     1      33.327  25.462  18.159  0.00  0.00    +0.075 C 
ATOM      3  C   UNL     1      34.075  25.900  19.428  0.00  0.00    +0.113 C 
ATOM      4  C   UNL     1      35.621  25.853  19.321  0.00  0.00    +0.048 C 
ATOM      5  C   UNL     1      36.097  27.301  19.352  0.00  0.00    +0.004 C 
ATOM      6  C   UNL     1      35.047  28.017  20.177  0.00  0.00    +0.004 C 
ATOM      7  C   UNL     1      33.750  27.392  19.694  0.00  0.00    +0.048 C 
ATOM      8  O   UNL     1      33.644  25.159  20.585  0.00  0.00    -0.485 OA
ATOM      9  C   UNL     1      33.786  23.805  20.439  0.00  0.00    +0.126 A 
ATOM     10  C   UNL     1      34.146  23.069  21.567  0.00  0.00    +0.046 A 
ATOM     11  C   UNL     1      34.344  21.691  21.467  0.00  0.00    +0.004 A 
ATOM     12  C   UNL     1      34.162  21.047  20.245  0.00  0.00    +0.001 A 
ATOM     13  C   UNL     1      33.770  21.782  19.127  0.00  0.00    +0.009 A 
ATOM     14  C   UNL     1      33.580  23.171  19.217  0.00  0.00    +0.015 A 
ENDROOT
BRANCH   1  21
ATOM     15  N   UNL     1      27.602  21.321  16.538  0.00  0.00    -0.299 N 
ATOM     16  C   UNL     1      28.652  21.132  15.538  0.00  0.00    +0.127 C 
ATOM     17  C   UNL     1      29.386  22.431  15.220  0.00  0.00    +0.129 C 
ATOM     18  N   UNL     1      29.918  22.988  16.455  0.00  0.00    -0.275 N 
ATOM     19  C   UNL     1      31.277  23.175  16.575  0.00  0.00    +0.303 C 
ATOM     20  O   UNL     1      32.065  22.895  15.673  0.00  0.00    -0.253 OA
ATOM     21  N   UNL     1      31.711  23.662  17.774  0.00  0.00    -0.292 N 
ATOM     22  C   UNL     1      28.910  23.247  17.487  0.00  0.00    +0.205 C 
ATOM     23  C   UNL     1      27.654  22.350  17.471  0.00  0.00    +0.233 C 
ATOM     24  O   UNL     1      26.746  22.550  18.281  0.00  0.00    -0.274 OA
ATOM     25  H   UNL     1      31.066  24.201  18.327  0.00  0.00    +0.151 HD
BRANCH  15  27
ATOM     26  C   UNL     1      27.092  18.912  16.719  0.00  0.00    +0.024 C 
ATOM     27  C   UNL     1      26.540  20.323  16.621  0.00  0.00    +0.104 C 
ENDBRANCH  15  27
ENDBRANCH   1  21
TORSDOF 2
ENDMDL
MODEL 9
REMARK VINA RESULT:      -6.5     11.313     15.213
REMARK  Name = ZINC000329563636
REMARK  3 active torsions:
REMARK  status: ('A' for Active; 'I' for Inactive)
REMARK    1  A    between atoms: C_1  and  C_2
REMARK    2  A    between atoms: C_2  and  N_3
REMARK    3  A    between atoms: N_9  and  C_10
REMARK                            x       y       z     vdW  Elec       q    Type
REMARK                         _______ _______ _______ _____ _____    ______ ____
ROOT
ATOM      1  C   UNL     1      20.365  26.770  19.439  0.00  0.00    +0.112 C 
ATOM      2  C   UNL     1      20.966  26.768  20.848  0.00  0.00    +0.075 C 
ATOM      3  C   UNL     1      22.118  25.774  21.060  0.00  0.00    +0.113 C 
ATOM      4  C   UNL     1      23.514  26.292  20.628  0.00  0.00    +0.048 C 
ATOM      5  C   UNL     1      24.322  26.467  21.909  0.00  0.00    +0.004 C 
ATOM      6  C   UNL     1      23.750  25.426  22.850  0.00  0.00    +0.004 C 
ATOM      7  C   UNL     1      22.257  25.508  22.581  0.00  0.00    +0.048 C 
ATOM      8  O   UNL     1      21.853  24.506  20.430  0.00  0.00    -0.485 OA
ATOM      9  C   UNL     1      21.610  24.614  19.086  0.00  0.00    +0.126 A 
ATOM     10  C   UNL     1      22.073  23.590  18.263  0.00  0.00    +0.046 A 
ATOM     11  C   UNL     1      21.889  23.667  16.882  0.00  0.00    +0.004 A 
ATOM     12  C   UNL     1      21.225  24.759  16.327  0.00  0.00    +0.001 A 
ATOM     13  C   UNL     1      20.736  25.767  17.157  0.00  0.00    +0.009 A 
ATOM     14  C   UNL     1      20.926  25.701  18.548  0.00  0.00    +0.015 A 
ENDROOT
BRANCH   1  21
ATOM     15  N   UNL     1      14.164  26.715  18.370  0.00  0.00    -0.299 N 
ATOM     16  C   UNL     1      14.821  27.986  18.067  0.00  0.00    +0.127 C 
ATOM     17  C   UNL     1      15.753  28.435  19.188  0.00  0.00    +0.129 C 
ATOM     18  N   UNL     1      16.722  27.381  19.449  0.00  0.00    -0.275 N 
ATOM     19  C   UNL     1      18.063  27.652  19.299  0.00  0.00    +0.303 C 
ATOM     20  O   UNL     1      18.480  28.758  18.956  0.00  0.00    -0.253 OA
ATOM     21  N   UNL     1      18.914  26.608  19.519  0.00  0.00    -0.292 N 
ATOM     22  C   UNL     1      16.130  26.089  19.807  0.00  0.00    +0.205 C 
ATOM     23  C   UNL     1      14.729  25.785  19.236  0.00  0.00    +0.233 C 
ATOM     24  O   UNL     1      14.155  24.738  19.541  0.00  0.00    -0.274 OA
ATOM     25  H   UNL     1      18.604  25.863  20.121  0.00  0.00    +0.151 HD
BRANCH  15  27
ATOM     26  C   UNL     1      13.238  25.801  16.271  0.00  0.00    +0.024 C 
ATOM     27  C   UNL     1      12.944  26.379  17.645  0.00  0.00    +0.104 C 
ENDBRANCH  15  27
ENDBRANCH   1  21
TORSDOF 2
ENDMDL
