MODEL 1
REMARK VINA RESULT:      -6.7      0.000      0.000
REMARK  Name = ZINC000543478179
REMARK  8 active torsions:
REMARK  status: ('A' for Active; 'I' for Inactive)
REMARK    1  A    between atoms: C_1  and  C_2
REMARK    2  A    between atoms: C_2  and  N_3
REMARK    3  A    between atoms: N_9  and  C_10
REMARK    4  A    between atoms: C_10  and  C_11
REMARK    5  A    between atoms: C_10  and  C_12
REMARK    6  A    between atoms: C_15  and  O_16
REMARK    7  A    between atoms: O_16  and  C_17
REMARK    8  A    between atoms: C_17  and  C_18
REMARK                            x       y       z     vdW  Elec       q    Type
REMARK                         _______ _______ _______ _____ _____    ______ ____
ROOT
ATOM      1  C   UNL     1      30.174  22.603  14.216  0.00  0.00    +0.102 C 
ATOM      2  C   UNL     1      30.039  21.106  13.903  0.00  0.00    +0.033 C 
ENDROOT
BRANCH   1   9
ATOM      3  N   UNL     1      32.537  23.199  20.125  0.00  0.00    -0.299 N 
ATOM      4  C   UNL     1      31.186  22.639  20.079  0.00  0.00    +0.127 C 
ATOM      5  C   UNL     1      30.280  23.411  19.115  0.00  0.00    +0.129 C 
ATOM      6  N   UNL     1      30.869  23.388  17.779  0.00  0.00    -0.275 N 
ATOM      7  C   UNL     1      30.112  22.969  16.693  0.00  0.00    +0.303 C 
ATOM      8  O   UNL     1      28.934  22.648  16.783  0.00  0.00    -0.253 OA
ATOM      9  N   UNL     1      30.799  22.907  15.506  0.00  0.00    -0.293 N 
ATOM     10  C   UNL     1      32.270  23.807  17.718  0.00  0.00    +0.205 C 
ATOM     11  C   UNL     1      33.057  23.897  19.038  0.00  0.00    +0.233 C 
ATOM     12  O   UNL     1      34.159  24.446  19.070  0.00  0.00    -0.274 OA
ATOM     13  H   UNL     1      31.561  23.560  15.434  0.00  0.00    +0.151 HD
BRANCH   3  15
ATOM     14  C   UNL     1      32.744  21.927  22.233  0.00  0.00    +0.024 C 
ATOM     15  C   UNL     1      33.462  22.728  21.155  0.00  0.00    +0.104 C 
ENDBRANCH   3  15
ENDBRANCH   1   9
BRANCH   1  16
ATOM     16  C   UNL     1      31.001  23.282  13.131  0.00  0.00    -0.024 A 
ATOM     17  C   UNL     1      32.299  22.814  12.850  0.00  0.00    +0.009 A 
ATOM     18  C   UNL     1      33.115  23.461  11.926  0.00  0.00    +0.049 A 
ATOM     19  C   UNL     1      32.671  24.623  11.294  0.00  0.00    +0.156 A 
ATOM     20  C   UNL     1      31.362  25.057  11.517  0.00  0.00    +0.165 A 
ATOM     21  F   UNL     1      30.891  26.143  10.887  0.00  0.00    -0.202 F 
ATOM     22  C   UNL     1      30.529  24.400  12.429  0.00  0.00    +0.047 A 
BRANCH  19  23
ATOM     23  O   UNL     1      33.460  25.385  10.473  0.00  0.00    -0.489 OA
BRANCH  23  24
ATOM     24  C   UNL     1      33.934  24.703   9.307  0.00  0.00    +0.232 C 
BRANCH  24  25
ATOM     25  C   UNL     1      32.785  24.469   8.382  0.00  0.00    +0.027 C 
ATOM     26  C   UNL     1      32.723  23.214   7.551  0.00  0.00    +0.007 C 
ATOM     27  C   UNL     1      32.972  24.540   6.885  0.00  0.00    +0.007 C 
ENDBRANCH  24  25
ENDBRANCH  23  24
ENDBRANCH  19  23
ENDBRANCH   1  16
TORSDOF 6
ENDMDL
MODEL 2
REMARK VINA RESULT:      -6.0      4.513      6.642
REMARK  Name = ZINC000543478179
REMARK  8 active torsions:
REMARK  status: ('A' for Active; 'I' for Inactive)
REMARK    1  A    between atoms: C_1  and  C_2
REMARK    2  A    between atoms: C_2  and  N_3
REMARK    3  A    between atoms: N_9  and  C_10
REMARK    4  A    between atoms: C_10  and  C_11
REMARK    5  A    between atoms: C_10  and  C_12
REMARK    6  A    between atoms: C_15  and  O_16
REMARK    7  A    between atoms: O_16  and  C_17
REMARK    8  A    between atoms: C_17  and  C_18
REMARK                            x       y       z     vdW  Elec       q    Type
REMARK                         _______ _______ _______ _____ _____    ______ ____
ROOT
ATOM      1  C   UNL     1      33.652  23.498  16.801  0.00  0.00    +0.102 C 
ATOM      2  C   UNL     1      34.106  24.781  16.091  0.00  0.00    +0.033 C 
ENDROOT
BRANCH   1   9
ATOM      3  N   UNL     1      35.947  22.598  22.699  0.00  0.00    -0.299 N 
ATOM      4  C   UNL     1      36.020  21.411  21.845  0.00  0.00    +0.127 C 
ATOM      5  C   UNL     1      34.721  21.188  21.065  0.00  0.00    +0.129 C 
ATOM      6  N   UNL     1      34.441  22.365  20.249  0.00  0.00    -0.275 N 
ATOM      7  C   UNL     1      34.196  22.227  18.890  0.00  0.00    +0.303 C 
ATOM      8  O   UNL     1      34.158  21.142  18.324  0.00  0.00    -0.253 OA
ATOM      9  N   UNL     1      34.032  23.411  18.213  0.00  0.00    -0.293 N 
ATOM     10  C   UNL     1      34.469  23.637  20.974  0.00  0.00    +0.205 C 
ATOM     11  C   UNL     1      35.098  23.654  22.380  0.00  0.00    +0.233 C 
ATOM     12  O   UNL     1      34.955  24.633  23.114  0.00  0.00    -0.274 OA
ATOM     13  H   UNL     1      33.658  24.158  18.772  0.00  0.00    +0.151 HD
BRANCH   3  15
ATOM     14  C   UNL     1      36.786  22.032  24.952  0.00  0.00    +0.024 C 
ATOM     15  C   UNL     1      37.010  22.831  23.675  0.00  0.00    +0.104 C 
ENDBRANCH   3  15
ENDBRANCH   1   9
BRANCH   1  16
ATOM     16  C   UNL     1      32.134  23.377  16.724  0.00  0.00    -0.024 A 
ATOM     17  C   UNL     1      31.343  23.860  17.783  0.00  0.00    +0.009 A 
ATOM     18  C   UNL     1      29.962  23.691  17.786  0.00  0.00    +0.049 A 
ATOM     19  C   UNL     1      29.339  22.993  16.751  0.00  0.00    +0.156 A 
ATOM     20  C   UNL     1      30.108  22.567  15.665  0.00  0.00    +0.165 A 
ATOM     21  F   UNL     1      29.531  21.934  14.633  0.00  0.00    -0.202 F 
ATOM     22  C   UNL     1      31.495  22.751  15.645  0.00  0.00    +0.047 A 
BRANCH  19  23
ATOM     23  O   UNL     1      28.007  22.675  16.747  0.00  0.00    -0.489 OA
BRANCH  23  24
ATOM     24  C   UNL     1      27.644  21.631  17.656  0.00  0.00    +0.232 C 
BRANCH  24  25
ATOM     25  C   UNL     1      27.280  20.412  16.874  0.00  0.00    +0.027 C 
ATOM     26  C   UNL     1      26.284  19.426  17.426  0.00  0.00    +0.007 C 
ATOM     27  C   UNL     1      27.736  19.044  17.322  0.00  0.00    +0.007 C 
ENDBRANCH  24  25
ENDBRANCH  23  24
ENDBRANCH  19  23
ENDBRANCH   1  16
TORSDOF 6
ENDMDL
MODEL 3
REMARK VINA RESULT:      -5.9      1.286      1.999
REMARK  Name = ZINC000543478179
REMARK  8 active torsions:
REMARK  status: ('A' for Active; 'I' for Inactive)
REMARK    1  A    between atoms: C_1  and  C_2
REMARK    2  A    between atoms: C_2  and  N_3
REMARK    3  A    between atoms: N_9  and  C_10
REMARK    4  A    between atoms: C_10  and  C_11
REMARK    5  A    between atoms: C_10  and  C_12
REMARK    6  A    between atoms: C_15  and  O_16
REMARK    7  A    between atoms: O_16  and  C_17
REMARK    8  A    between atoms: C_17  and  C_18
REMARK                            x       y       z     vdW  Elec       q    Type
REMARK                         _______ _______ _______ _____ _____    ______ ____
ROOT
ATOM      1  C   UNL     1      30.140  22.627  14.235  0.00  0.00    +0.102 C 
ATOM      2  C   UNL     1      29.928  21.134  13.947  0.00  0.00    +0.033 C 
ENDROOT
BRANCH   1   9
ATOM      3  N   UNL     1      32.529  23.176  20.139  0.00  0.00    -0.299 N 
ATOM      4  C   UNL     1      31.171  22.634  20.095  0.00  0.00    +0.127 C 
ATOM      5  C   UNL     1      30.272  23.419  19.136  0.00  0.00    +0.129 C 
ATOM      6  N   UNL     1      30.856  23.392  17.798  0.00  0.00    -0.275 N 
ATOM      7  C   UNL     1      30.091  22.986  16.714  0.00  0.00    +0.303 C 
ATOM      8  O   UNL     1      28.909  22.680  16.806  0.00  0.00    -0.253 OA
ATOM      9  N   UNL     1      30.774  22.919  15.524  0.00  0.00    -0.293 N 
ATOM     10  C   UNL     1      32.263  23.794  17.734  0.00  0.00    +0.205 C 
ATOM     11  C   UNL     1      33.055  23.870  19.052  0.00  0.00    +0.233 C 
ATOM     12  O   UNL     1      34.164  24.405  19.081  0.00  0.00    -0.274 OA
ATOM     13  H   UNL     1      31.543  23.562  15.452  0.00  0.00    +0.151 HD
BRANCH   3  15
ATOM     14  C   UNL     1      32.723  21.912  22.252  0.00  0.00    +0.024 C 
ATOM     15  C   UNL     1      33.451  22.690  21.164  0.00  0.00    +0.104 C 
ENDBRANCH   3  15
ENDBRANCH   1   9
BRANCH   1  16
ATOM     16  C   UNL     1      31.010  23.241  13.144  0.00  0.00    -0.024 A 
ATOM     17  C   UNL     1      32.297  22.724  12.906  0.00  0.00    +0.009 A 
ATOM     18  C   UNL     1      33.150  23.313  11.978  0.00  0.00    +0.049 A 
ATOM     19  C   UNL     1      32.756  24.464  11.296  0.00  0.00    +0.156 A 
ATOM     20  C   UNL     1      31.457  24.946  11.478  0.00  0.00    +0.165 A 
ATOM     21  F   UNL     1      31.033  26.024  10.801  0.00  0.00    -0.202 F 
ATOM     22  C   UNL     1      30.587  24.347  12.395  0.00  0.00    +0.047 A 
BRANCH  19  23
ATOM     23  O   UNL     1      33.584  25.172  10.466  0.00  0.00    -0.489 OA
BRANCH  23  24
ATOM     24  C   UNL     1      34.937  24.706  10.439  0.00  0.00    +0.232 C 
BRANCH  24  25
ATOM     25  C   UNL     1      35.814  25.725  11.088  0.00  0.00    +0.027 C 
ATOM     26  C   UNL     1      37.285  25.456  11.269  0.00  0.00    +0.007 C 
ATOM     27  C   UNL     1      36.379  25.491  12.469  0.00  0.00    +0.007 C 
ENDBRANCH  24  25
ENDBRANCH  23  24
ENDBRANCH  19  23
ENDBRANCH   1  16
TORSDOF 6
ENDMDL
MODEL 4
REMARK VINA RESULT:      -5.9      4.223      5.425
REMARK  Name = ZINC000543478179
REMARK  8 active torsions:
REMARK  status: ('A' for Active; 'I' for Inactive)
REMARK    1  A    between atoms: C_1  and  C_2
REMARK    2  A    between atoms: C_2  and  N_3
REMARK    3  A    between atoms: N_9  and  C_10
REMARK    4  A    between atoms: C_10  and  C_11
REMARK    5  A    between atoms: C_10  and  C_12
REMARK    6  A    between atoms: C_15  and  O_16
REMARK    7  A    between atoms: O_16  and  C_17
REMARK    8  A    between atoms: C_17  and  C_18
REMARK                            x       y       z     vdW  Elec       q    Type
REMARK                         _______ _______ _______ _____ _____    ______ ____
ROOT
ATOM      1  C   UNL     1      30.784  23.691  17.647  0.00  0.00    +0.102 C 
ATOM      2  C   UNL     1      29.476  23.835  18.436  0.00  0.00    +0.033 C 
ENDROOT
BRANCH   1   9
ATOM      3  N   UNL     1      35.719  22.245  21.444  0.00  0.00    -0.299 N 
ATOM      4  C   UNL     1      35.698  23.640  21.003  0.00  0.00    +0.127 C 
ATOM      5  C   UNL     1      35.388  23.762  19.507  0.00  0.00    +0.129 C 
ATOM      6  N   UNL     1      34.098  23.137  19.231  0.00  0.00    -0.275 N 
ATOM      7  C   UNL     1      33.117  23.843  18.549  0.00  0.00    +0.303 C 
ATOM      8  O   UNL     1      33.286  24.975  18.116  0.00  0.00    -0.253 OA
ATOM      9  N   UNL     1      31.918  23.184  18.426  0.00  0.00    -0.293 N 
ATOM     10  C   UNL     1      33.953  21.773  19.743  0.00  0.00    +0.205 C 
ATOM     11  C   UNL     1      34.984  21.273  20.771  0.00  0.00    +0.233 C 
ATOM     12  O   UNL     1      35.037  20.078  21.068  0.00  0.00    -0.274 OA
ATOM     13  H   UNL     1      31.997  22.182  18.406  0.00  0.00    +0.151 HD
BRANCH   3  15
ATOM     14  C   UNL     1      35.178  22.241  23.855  0.00  0.00    +0.024 C 
ATOM     15  C   UNL     1      36.217  21.936  22.784  0.00  0.00    +0.104 C 
ENDBRANCH   3  15
ENDBRANCH   1   9
BRANCH   1  16
ATOM     16  C   UNL     1      30.573  22.745  16.471  0.00  0.00    -0.024 A 
ATOM     17  C   UNL     1      29.287  22.237  16.208  0.00  0.00    +0.009 A 
ATOM     18  C   UNL     1      29.072  21.306  15.197  0.00  0.00    +0.049 A 
ATOM     19  C   UNL     1      30.147  20.821  14.451  0.00  0.00    +0.156 A 
ATOM     20  C   UNL     1      31.416  21.367  14.661  0.00  0.00    +0.165 A 
ATOM     21  F   UNL     1      32.460  20.956  13.927  0.00  0.00    -0.202 F 
ATOM     22  C   UNL     1      31.636  22.319  15.663  0.00  0.00    +0.047 A 
BRANCH  19  23
ATOM     23  O   UNL     1      30.035  19.814  13.529  0.00  0.00    -0.489 OA
BRANCH  23  24
ATOM     24  C   UNL     1      29.969  18.500  14.093  0.00  0.00    +0.232 C 
BRANCH  24  25
ATOM     25  C   UNL     1      31.253  17.789  13.819  0.00  0.00    +0.027 C 
ATOM     26  C   UNL     1      31.937  17.943  12.486  0.00  0.00    +0.007 C 
ATOM     27  C   UNL     1      31.303  16.629  12.855  0.00  0.00    +0.007 C 
ENDBRANCH  24  25
ENDBRANCH  23  24
ENDBRANCH  19  23
ENDBRANCH   1  16
TORSDOF 6
ENDMDL
MODEL 5
REMARK VINA RESULT:      -5.9      6.227      8.233
REMARK  Name = ZINC000543478179
REMARK  8 active torsions:
REMARK  status: ('A' for Active; 'I' for Inactive)
REMARK    1  A    between atoms: C_1  and  C_2
REMARK    2  A    between atoms: C_2  and  N_3
REMARK    3  A    between atoms: N_9  and  C_10
REMARK    4  A    between atoms: C_10  and  C_11
REMARK    5  A    between atoms: C_10  and  C_12
REMARK    6  A    between atoms: C_15  and  O_16
REMARK    7  A    between atoms: O_16  and  C_17
REMARK    8  A    between atoms: C_17  and  C_18
REMARK                            x       y       z     vdW  Elec       q    Type
REMARK                         _______ _______ _______ _____ _____    ______ ____
ROOT
ATOM      1  C   UNL     1      32.385  17.658  12.735  0.00  0.00    +0.102 C 
ATOM      2  C   UNL     1      32.943  18.067  11.364  0.00  0.00    +0.033 C 
ENDROOT
BRANCH   1   9
ATOM      3  N   UNL     1      37.224  15.464  16.291  0.00  0.00    -0.299 N 
ATOM      4  C   UNL     1      36.874  14.598  15.164  0.00  0.00    +0.127 C 
ATOM      5  C   UNL     1      35.359  14.413  15.035  0.00  0.00    +0.129 C 
ATOM      6  N   UNL     1      34.726  15.718  14.868  0.00  0.00    -0.275 N 
ATOM      7  C   UNL     1      33.859  15.939  13.807  0.00  0.00    +0.303 C 
ATOM      8  O   UNL     1      33.551  15.070  13.003  0.00  0.00    -0.253 OA
ATOM      9  N   UNL     1      33.396  17.228  13.705  0.00  0.00    -0.293 N 
ATOM     10  C   UNL     1      35.104  16.716  15.870  0.00  0.00    +0.205 C 
ATOM     11  C   UNL     1      36.330  16.425  16.756  0.00  0.00    +0.233 C 
ATOM     12  O   UNL     1      36.560  17.119  17.747  0.00  0.00    -0.274 OA
ATOM     13  H   UNL     1      33.339  17.718  14.582  0.00  0.00    +0.151 HD
BRANCH   3  15
ATOM     14  C   UNL     1      38.966  14.580  17.803  0.00  0.00    +0.024 C 
ATOM     15  C   UNL     1      38.625  15.567  16.693  0.00  0.00    +0.104 C 
ENDBRANCH   3  15
ENDBRANCH   1   9
BRANCH   1  16
ATOM     16  C   UNL     1      31.624  18.827  13.349  0.00  0.00    -0.024 A 
ATOM     17  C   UNL     1      30.429  18.588  14.053  0.00  0.00    +0.009 A 
ATOM     18  C   UNL     1      29.664  19.637  14.553  0.00  0.00    +0.049 A 
ATOM     19  C   UNL     1      30.050  20.957  14.321  0.00  0.00    +0.156 A 
ATOM     20  C   UNL     1      31.267  21.204  13.681  0.00  0.00    +0.165 A 
ATOM     21  F   UNL     1      31.688  22.462  13.486  0.00  0.00    -0.202 F 
ATOM     22  C   UNL     1      32.051  20.153  13.192  0.00  0.00    +0.047 A 
BRANCH  19  23
ATOM     23  O   UNL     1      29.287  22.040  14.669  0.00  0.00    -0.489 OA
BRANCH  23  24
ATOM     24  C   UNL     1      29.314  22.360  16.064  0.00  0.00    +0.232 C 
BRANCH  24  25
ATOM     25  C   UNL     1      27.929  22.259  16.612  0.00  0.00    +0.027 C 
ATOM     26  C   UNL     1      27.696  22.301  18.100  0.00  0.00    +0.007 C 
ATOM     27  C   UNL     1      27.477  21.018  17.344  0.00  0.00    +0.007 C 
ENDBRANCH  24  25
ENDBRANCH  23  24
ENDBRANCH  19  23
ENDBRANCH   1  16
TORSDOF 6
ENDMDL
MODEL 6
REMARK VINA RESULT:      -5.9      6.118      8.805
REMARK  Name = ZINC000543478179
REMARK  8 active torsions:
REMARK  status: ('A' for Active; 'I' for Inactive)
REMARK    1  A    between atoms: C_1  and  C_2
REMARK    2  A    between atoms: C_2  and  N_3
REMARK    3  A    between atoms: N_9  and  C_10
REMARK    4  A    between atoms: C_10  and  C_11
REMARK    5  A    between atoms: C_10  and  C_12
REMARK    6  A    between atoms: C_15  and  O_16
REMARK    7  A    between atoms: O_16  and  C_17
REMARK    8  A    between atoms: C_17  and  C_18
REMARK                            x       y       z     vdW  Elec       q    Type
REMARK                         _______ _______ _______ _____ _____    ______ ____
ROOT
ATOM      1  C   UNL     1      31.510  17.251  13.603  0.00  0.00    +0.102 C 
ATOM      2  C   UNL     1      30.280  16.447  13.160  0.00  0.00    +0.033 C 
ENDROOT
BRANCH   1   9
ATOM      3  N   UNL     1      36.439  15.769   9.811  0.00  0.00    -0.299 N 
ATOM      4  C   UNL     1      36.152  14.762  10.834  0.00  0.00    +0.127 C 
ATOM      5  C   UNL     1      35.900  15.397  12.206  0.00  0.00    +0.129 C 
ATOM      6  N   UNL     1      34.782  16.330  12.106  0.00  0.00    -0.275 N 
ATOM      7  C   UNL     1      33.712  16.229  12.984  0.00  0.00    +0.303 C 
ATOM      8  O   UNL     1      33.666  15.407  13.890  0.00  0.00    -0.253 OA
ATOM      9  N   UNL     1      32.683  17.104  12.736  0.00  0.00    -0.293 N 
ATOM     10  C   UNL     1      34.896  17.312  11.026  0.00  0.00    +0.205 C 
ATOM     11  C   UNL     1      35.955  17.069   9.935  0.00  0.00    +0.233 C 
ATOM     12  O   UNL     1      36.239  17.960   9.133  0.00  0.00    -0.274 OA
ATOM     13  H   UNL     1      32.968  17.966  12.305  0.00  0.00    +0.151 HD
BRANCH   3  15
ATOM     14  C   UNL     1      38.021  14.282   8.632  0.00  0.00    +0.024 C 
ATOM     15  C   UNL     1      36.921  15.329   8.503  0.00  0.00    +0.104 C 
ENDBRANCH   3  15
ENDBRANCH   1   9
BRANCH   1  16
ATOM     16  C   UNL     1      31.161  18.733  13.660  0.00  0.00    -0.024 A 
ATOM     17  C   UNL     1      32.057  19.680  13.128  0.00  0.00    +0.009 A 
ATOM     18  C   UNL     1      31.812  21.046  13.238  0.00  0.00    +0.049 A 
ATOM     19  C   UNL     1      30.687  21.502  13.926  0.00  0.00    +0.156 A 
ATOM     20  C   UNL     1      29.760  20.570  14.400  0.00  0.00    +0.165 A 
ATOM     21  F   UNL     1      28.646  20.980  15.023  0.00  0.00    -0.202 F 
ATOM     22  C   UNL     1      29.990  19.196  14.275  0.00  0.00    +0.047 A 
BRANCH  19  23
ATOM     23  O   UNL     1      30.445  22.825  14.186  0.00  0.00    -0.489 OA
BRANCH  23  24
ATOM     24  C   UNL     1      31.355  23.729  13.552  0.00  0.00    +0.232 C 
BRANCH  24  25
ATOM     25  C   UNL     1      30.712  24.281  12.322  0.00  0.00    +0.027 C 
ATOM     26  C   UNL     1      31.558  24.869  11.223  0.00  0.00    +0.007 C 
ATOM     27  C   UNL     1      30.691  25.768  12.063  0.00  0.00    +0.007 C 
ENDBRANCH  24  25
ENDBRANCH  23  24
ENDBRANCH  19  23
ENDBRANCH   1  16
TORSDOF 6
ENDMDL
MODEL 7
REMARK VINA RESULT:      -5.8      2.860      9.132
REMARK  Name = ZINC000543478179
REMARK  8 active torsions:
REMARK  status: ('A' for Active; 'I' for Inactive)
REMARK    1  A    between atoms: C_1  and  C_2
REMARK    2  A    between atoms: C_2  and  N_3
REMARK    3  A    between atoms: N_9  and  C_10
REMARK    4  A    between atoms: C_10  and  C_11
REMARK    5  A    between atoms: C_10  and  C_12
REMARK    6  A    between atoms: C_15  and  O_16
REMARK    7  A    between atoms: O_16  and  C_17
REMARK    8  A    between atoms: C_17  and  C_18
REMARK                            x       y       z     vdW  Elec       q    Type
REMARK                         _______ _______ _______ _____ _____    ______ ____
ROOT
ATOM      1  C   UNL     1      31.280  21.131  14.035  0.00  0.00    +0.102 C 
ATOM      2  C   UNL     1      29.775  20.830  14.002  0.00  0.00    +0.033 C 
ENDROOT
BRANCH   1   9
ATOM      3  N   UNL     1      33.462  23.731   8.618  0.00  0.00    -0.299 N 
ATOM      4  C   UNL     1      34.002  22.400   8.898  0.00  0.00    +0.127 C 
ATOM      5  C   UNL     1      34.429  22.253  10.362  0.00  0.00    +0.129 C 
ATOM      6  N   UNL     1      33.280  22.511  11.226  0.00  0.00    -0.275 N 
ATOM      7  C   UNL     1      32.923  21.589  12.200  0.00  0.00    +0.303 C 
ATOM      8  O   UNL     1      33.556  20.563  12.414  0.00  0.00    -0.253 OA
ATOM      9  N   UNL     1      31.777  21.899  12.890  0.00  0.00    -0.293 N 
ATOM     10  C   UNL     1      32.574  23.763  10.952  0.00  0.00    +0.205 C 
ATOM     11  C   UNL     1      32.874  24.489   9.627  0.00  0.00    +0.233 C 
ATOM     12  O   UNL     1      32.477  25.641   9.445  0.00  0.00    -0.274 OA
ATOM     13  H   UNL     1      31.592  22.885  12.963  0.00  0.00    +0.151 HD
BRANCH   3  15
ATOM     14  C   UNL     1      34.491  24.063   6.397  0.00  0.00    +0.024 C 
ATOM     15  C   UNL     1      33.216  24.115   7.228  0.00  0.00    +0.104 C 
ENDBRANCH   3  15
ENDBRANCH   1   9
BRANCH   1  16
ATOM     16  C   UNL     1      31.620  21.914  15.298  0.00  0.00    -0.024 A 
ATOM     17  C   UNL     1      32.893  21.774  15.882  0.00  0.00    +0.009 A 
ATOM     18  C   UNL     1      33.209  22.406  17.081  0.00  0.00    +0.049 A 
ATOM     19  C   UNL     1      32.244  23.158  17.752  0.00  0.00    +0.156 A 
ATOM     20  C   UNL     1      31.000  23.355  17.148  0.00  0.00    +0.165 A 
ATOM     21  F   UNL     1      30.068  24.112  17.746  0.00  0.00    -0.202 F 
ATOM     22  C   UNL     1      30.682  22.739  15.933  0.00  0.00    +0.047 A 
BRANCH  19  23
ATOM     23  O   UNL     1      32.438  23.702  18.994  0.00  0.00    -0.489 OA
BRANCH  23  24
ATOM     24  C   UNL     1      32.062  22.850  20.080  0.00  0.00    +0.232 C 
BRANCH  24  25
ATOM     25  C   UNL     1      33.217  22.719  21.017  0.00  0.00    +0.027 C 
ATOM     26  C   UNL     1      34.006  21.436  21.075  0.00  0.00    +0.007 C 
ATOM     27  C   UNL     1      33.128  21.828  22.232  0.00  0.00    +0.007 C 
ENDBRANCH  24  25
ENDBRANCH  23  24
ENDBRANCH  19  23
ENDBRANCH   1  16
TORSDOF 6
ENDMDL
MODEL 8
REMARK VINA RESULT:      -5.8      4.176      5.806
REMARK  Name = ZINC000543478179
REMARK  8 active torsions:
REMARK  status: ('A' for Active; 'I' for Inactive)
REMARK    1  A    between atoms: C_1  and  C_2
REMARK    2  A    between atoms: C_2  and  N_3
REMARK    3  A    between atoms: N_9  and  C_10
REMARK    4  A    between atoms: C_10  and  C_11
REMARK    5  A    between atoms: C_10  and  C_12
REMARK    6  A    between atoms: C_15  and  O_16
REMARK    7  A    between atoms: O_16  and  C_17
REMARK    8  A    between atoms: C_17  and  C_18
REMARK                            x       y       z     vdW  Elec       q    Type
REMARK                         _______ _______ _______ _____ _____    ______ ____
ROOT
ATOM      1  C   UNL     1      32.131  24.249  12.191  0.00  0.00    +0.102 C 
ATOM      2  C   UNL     1      30.723  24.856  12.103  0.00  0.00    +0.033 C 
ENDROOT
BRANCH   1   9
ATOM      3  N   UNL     1      31.568  17.996  13.397  0.00  0.00    -0.299 N 
ATOM      4  C   UNL     1      31.227  18.854  14.533  0.00  0.00    +0.127 C 
ATOM      5  C   UNL     1      32.247  19.980  14.726  0.00  0.00    +0.129 C 
ATOM      6  N   UNL     1      32.317  20.781  13.507  0.00  0.00    -0.275 N 
ATOM      7  C   UNL     1      32.165  22.159  13.572  0.00  0.00    +0.303 C 
ATOM      8  O   UNL     1      32.014  22.766  14.624  0.00  0.00    -0.253 OA
ATOM      9  N   UNL     1      32.162  22.793  12.353  0.00  0.00    -0.293 N 
ATOM     10  C   UNL     1      32.528  20.013  12.279  0.00  0.00    +0.205 C 
ATOM     11  C   UNL     1      32.321  18.488  12.334  0.00  0.00    +0.233 C 
ATOM     12  O   UNL     1      32.690  17.776  11.399  0.00  0.00    -0.274 OA
ATOM     13  H   UNL     1      32.697  22.325  11.643  0.00  0.00    +0.151 HD
BRANCH   3  15
ATOM     14  C   UNL     1      29.616  16.668  14.123  0.00  0.00    +0.024 C 
ATOM     15  C   UNL     1      30.831  16.748  13.208  0.00  0.00    +0.104 C 
ENDBRANCH   3  15
ENDBRANCH   1   9
BRANCH   1  16
ATOM     16  C   UNL     1      32.916  24.589  10.930  0.00  0.00    -0.024 A 
ATOM     17  C   UNL     1      32.248  25.143   9.822  0.00  0.00    +0.009 A 
ATOM     18  C   UNL     1      32.917  25.387   8.626  0.00  0.00    +0.049 A 
ATOM     19  C   UNL     1      34.261  25.040   8.491  0.00  0.00    +0.156 A 
ATOM     20  C   UNL     1      34.948  24.550   9.605  0.00  0.00    +0.165 A 
ATOM     21  F   UNL     1      36.252  24.252   9.520  0.00  0.00    -0.202 F 
ATOM     22  C   UNL     1      34.287  24.321  10.817  0.00  0.00    +0.047 A 
BRANCH  19  23
ATOM     23  O   UNL     1      34.951  25.130   7.311  0.00  0.00    -0.489 OA
BRANCH  23  24
ATOM     24  C   UNL     1      34.410  24.341   6.247  0.00  0.00    +0.232 C 
BRANCH  24  25
ATOM     25  C   UNL     1      35.503  23.516   5.651  0.00  0.00    +0.027 C 
ATOM     26  C   UNL     1      36.945  23.894   5.869  0.00  0.00    +0.007 C 
ATOM     27  C   UNL     1      36.330  24.043   4.503  0.00  0.00    +0.007 C 
ENDBRANCH  24  25
ENDBRANCH  23  24
ENDBRANCH  19  23
ENDBRANCH   1  16
TORSDOF 6
ENDMDL
MODEL 9
REMARK VINA RESULT:      -5.8      5.286      8.040
REMARK  Name = ZINC000543478179
REMARK  8 active torsions:
REMARK  status: ('A' for Active; 'I' for Inactive)
REMARK    1  A    between atoms: C_1  and  C_2
REMARK    2  A    between atoms: C_2  and  N_3
REMARK    3  A    between atoms: N_9  and  C_10
REMARK    4  A    between atoms: C_10  and  C_11
REMARK    5  A    between atoms: C_10  and  C_12
REMARK    6  A    between atoms: C_15  and  O_16
REMARK    7  A    between atoms: O_16  and  C_17
REMARK    8  A    between atoms: C_17  and  C_18
REMARK                            x       y       z     vdW  Elec       q    Type
REMARK                         _______ _______ _______ _____ _____    ______ ____
ROOT
ATOM      1  C   UNL     1      33.593  22.275  21.143  0.00  0.00    +0.102 C 
ATOM      2  C   UNL     1      32.959  21.796  22.457  0.00  0.00    +0.033 C 
ENDROOT
BRANCH   1   9
ATOM      3  N   UNL     1      37.670  17.921  18.845  0.00  0.00    -0.299 N 
ATOM      4  C   UNL     1      38.310  18.983  19.622  0.00  0.00    +0.127 C 
ATOM      5  C   UNL     1      37.770  20.368  19.252  0.00  0.00    +0.129 C 
ATOM      6  N   UNL     1      36.327  20.396  19.474  0.00  0.00    -0.275 N 
ATOM      7  C   UNL     1      35.763  21.401  20.247  0.00  0.00    +0.303 C 
ATOM      8  O   UNL     1      36.414  22.315  20.735  0.00  0.00    -0.253 OA
ATOM      9  N   UNL     1      34.411  21.272  20.456  0.00  0.00    -0.293 N 
ATOM     10  C   UNL     1      35.587  19.299  18.847  0.00  0.00    +0.205 C 
ATOM     11  C   UNL     1      36.387  18.088  18.331  0.00  0.00    +0.233 C 
ATOM     12  O   UNL     1      35.848  17.248  17.610  0.00  0.00    -0.274 OA
ATOM     13  H   UNL     1      33.922  20.798  19.717  0.00  0.00    +0.151 HD
BRANCH   3  15
ATOM     14  C   UNL     1      38.005  15.936  20.278  0.00  0.00    +0.024 C 
ATOM     15  C   UNL     1      38.222  16.568  18.909  0.00  0.00    +0.104 C 
ENDBRANCH   3  15
ENDBRANCH   1   9
BRANCH   1  16
ATOM     16  C   UNL     1      32.500  22.718  20.178  0.00  0.00    -0.024 A 
ATOM     17  C   UNL     1      31.148  22.528  20.521  0.00  0.00    +0.009 A 
ATOM     18  C   UNL     1      30.127  22.843  19.629  0.00  0.00    +0.049 A 
ATOM     19  C   UNL     1      30.432  23.311  18.352  0.00  0.00    +0.156 A 
ATOM     20  C   UNL     1      31.768  23.564  18.025  0.00  0.00    +0.165 A 
ATOM     21  F   UNL     1      32.089  24.060  16.821  0.00  0.00    -0.202 F 
ATOM     22  C   UNL     1      32.798  23.269  18.924  0.00  0.00    +0.047 A 
BRANCH  19  23
ATOM     23  O   UNL     1      29.492  23.520  17.378  0.00  0.00    -0.489 OA
BRANCH  23  24
ATOM     24  C   UNL     1      29.423  22.487  16.390  0.00  0.00    +0.232 C 
BRANCH  24  25
ATOM     25  C   UNL     1      28.016  21.995  16.300  0.00  0.00    +0.027 C 
ATOM     26  C   UNL     1      27.070  22.184  17.457  0.00  0.00    +0.007 C 
ATOM     27  C   UNL     1      27.561  20.805  17.110  0.00  0.00    +0.007 C 
ENDBRANCH  24  25
ENDBRANCH  23  24
ENDBRANCH  19  23
ENDBRANCH   1  16
TORSDOF 6
ENDMDL
