MODEL 1
REMARK VINA RESULT:      -6.1      0.000      0.000
REMARK  Name = ZINC001228612316
REMARK  5 active torsions:
REMARK  status: ('A' for Active; 'I' for Inactive)
REMARK    1  A    between atoms: C_2  and  C_4
REMARK    2  A    between atoms: C_8  and  O_9
REMARK    3  A    between atoms: O_9  and  C_10
REMARK    4  A    between atoms: C_10  and  C_11
REMARK    5  A    between atoms: C_10  and  C_17
REMARK                            x       y       z     vdW  Elec       q    Type
REMARK                         _______ _______ _______ _____ _____    ______ ____
ROOT
ATOM      1  C   UNL     1      29.393  21.866  16.616  0.00  0.00    +0.040 A 
ATOM      2  C   UNL     1      30.268  20.778  16.682  0.00  0.00    +0.013 A 
ATOM      3  C   UNL     1      31.332  20.695  15.781  0.00  0.00    +0.004 A 
ATOM      4  C   UNL     1      31.526  21.699  14.828  0.00  0.00    +0.046 A 
ATOM      5  C   UNL     1      30.658  22.793  14.765  0.00  0.00    +0.122 A 
ATOM      6  C   UNL     1      29.580  22.851  15.641  0.00  0.00    +0.058 A 
ENDROOT
BRANCH   1   8
ATOM      7  N   UNL     1      28.264  23.141  18.359  0.00  0.00    -0.325 N 
ATOM      8  C   UNL     1      28.249  22.045  17.545  0.00  0.00    +0.242 C 
ATOM      9  O   UNL     1      27.293  21.280  17.543  0.00  0.00    -0.270 OA
ATOM     10  H   UNL     1      27.409  23.316  18.873  0.00  0.00    +0.145 HD
ATOM     11  H   UNL     1      28.880  23.924  18.196  0.00  0.00    +0.145 HD
ENDBRANCH   1   8
BRANCH   5  12
ATOM     12  O   UNL     1      30.938  23.727  13.805  0.00  0.00    -0.484 OA
BRANCH  12  13
ATOM     13  C   UNL     1      32.315  24.102  13.619  0.00  0.00    +0.208 C 
BRANCH  13  14
ATOM     14  C   UNL     1      32.589  24.243  12.136  0.00  0.00    +0.011 A 
ATOM     15  C   UNL     1      31.997  25.284  11.407  0.00  0.00    +0.010 A 
ATOM     16  C   UNL     1      32.242  25.411  10.046  0.00  0.00    +0.020 A 
ATOM     17  C   UNL     1      33.080  24.487   9.448  0.00  0.00    +0.111 A 
ATOM     18  N   UNL     1      33.668  23.466  10.109  0.00  0.00    -0.263 NA
ATOM     19  C   UNL     1      33.408  23.366  11.435  0.00  0.00    +0.118 A 
ENDBRANCH  13  14
BRANCH  13  20
ATOM     20  C   UNL     1      32.586  25.409  14.331  0.00  0.00    +0.034 C 
ATOM     21  C   UNL     1      33.974  26.009  14.411  0.00  0.00    +0.008 C 
ATOM     22  C   UNL     1      33.345  25.434  15.643  0.00  0.00    +0.008 C 
ENDBRANCH  13  20
ENDBRANCH  12  13
ENDBRANCH   5  12
TORSDOF 5
ENDMDL
MODEL 2
REMARK VINA RESULT:      -6.0      2.933      6.059
REMARK  Name = ZINC001228612316
REMARK  5 active torsions:
REMARK  status: ('A' for Active; 'I' for Inactive)
REMARK    1  A    between atoms: C_2  and  C_4
REMARK    2  A    between atoms: C_8  and  O_9
REMARK    3  A    between atoms: O_9  and  C_10
REMARK    4  A    between atoms: C_10  and  C_11
REMARK    5  A    between atoms: C_10  and  C_17
REMARK                            x       y       z     vdW  Elec       q    Type
REMARK                         _______ _______ _______ _____ _____    ______ ____
ROOT
ATOM      1  C   UNL     1      31.803  25.701  13.612  0.00  0.00    +0.040 A 
ATOM      2  C   UNL     1      32.949  26.447  13.896  0.00  0.00    +0.013 A 
ATOM      3  C   UNL     1      33.835  26.002  14.880  0.00  0.00    +0.004 A 
ATOM      4  C   UNL     1      33.580  24.812  15.568  0.00  0.00    +0.046 A 
ATOM      5  C   UNL     1      32.439  24.058  15.281  0.00  0.00    +0.122 A 
ATOM      6  C   UNL     1      31.543  24.526  14.325  0.00  0.00    +0.058 A 
ENDROOT
BRANCH   1   8
ATOM      7  N   UNL     1      29.577  26.469  12.986  0.00  0.00    -0.325 N 
ATOM      8  C   UNL     1      30.820  26.088  12.569  0.00  0.00    +0.242 C 
ATOM      9  O   UNL     1      31.123  26.130  11.383  0.00  0.00    -0.270 OA
ATOM     10  H   UNL     1      28.978  26.865  12.271  0.00  0.00    +0.145 HD
ATOM     11  H   UNL     1      29.382  26.712  13.946  0.00  0.00    +0.145 HD
ENDBRANCH   1   8
BRANCH   5  12
ATOM     12  O   UNL     1      32.284  22.905  16.000  0.00  0.00    -0.484 OA
BRANCH  12  13
ATOM     13  C   UNL     1      31.098  22.123  15.762  0.00  0.00    +0.208 C 
BRANCH  13  14
ATOM     14  C   UNL     1      31.497  20.676  15.560  0.00  0.00    +0.011 A 
ATOM     15  C   UNL     1      32.065  19.949  16.614  0.00  0.00    +0.010 A 
ATOM     16  C   UNL     1      32.437  18.624  16.428  0.00  0.00    +0.020 A 
ATOM     17  C   UNL     1      32.227  18.059  15.182  0.00  0.00    +0.111 A 
ATOM     18  N   UNL     1      31.688  18.722  14.137  0.00  0.00    -0.263 NA
ATOM     19  C   UNL     1      31.338  20.015  14.348  0.00  0.00    +0.118 A 
ENDBRANCH  13  14
BRANCH  13  20
ATOM     20  C   UNL     1      30.162  22.251  16.944  0.00  0.00    +0.034 C 
ATOM     21  C   UNL     1      28.794  21.601  16.960  0.00  0.00    +0.008 C 
ATOM     22  C   UNL     1      28.903  23.090  16.847  0.00  0.00    +0.008 C 
ENDBRANCH  13  20
ENDBRANCH  12  13
ENDBRANCH   5  12
TORSDOF 5
ENDMDL
MODEL 3
REMARK VINA RESULT:      -5.9      2.596      6.464
REMARK  Name = ZINC001228612316
REMARK  5 active torsions:
REMARK  status: ('A' for Active; 'I' for Inactive)
REMARK    1  A    between atoms: C_2  and  C_4
REMARK    2  A    between atoms: C_8  and  O_9
REMARK    3  A    between atoms: O_9  and  C_10
REMARK    4  A    between atoms: C_10  and  C_11
REMARK    5  A    between atoms: C_10  and  C_17
REMARK                            x       y       z     vdW  Elec       q    Type
REMARK                         _______ _______ _______ _____ _____    ______ ____
ROOT
ATOM      1  C   UNL     1      32.319  24.907  11.321  0.00  0.00    +0.040 A 
ATOM      2  C   UNL     1      31.328  25.850  11.604  0.00  0.00    +0.013 A 
ATOM      3  C   UNL     1      30.677  25.816  12.840  0.00  0.00    +0.004 A 
ATOM      4  C   UNL     1      31.024  24.850  13.789  0.00  0.00    +0.046 A 
ATOM      5  C   UNL     1      32.021  23.911  13.513  0.00  0.00    +0.122 A 
ATOM      6  C   UNL     1      32.639  23.928  12.267  0.00  0.00    +0.058 A 
ENDROOT
BRANCH   1   8
ATOM      7  N   UNL     1      34.027  25.842   9.856  0.00  0.00    -0.325 N 
ATOM      8  C   UNL     1      33.075  24.882  10.043  0.00  0.00    +0.242 C 
ATOM      9  O   UNL     1      32.903  24.000   9.211  0.00  0.00    -0.270 OA
ATOM     10  H   UNL     1      34.624  25.715   9.048  0.00  0.00    +0.145 HD
ATOM     11  H   UNL     1      34.385  26.401  10.617  0.00  0.00    +0.145 HD
ENDBRANCH   1   8
BRANCH   5  12
ATOM     12  O   UNL     1      32.294  23.014  14.509  0.00  0.00    -0.484 OA
BRANCH  12  13
ATOM     13  C   UNL     1      31.315  21.994  14.778  0.00  0.00    +0.208 C 
BRANCH  13  14
ATOM     14  C   UNL     1      31.979  20.637  14.676  0.00  0.00    +0.011 A 
ATOM     15  C   UNL     1      31.330  19.583  14.018  0.00  0.00    +0.010 A 
ATOM     16  C   UNL     1      31.936  18.336  13.929  0.00  0.00    +0.020 A 
ATOM     17  C   UNL     1      33.184  18.178  14.504  0.00  0.00    +0.111 A 
ATOM     18  N   UNL     1      33.844  19.162  15.152  0.00  0.00    -0.263 NA
ATOM     19  C   UNL     1      33.227  20.367  15.226  0.00  0.00    +0.118 A 
ENDBRANCH  13  14
BRANCH  13  20
ATOM     20  C   UNL     1      30.739  22.195  16.163  0.00  0.00    +0.034 C 
ATOM     21  C   UNL     1      29.721  21.245  16.757  0.00  0.00    +0.008 C 
ATOM     22  C   UNL     1      29.296  22.621  16.347  0.00  0.00    +0.008 C 
ENDBRANCH  13  20
ENDBRANCH  12  13
ENDBRANCH   5  12
TORSDOF 5
ENDMDL
MODEL 4
REMARK VINA RESULT:      -5.8      2.312      6.799
REMARK  Name = ZINC001228612316
REMARK  5 active torsions:
REMARK  status: ('A' for Active; 'I' for Inactive)
REMARK    1  A    between atoms: C_2  and  C_4
REMARK    2  A    between atoms: C_8  and  O_9
REMARK    3  A    between atoms: O_9  and  C_10
REMARK    4  A    between atoms: C_10  and  C_11
REMARK    5  A    between atoms: C_10  and  C_17
REMARK                            x       y       z     vdW  Elec       q    Type
REMARK                         _______ _______ _______ _____ _____    ______ ____
ROOT
ATOM      1  C   UNL     1      32.433  24.279  11.630  0.00  0.00    +0.040 A 
ATOM      2  C   UNL     1      32.050  25.526  11.131  0.00  0.00    +0.013 A 
ATOM      3  C   UNL     1      31.133  26.302  11.845  0.00  0.00    +0.004 A 
ATOM      4  C   UNL     1      30.612  25.835  13.056  0.00  0.00    +0.046 A 
ATOM      5  C   UNL     1      31.000  24.592  13.562  0.00  0.00    +0.122 A 
ATOM      6  C   UNL     1      31.885  23.810  12.828  0.00  0.00    +0.058 A 
ENDROOT
BRANCH   1   8
ATOM      7  N   UNL     1      32.930  22.478  10.065  0.00  0.00    -0.325 N 
ATOM      8  C   UNL     1      33.416  23.399  10.948  0.00  0.00    +0.242 C 
ATOM      9  O   UNL     1      34.622  23.531  11.116  0.00  0.00    -0.270 OA
ATOM     10  H   UNL     1      33.626  21.995   9.510  0.00  0.00    +0.145 HD
ATOM     11  H   UNL     1      31.991  22.527   9.698  0.00  0.00    +0.145 HD
ENDBRANCH   1   8
BRANCH   5  12
ATOM     12  O   UNL     1      30.443  24.230  14.758  0.00  0.00    -0.484 OA
BRANCH  12  13
ATOM     13  C   UNL     1      31.114  23.217  15.529  0.00  0.00    +0.208 C 
BRANCH  13  14
ATOM     14  C   UNL     1      31.196  23.671  16.971  0.00  0.00    +0.011 A 
ATOM     15  C   UNL     1      30.040  24.092  17.643  0.00  0.00    +0.010 A 
ATOM     16  C   UNL     1      30.115  24.515  18.964  0.00  0.00    +0.020 A 
ATOM     17  C   UNL     1      31.353  24.504  19.580  0.00  0.00    +0.111 A 
ATOM     18  N   UNL     1      32.493  24.112  18.972  0.00  0.00    -0.263 NA
ATOM     19  C   UNL     1      32.390  23.708  17.682  0.00  0.00    +0.118 A 
ENDBRANCH  13  14
BRANCH  13  20
ATOM     20  C   UNL     1      30.350  21.915  15.430  0.00  0.00    +0.034 C 
ATOM     21  C   UNL     1      30.651  20.735  16.329  0.00  0.00    +0.008 C 
ATOM     22  C   UNL     1      31.012  20.668  14.877  0.00  0.00    +0.008 C 
ENDBRANCH  13  20
ENDBRANCH  12  13
ENDBRANCH   5  12
TORSDOF 5
ENDMDL
MODEL 5
REMARK VINA RESULT:      -5.7      4.074      5.947
REMARK  Name = ZINC001228612316
REMARK  5 active torsions:
REMARK  status: ('A' for Active; 'I' for Inactive)
REMARK    1  A    between atoms: C_2  and  C_4
REMARK    2  A    between atoms: C_8  and  O_9
REMARK    3  A    between atoms: O_9  and  C_10
REMARK    4  A    between atoms: C_10  and  C_11
REMARK    5  A    between atoms: C_10  and  C_17
REMARK                            x       y       z     vdW  Elec       q    Type
REMARK                         _______ _______ _______ _____ _____    ______ ____
ROOT
ATOM      1  C   UNL     1      31.883  26.151  12.257  0.00  0.00    +0.040 A 
ATOM      2  C   UNL     1      32.395  27.396  12.630  0.00  0.00    +0.013 A 
ATOM      3  C   UNL     1      33.517  27.904  11.971  0.00  0.00    +0.004 A 
ATOM      4  C   UNL     1      34.116  27.174  10.939  0.00  0.00    +0.046 A 
ATOM      5  C   UNL     1      33.600  25.933  10.558  0.00  0.00    +0.122 A 
ATOM      6  C   UNL     1      32.505  25.417  11.243  0.00  0.00    +0.058 A 
ENDROOT
BRANCH   1   8
ATOM      7  N   UNL     1      29.601  26.352  13.088  0.00  0.00    -0.325 N 
ATOM      8  C   UNL     1      30.683  25.545  12.889  0.00  0.00    +0.242 C 
ATOM      9  O   UNL     1      30.634  24.352  13.163  0.00  0.00    -0.270 OA
ATOM     10  H   UNL     1      28.753  25.882  13.383  0.00  0.00    +0.145 HD
ATOM     11  H   UNL     1      29.504  27.246  12.630  0.00  0.00    +0.145 HD
ENDBRANCH   1   8
BRANCH   5  12
ATOM     12  O   UNL     1      34.249  25.303   9.532  0.00  0.00    -0.484 OA
BRANCH  12  13
ATOM     13  C   UNL     1      34.853  24.025   9.807  0.00  0.00    +0.208 C 
BRANCH  13  14
ATOM     14  C   UNL     1      35.383  23.443   8.513  0.00  0.00    +0.011 A 
ATOM     15  C   UNL     1      35.298  22.065   8.275  0.00  0.00    +0.010 A 
ATOM     16  C   UNL     1      35.789  21.529   7.091  0.00  0.00    +0.020 A 
ATOM     17  C   UNL     1      36.353  22.395   6.171  0.00  0.00    +0.111 A 
ATOM     18  N   UNL     1      36.460  23.727   6.359  0.00  0.00    -0.263 NA
ATOM     19  C   UNL     1      35.976  24.221   7.525  0.00  0.00    +0.118 A 
ENDBRANCH  13  14
BRANCH  13  20
ATOM     20  C   UNL     1      35.978  24.201  10.804  0.00  0.00    +0.034 C 
ATOM     21  C   UNL     1      36.835  23.039  11.261  0.00  0.00    +0.008 C 
ATOM     22  C   UNL     1      35.856  23.654  12.213  0.00  0.00    +0.008 C 
ENDBRANCH  13  20
ENDBRANCH  12  13
ENDBRANCH   5  12
TORSDOF 5
ENDMDL
MODEL 6
REMARK VINA RESULT:      -5.7      2.057      2.551
REMARK  Name = ZINC001228612316
REMARK  5 active torsions:
REMARK  status: ('A' for Active; 'I' for Inactive)
REMARK    1  A    between atoms: C_2  and  C_4
REMARK    2  A    between atoms: C_8  and  O_9
REMARK    3  A    between atoms: O_9  and  C_10
REMARK    4  A    between atoms: C_10  and  C_11
REMARK    5  A    between atoms: C_10  and  C_17
REMARK                            x       y       z     vdW  Elec       q    Type
REMARK                         _______ _______ _______ _____ _____    ______ ____
ROOT
ATOM      1  C   UNL     1      31.070  20.403  15.664  0.00  0.00    +0.040 A 
ATOM      2  C   UNL     1      30.135  20.646  16.672  0.00  0.00    +0.013 A 
ATOM      3  C   UNL     1      29.518  21.898  16.753  0.00  0.00    +0.004 A 
ATOM      4  C   UNL     1      29.829  22.895  15.823  0.00  0.00    +0.046 A 
ATOM      5  C   UNL     1      30.758  22.652  14.808  0.00  0.00    +0.122 A 
ATOM      6  C   UNL     1      31.395  21.416  14.756  0.00  0.00    +0.058 A 
ENDROOT
BRANCH   1   8
ATOM      7  N   UNL     1      32.565  18.951  14.401  0.00  0.00    -0.325 N 
ATOM      8  C   UNL     1      31.758  19.099  15.492  0.00  0.00    +0.242 C 
ATOM      9  O   UNL     1      31.661  18.206  16.326  0.00  0.00    -0.270 OA
ATOM     10  H   UNL     1      33.132  18.111  14.387  0.00  0.00    +0.145 HD
ATOM     11  H   UNL     1      32.884  19.739  13.857  0.00  0.00    +0.145 HD
ENDBRANCH   1   8
BRANCH   5  12
ATOM     12  O   UNL     1      30.986  23.686  13.943  0.00  0.00    -0.484 OA
BRANCH  12  13
ATOM     13  C   UNL     1      32.352  24.081  13.717  0.00  0.00    +0.208 C 
BRANCH  13  14
ATOM     14  C   UNL     1      32.576  24.247  12.229  0.00  0.00    +0.011 A 
ATOM     15  C   UNL     1      31.968  25.305  11.540  0.00  0.00    +0.010 A 
ATOM     16  C   UNL     1      32.167  25.454  10.173  0.00  0.00    +0.020 A 
ATOM     17  C   UNL     1      32.977  24.535   9.530  0.00  0.00    +0.111 A 
ATOM     18  N   UNL     1      33.579  23.499  10.152  0.00  0.00    -0.263 NA
ATOM     19  C   UNL     1      33.363  23.376  11.484  0.00  0.00    +0.118 A 
ENDBRANCH  13  14
BRANCH  13  20
ATOM     20  C   UNL     1      32.631  25.381  14.440  0.00  0.00    +0.034 C 
ATOM     21  C   UNL     1      34.026  25.960  14.544  0.00  0.00    +0.008 C 
ATOM     22  C   UNL     1      33.371  25.388  15.763  0.00  0.00    +0.008 C 
ENDBRANCH  13  20
ENDBRANCH  12  13
ENDBRANCH   5  12
TORSDOF 5
ENDMDL
MODEL 7
REMARK VINA RESULT:      -5.7      1.964      6.521
REMARK  Name = ZINC001228612316
REMARK  5 active torsions:
REMARK  status: ('A' for Active; 'I' for Inactive)
REMARK    1  A    between atoms: C_2  and  C_4
REMARK    2  A    between atoms: C_8  and  O_9
REMARK    3  A    between atoms: O_9  and  C_10
REMARK    4  A    between atoms: C_10  and  C_11
REMARK    5  A    between atoms: C_10  and  C_17
REMARK                            x       y       z     vdW  Elec       q    Type
REMARK                         _______ _______ _______ _____ _____    ______ ____
ROOT
ATOM      1  C   UNL     1      32.424  24.552  10.934  0.00  0.00    +0.040 A 
ATOM      2  C   UNL     1      31.762  25.777  11.044  0.00  0.00    +0.013 A 
ATOM      3  C   UNL     1      31.435  26.272  12.309  0.00  0.00    +0.004 A 
ATOM      4  C   UNL     1      31.778  25.548  13.456  0.00  0.00    +0.046 A 
ATOM      5  C   UNL     1      32.447  24.327  13.349  0.00  0.00    +0.122 A 
ATOM      6  C   UNL     1      32.738  23.824  12.085  0.00  0.00    +0.058 A 
ENDROOT
BRANCH   1   8
ATOM      7  N   UNL     1      33.299  24.813   8.674  0.00  0.00    -0.325 N 
ATOM      8  C   UNL     1      32.829  23.962   9.632  0.00  0.00    +0.242 C 
ATOM      9  O   UNL     1      32.806  22.753   9.440  0.00  0.00    -0.270 OA
ATOM     10  H   UNL     1      33.702  24.371   7.856  0.00  0.00    +0.145 HD
ATOM     11  H   UNL     1      33.591  25.756   8.887  0.00  0.00    +0.145 HD
ENDBRANCH   1   8
BRANCH   5  12
ATOM     12  O   UNL     1      32.748  23.702  14.528  0.00  0.00    -0.484 OA
BRANCH  12  13
ATOM     13  C   UNL     1      32.133  24.206  15.728  0.00  0.00    +0.208 C 
BRANCH  13  14
ATOM     14  C   UNL     1      31.037  23.253  16.156  0.00  0.00    +0.011 A 
ATOM     15  C   UNL     1      31.280  21.873  16.195  0.00  0.00    +0.010 A 
ATOM     16  C   UNL     1      30.273  20.997  16.581  0.00  0.00    +0.020 A 
ATOM     17  C   UNL     1      29.043  21.531  16.922  0.00  0.00    +0.111 A 
ATOM     18  N   UNL     1      28.763  22.851  16.895  0.00  0.00    -0.263 NA
ATOM     19  C   UNL     1      29.763  23.681  16.511  0.00  0.00    +0.118 A 
ENDBRANCH  13  14
BRANCH  13  20
ATOM     20  C   UNL     1      33.175  24.333  16.817  0.00  0.00    +0.034 C 
ATOM     21  C   UNL     1      32.957  25.196  18.042  0.00  0.00    +0.008 C 
ATOM     22  C   UNL     1      33.947  25.625  17.004  0.00  0.00    +0.008 C 
ENDBRANCH  13  20
ENDBRANCH  12  13
ENDBRANCH   5  12
TORSDOF 5
ENDMDL
MODEL 8
REMARK VINA RESULT:      -5.7      2.172      3.179
REMARK  Name = ZINC001228612316
REMARK  5 active torsions:
REMARK  status: ('A' for Active; 'I' for Inactive)
REMARK    1  A    between atoms: C_2  and  C_4
REMARK    2  A    between atoms: C_8  and  O_9
REMARK    3  A    between atoms: O_9  and  C_10
REMARK    4  A    between atoms: C_10  and  C_11
REMARK    5  A    between atoms: C_10  and  C_17
REMARK                            x       y       z     vdW  Elec       q    Type
REMARK                         _______ _______ _______ _____ _____    ______ ____
ROOT
ATOM      1  C   UNL     1      29.849  23.703  17.739  0.00  0.00    +0.040 A 
ATOM      2  C   UNL     1      28.927  22.680  17.504  0.00  0.00    +0.013 A 
ATOM      3  C   UNL     1      28.967  21.982  16.294  0.00  0.00    +0.004 A 
ATOM      4  C   UNL     1      29.930  22.300  15.332  0.00  0.00    +0.046 A 
ATOM      5  C   UNL     1      30.859  23.317  15.568  0.00  0.00    +0.122 A 
ATOM      6  C   UNL     1      30.790  24.031  16.759  0.00  0.00    +0.058 A 
ENDROOT
BRANCH   1   8
ATOM      7  N   UNL     1      28.743  24.557  19.737  0.00  0.00    -0.325 N 
ATOM      8  C   UNL     1      29.892  24.481  19.003  0.00  0.00    +0.242 C 
ATOM      9  O   UNL     1      30.931  24.985  19.413  0.00  0.00    -0.270 OA
ATOM     10  H   UNL     1      28.839  24.966  20.658  0.00  0.00    +0.145 HD
ATOM     11  H   UNL     1      27.963  23.936  19.579  0.00  0.00    +0.145 HD
ENDBRANCH   1   8
BRANCH   5  12
ATOM     12  O   UNL     1      31.766  23.545  14.570  0.00  0.00    -0.484 OA
BRANCH  12  13
ATOM     13  C   UNL     1      31.953  24.904  14.134  0.00  0.00    +0.208 C 
BRANCH  13  14
ATOM     14  C   UNL     1      33.431  25.149  13.910  0.00  0.00    +0.011 A 
ATOM     15  C   UNL     1      34.051  26.271  14.477  0.00  0.00    +0.010 A 
ATOM     16  C   UNL     1      35.405  26.501  14.268  0.00  0.00    +0.020 A 
ATOM     17  C   UNL     1      36.106  25.594  13.493  0.00  0.00    +0.111 A 
ATOM     18  N   UNL     1      35.549  24.503  12.923  0.00  0.00    -0.263 NA
ATOM     19  C   UNL     1      34.226  24.307  13.142  0.00  0.00    +0.118 A 
ENDBRANCH  13  14
BRANCH  13  20
ATOM     20  C   UNL     1      31.182  25.136  12.853  0.00  0.00    +0.034 C 
ATOM     21  C   UNL     1      31.484  26.299  11.932  0.00  0.00    +0.008 C 
ATOM     22  C   UNL     1      30.217  26.299  12.730  0.00  0.00    +0.008 C 
ENDBRANCH  13  20
ENDBRANCH  12  13
ENDBRANCH   5  12
TORSDOF 5
ENDMDL
MODEL 9
REMARK VINA RESULT:      -5.6      3.144      5.254
REMARK  Name = ZINC001228612316
REMARK  5 active torsions:
REMARK  status: ('A' for Active; 'I' for Inactive)
REMARK    1  A    between atoms: C_2  and  C_4
REMARK    2  A    between atoms: C_8  and  O_9
REMARK    3  A    between atoms: O_9  and  C_10
REMARK    4  A    between atoms: C_10  and  C_11
REMARK    5  A    between atoms: C_10  and  C_17
REMARK                            x       y       z     vdW  Elec       q    Type
REMARK                         _______ _______ _______ _____ _____    ______ ____
ROOT
ATOM      1  C   UNL     1      32.781  18.233  14.262  0.00  0.00    +0.040 A 
ATOM      2  C   UNL     1      33.065  17.923  15.594  0.00  0.00    +0.013 A 
ATOM      3  C   UNL     1      32.519  18.703  16.616  0.00  0.00    +0.004 A 
ATOM      4  C   UNL     1      31.684  19.781  16.305  0.00  0.00    +0.046 A 
ATOM      5  C   UNL     1      31.390  20.089  14.974  0.00  0.00    +0.122 A 
ATOM      6  C   UNL     1      31.967  19.330  13.961  0.00  0.00    +0.058 A 
ENDROOT
BRANCH   1   8
ATOM      7  N   UNL     1      33.831  18.138  12.065  0.00  0.00    -0.325 N 
ATOM      8  C   UNL     1      33.301  17.446  13.116  0.00  0.00    +0.242 C 
ATOM      9  O   UNL     1      33.319  16.221  13.132  0.00  0.00    -0.270 OA
ATOM     10  H   UNL     1      34.308  17.578  11.368  0.00  0.00    +0.145 HD
ATOM     11  H   UNL     1      34.085  19.112  12.135  0.00  0.00    +0.145 HD
ENDBRANCH   1   8
BRANCH   5  12
ATOM     12  O   UNL     1      30.556  21.155  14.774  0.00  0.00    -0.484 OA
BRANCH  12  13
ATOM     13  C   UNL     1      30.635  22.250  15.706  0.00  0.00    +0.208 C 
BRANCH  13  14
ATOM     14  C   UNL     1      31.250  23.445  15.008  0.00  0.00    +0.011 A 
ATOM     15  C   UNL     1      30.749  23.872  13.771  0.00  0.00    +0.010 A 
ATOM     16  C   UNL     1      31.317  24.964  13.127  0.00  0.00    +0.020 A 
ATOM     17  C   UNL     1      32.377  25.604  13.745  0.00  0.00    +0.111 A 
ATOM     18  N   UNL     1      32.895  25.225  14.933  0.00  0.00    -0.263 NA
ATOM     19  C   UNL     1      32.323  24.154  15.535  0.00  0.00    +0.118 A 
ENDBRANCH  13  14
BRANCH  13  20
ATOM     20  C   UNL     1      29.249  22.589  16.208  0.00  0.00    +0.034 C 
ATOM     21  C   UNL     1      28.996  23.034  17.633  0.00  0.00    +0.008 C 
ATOM     22  C   UNL     1      28.536  21.680  17.190  0.00  0.00    +0.008 C 
ENDBRANCH  13  20
ENDBRANCH  12  13
ENDBRANCH   5  12
TORSDOF 5
ENDMDL
