MODEL 1
REMARK VINA RESULT:      -7.1      0.000      0.000
REMARK  Name = ZINC000826139982
REMARK  4 active torsions:
REMARK  status: ('A' for Active; 'I' for Inactive)
REMARK    1  A    between atoms: C_2  and  C_4
REMARK    2  A    between atoms: C_8  and  C_10
REMARK    3  A    between atoms: C_14  and  S_15
REMARK    4  A    between atoms: S_15  and  C_16
REMARK                            x       y       z     vdW  Elec       q    Type
REMARK                         _______ _______ _______ _____ _____    ______ ____
ROOT
ATOM      1  C   UNL     1      29.108  22.467  16.642  0.00  0.00    +0.093 C 
ATOM      2  C   UNL     1      28.501  21.244  17.329  0.00  0.00    +0.033 C 
ATOM      3  C   UNL     1      29.668  20.267  17.328  0.00  0.00    +0.109 C 
ATOM      4  N   UNL     1      30.216  20.444  15.991  0.00  0.00    -0.297 N 
ATOM      5  C   UNL     1      30.920  19.577  15.165  0.00  0.00    +0.247 C 
ATOM      6  O   UNL     1      31.413  19.975  14.106  0.00  0.00    -0.270 OA
ATOM      7  C   UNL     1      30.050  21.847  15.599  0.00  0.00    +0.120 C 
ENDROOT
BRANCH   5   8
ATOM      8  C   UNL     1      31.134  18.142  15.525  0.00  0.00    +0.038 A 
ATOM      9  C   UNL     1      32.271  17.673  16.182  0.00  0.00    +0.013 A 
ATOM     10  C   UNL     1      32.455  16.307  16.410  0.00  0.00    +0.002 A 
ATOM     11  C   UNL     1      31.436  15.409  16.109  0.00  0.00    +0.015 A 
ATOM     12  C   UNL     1      30.216  15.877  15.616  0.00  0.00    +0.017 A 
ATOM     13  C   UNL     1      30.084  17.235  15.286  0.00  0.00    +0.028 A 
BRANCH  12  14
ATOM     14  S   UNL     1      28.839  14.771  15.388  0.00  0.00    -0.016 S 
BRANCH  14  15
ATOM     15  C   UNL     1      29.042  14.308  13.654  0.00  0.00    +0.448 C 
ATOM     16  F   UNL     1      28.804  15.317  12.782  0.00  0.00    -0.160 F 
ATOM     17  F   UNL     1      30.300  13.867  13.415  0.00  0.00    -0.160 F 
ATOM     18  F   UNL     1      28.197  13.299  13.327  0.00  0.00    -0.160 F 
ENDBRANCH  14  15
ENDBRANCH  12  14
ENDBRANCH   5   8
BRANCH   1  20
ATOM     19  N   UNL     1      29.090  23.732  18.738  0.00  0.00    -0.329 N 
ATOM     20  C   UNL     1      29.822  23.346  17.657  0.00  0.00    +0.215 C 
ATOM     21  O   UNL     1      31.000  23.677  17.570  0.00  0.00    -0.276 OA
ATOM     22  H   UNL     1      29.586  24.240  19.458  0.00  0.00    +0.145 HD
ATOM     23  H   UNL     1      28.173  23.366  18.949  0.00  0.00    +0.145 HD
ENDBRANCH   1  20
TORSDOF 4
ENDMDL
MODEL 2
REMARK VINA RESULT:      -6.9      1.290      1.451
REMARK  Name = ZINC000826139982
REMARK  4 active torsions:
REMARK  status: ('A' for Active; 'I' for Inactive)
REMARK    1  A    between atoms: C_2  and  C_4
REMARK    2  A    between atoms: C_8  and  C_10
REMARK    3  A    between atoms: C_14  and  S_15
REMARK    4  A    between atoms: S_15  and  C_16
REMARK                            x       y       z     vdW  Elec       q    Type
REMARK                         _______ _______ _______ _____ _____    ______ ____
ROOT
ATOM      1  C   UNL     1      28.894  22.526  16.843  0.00  0.00    +0.093 C 
ATOM      2  C   UNL     1      28.333  21.183  17.309  0.00  0.00    +0.033 C 
ATOM      3  C   UNL     1      29.582  20.314  17.353  0.00  0.00    +0.109 C 
ATOM      4  N   UNL     1      30.265  20.696  16.124  0.00  0.00    -0.297 N 
ATOM      5  C   UNL     1      31.144  19.997  15.307  0.00  0.00    +0.247 C 
ATOM      6  O   UNL     1      31.717  20.559  14.370  0.00  0.00    -0.270 OA
ATOM      7  C   UNL     1      30.010  22.117  15.870  0.00  0.00    +0.120 C 
ENDROOT
BRANCH   5   8
ATOM      8  C   UNL     1      31.454  18.552  15.534  0.00  0.00    +0.038 A 
ATOM      9  C   UNL     1      32.354  18.097  16.497  0.00  0.00    +0.013 A 
ATOM     10  C   UNL     1      32.671  16.741  16.600  0.00  0.00    +0.002 A 
ATOM     11  C   UNL     1      31.982  15.807  15.833  0.00  0.00    +0.015 A 
ATOM     12  C   UNL     1      30.947  16.222  14.990  0.00  0.00    +0.017 A 
ATOM     13  C   UNL     1      30.717  17.594  14.811  0.00  0.00    +0.028 A 
BRANCH  12  14
ATOM     14  S   UNL     1      29.937  15.033  14.131  0.00  0.00    -0.016 S 
BRANCH  14  15
ATOM     15  C   UNL     1      28.631  14.739  15.344  0.00  0.00    +0.448 C 
ATOM     16  F   UNL     1      29.079  14.268  16.533  0.00  0.00    -0.160 F 
ATOM     17  F   UNL     1      27.944  15.877  15.602  0.00  0.00    -0.160 F 
ATOM     18  F   UNL     1      27.739  13.832  14.874  0.00  0.00    -0.160 F 
ENDBRANCH  14  15
ENDBRANCH  12  14
ENDBRANCH   5   8
BRANCH   1  20
ATOM     19  N   UNL     1      28.462  23.662  18.968  0.00  0.00    -0.329 N 
ATOM     20  C   UNL     1      29.393  23.334  18.031  0.00  0.00    +0.215 C 
ATOM     21  O   UNL     1      30.565  23.655  18.200  0.00  0.00    -0.276 OA
ATOM     22  H   UNL     1      28.805  24.120  19.802  0.00  0.00    +0.145 HD
ATOM     23  H   UNL     1      27.521  23.295  18.971  0.00  0.00    +0.145 HD
ENDBRANCH   1  20
TORSDOF 4
ENDMDL
MODEL 3
REMARK VINA RESULT:      -6.4      1.876      2.349
REMARK  Name = ZINC000826139982
REMARK  4 active torsions:
REMARK  status: ('A' for Active; 'I' for Inactive)
REMARK    1  A    between atoms: C_2  and  C_4
REMARK    2  A    between atoms: C_8  and  C_10
REMARK    3  A    between atoms: C_14  and  S_15
REMARK    4  A    between atoms: S_15  and  C_16
REMARK                            x       y       z     vdW  Elec       q    Type
REMARK                         _______ _______ _______ _____ _____    ______ ____
ROOT
ATOM      1  C   UNL     1      31.640  22.227  15.083  0.00  0.00    +0.093 C 
ATOM      2  C   UNL     1      30.417  21.659  14.362  0.00  0.00    +0.033 C 
ATOM      3  C   UNL     1      30.102  20.426  15.196  0.00  0.00    +0.109 C 
ATOM      4  N   UNL     1      31.426  19.867  15.431  0.00  0.00    -0.297 N 
ATOM      5  C   UNL     1      31.843  18.562  15.662  0.00  0.00    +0.247 C 
ATOM      6  O   UNL     1      33.013  18.319  15.971  0.00  0.00    -0.270 OA
ATOM      7  C   UNL     1      32.385  20.968  15.549  0.00  0.00    +0.120 C 
ENDROOT
BRANCH   5   8
ATOM      8  C   UNL     1      30.902  17.404  15.574  0.00  0.00    +0.038 A 
ATOM      9  C   UNL     1      29.776  17.261  16.384  0.00  0.00    +0.013 A 
ATOM     10  C   UNL     1      28.985  16.112  16.318  0.00  0.00    +0.002 A 
ATOM     11  C   UNL     1      29.233  15.154  15.339  0.00  0.00    +0.015 A 
ATOM     12  C   UNL     1      30.246  15.362  14.399  0.00  0.00    +0.017 A 
ATOM     13  C   UNL     1      31.103  16.463  14.546  0.00  0.00    +0.028 A 
BRANCH  12  14
ATOM     14  S   UNL     1      30.469  14.240  13.034  0.00  0.00    -0.016 S 
BRANCH  14  15
ATOM     15  C   UNL     1      28.765  14.017  12.479  0.00  0.00    +0.448 C 
ATOM     16  F   UNL     1      28.054  13.134  13.220  0.00  0.00    -0.160 F 
ATOM     17  F   UNL     1      28.089  15.190  12.506  0.00  0.00    -0.160 F 
ATOM     18  F   UNL     1      28.735  13.569  11.199  0.00  0.00    -0.160 F 
ENDBRANCH  14  15
ENDBRANCH  12  14
ENDBRANCH   5   8
BRANCH   1  20
ATOM     19  N   UNL     1      30.187  23.993  15.958  0.00  0.00    -0.329 N 
ATOM     20  C   UNL     1      31.208  23.134  16.225  0.00  0.00    +0.215 C 
ATOM     21  O   UNL     1      31.692  23.096  17.352  0.00  0.00    -0.276 OA
ATOM     22  H   UNL     1      29.837  24.533  16.739  0.00  0.00    +0.145 HD
ATOM     23  H   UNL     1      29.642  23.964  15.108  0.00  0.00    +0.145 HD
ENDBRANCH   1  20
TORSDOF 4
ENDMDL
MODEL 4
REMARK VINA RESULT:      -6.1      5.784      6.971
REMARK  Name = ZINC000826139982
REMARK  4 active torsions:
REMARK  status: ('A' for Active; 'I' for Inactive)
REMARK    1  A    between atoms: C_2  and  C_4
REMARK    2  A    between atoms: C_8  and  C_10
REMARK    3  A    between atoms: C_14  and  S_15
REMARK    4  A    between atoms: S_15  and  C_16
REMARK                            x       y       z     vdW  Elec       q    Type
REMARK                         _______ _______ _______ _____ _____    ______ ____
ROOT
ATOM      1  C   UNL     1      28.757  22.171  18.013  0.00  0.00    +0.093 C 
ATOM      2  C   UNL     1      30.000  23.045  18.183  0.00  0.00    +0.033 C 
ATOM      3  C   UNL     1      30.231  23.547  16.765  0.00  0.00    +0.109 C 
ATOM      4  N   UNL     1      30.000  22.347  15.973  0.00  0.00    -0.297 N 
ATOM      5  C   UNL     1      30.497  21.954  14.736  0.00  0.00    +0.247 C 
ATOM      6  O   UNL     1      30.066  20.943  14.175  0.00  0.00    -0.270 OA
ATOM      7  C   UNL     1      28.955  21.552  16.622  0.00  0.00    +0.120 C 
ENDROOT
BRANCH   5   8
ATOM      8  C   UNL     1      31.549  22.740  14.021  0.00  0.00    +0.038 A 
ATOM      9  C   UNL     1      32.887  22.777  14.415  0.00  0.00    +0.013 A 
ATOM     10  C   UNL     1      33.805  23.601  13.761  0.00  0.00    +0.002 A 
ATOM     11  C   UNL     1      33.424  24.291  12.614  0.00  0.00    +0.015 A 
ATOM     12  C   UNL     1      32.137  24.128  12.095  0.00  0.00    +0.017 A 
ATOM     13  C   UNL     1      31.193  23.388  12.823  0.00  0.00    +0.028 A 
BRANCH  12  14
ATOM     14  S   UNL     1      31.681  24.860  10.538  0.00  0.00    -0.016 S 
BRANCH  14  15
ATOM     15  C   UNL     1      32.634  23.851   9.382  0.00  0.00    +0.448 C 
ATOM     16  F   UNL     1      32.149  23.854   8.117  0.00  0.00    -0.160 F 
ATOM     17  F   UNL     1      33.918  24.275   9.313  0.00  0.00    -0.160 F 
ATOM     18  F   UNL     1      32.662  22.557   9.788  0.00  0.00    -0.160 F 
ENDBRANCH  14  15
ENDBRANCH  12  14
ENDBRANCH   5   8
BRANCH   1  20
ATOM     19  N   UNL     1      27.409  23.821  19.221  0.00  0.00    -0.329 N 
ATOM     20  C   UNL     1      27.497  23.015  18.127  0.00  0.00    +0.215 C 
ATOM     21  O   UNL     1      26.606  23.035  17.283  0.00  0.00    -0.276 OA
ATOM     22  H   UNL     1      26.617  24.449  19.254  0.00  0.00    +0.145 HD
ATOM     23  H   UNL     1      28.172  23.971  19.865  0.00  0.00    +0.145 HD
ENDBRANCH   1  20
TORSDOF 4
ENDMDL
MODEL 5
REMARK VINA RESULT:      -6.1      2.252      2.769
REMARK  Name = ZINC000826139982
REMARK  4 active torsions:
REMARK  status: ('A' for Active; 'I' for Inactive)
REMARK    1  A    between atoms: C_2  and  C_4
REMARK    2  A    between atoms: C_8  and  C_10
REMARK    3  A    between atoms: C_14  and  S_15
REMARK    4  A    between atoms: S_15  and  C_16
REMARK                            x       y       z     vdW  Elec       q    Type
REMARK                         _______ _______ _______ _____ _____    ______ ____
ROOT
ATOM      1  C   UNL     1      31.624  21.786  14.852  0.00  0.00    +0.093 C 
ATOM      2  C   UNL     1      30.415  21.262  14.078  0.00  0.00    +0.033 C 
ATOM      3  C   UNL     1      30.013  20.047  14.901  0.00  0.00    +0.109 C 
ATOM      4  N   UNL     1      31.301  19.438  15.199  0.00  0.00    -0.297 N 
ATOM      5  C   UNL     1      31.655  18.119  15.455  0.00  0.00    +0.247 C 
ATOM      6  O   UNL     1      32.799  17.832  15.819  0.00  0.00    -0.270 OA
ATOM      7  C   UNL     1      32.296  20.502  15.357  0.00  0.00    +0.120 C 
ENDROOT
BRANCH   5   8
ATOM      8  C   UNL     1      30.675  16.998  15.328  0.00  0.00    +0.038 A 
ATOM      9  C   UNL     1      29.719  16.695  16.298  0.00  0.00    +0.013 A 
ATOM     10  C   UNL     1      28.891  15.579  16.164  0.00  0.00    +0.002 A 
ATOM     11  C   UNL     1      28.912  14.835  14.988  0.00  0.00    +0.015 A 
ATOM     12  C   UNL     1      29.734  15.227  13.928  0.00  0.00    +0.017 A 
ATOM     13  C   UNL     1      30.642  16.280  14.117  0.00  0.00    +0.028 A 
BRANCH  12  14
ATOM     14  S   UNL     1      29.652  14.398  12.355  0.00  0.00    -0.016 S 
BRANCH  14  15
ATOM     15  C   UNL     1      31.317  13.709  12.233  0.00  0.00    +0.448 C 
ATOM     16  F   UNL     1      31.386  12.556  11.525  0.00  0.00    -0.160 F 
ATOM     17  F   UNL     1      32.162  14.587  11.642  0.00  0.00    -0.160 F 
ATOM     18  F   UNL     1      31.815  13.443  13.465  0.00  0.00    -0.160 F 
ENDBRANCH  14  15
ENDBRANCH  12  14
ENDBRANCH   5   8
BRANCH   1  20
ATOM     19  N   UNL     1      30.511  23.840  15.587  0.00  0.00    -0.329 N 
ATOM     20  C   UNL     1      31.175  22.716  15.970  0.00  0.00    +0.215 C 
ATOM     21  O   UNL     1      31.342  22.484  17.163  0.00  0.00    -0.276 OA
ATOM     22  H   UNL     1      30.133  24.414  16.329  0.00  0.00    +0.145 HD
ATOM     23  H   UNL     1      30.202  24.010  14.640  0.00  0.00    +0.145 HD
ENDBRANCH   1  20
TORSDOF 4
ENDMDL
MODEL 6
REMARK VINA RESULT:      -6.0      5.431      7.067
REMARK  Name = ZINC000826139982
REMARK  4 active torsions:
REMARK  status: ('A' for Active; 'I' for Inactive)
REMARK    1  A    between atoms: C_2  and  C_4
REMARK    2  A    between atoms: C_8  and  C_10
REMARK    3  A    between atoms: C_14  and  S_15
REMARK    4  A    between atoms: S_15  and  C_16
REMARK                            x       y       z     vdW  Elec       q    Type
REMARK                         _______ _______ _______ _____ _____    ______ ____
ROOT
ATOM      1  C   UNL     1      30.931  21.046  16.322  0.00  0.00    +0.093 C 
ATOM      2  C   UNL     1      29.909  21.776  15.450  0.00  0.00    +0.033 C 
ATOM      3  C   UNL     1      30.527  21.651  14.065  0.00  0.00    +0.109 C 
ATOM      4  N   UNL     1      31.933  21.923  14.330  0.00  0.00    -0.297 N 
ATOM      5  C   UNL     1      32.934  22.450  13.523  0.00  0.00    +0.247 C 
ATOM      6  O   UNL     1      34.106  22.476  13.908  0.00  0.00    -0.270 OA
ATOM      7  C   UNL     1      32.269  21.396  15.655  0.00  0.00    +0.120 C 
ENDROOT
BRANCH   5   8
ATOM      8  C   UNL     1      32.648  22.983  12.156  0.00  0.00    +0.038 A 
ATOM      9  C   UNL     1      31.931  24.155  11.918  0.00  0.00    +0.013 A 
ATOM     10  C   UNL     1      31.619  24.554  10.617  0.00  0.00    +0.002 A 
ATOM     11  C   UNL     1      32.143  23.857   9.532  0.00  0.00    +0.015 A 
ATOM     12  C   UNL     1      33.013  22.785   9.746  0.00  0.00    +0.017 A 
ATOM     13  C   UNL     1      33.228  22.325  11.054  0.00  0.00    +0.028 A 
BRANCH  12  14
ATOM     14  S   UNL     1      33.833  21.989   8.380  0.00  0.00    -0.016 S 
BRANCH  14  15
ATOM     15  C   UNL     1      32.675  20.655   8.002  0.00  0.00    +0.448 C 
ATOM     16  F   UNL     1      32.464  19.800   9.031  0.00  0.00    -0.160 F 
ATOM     17  F   UNL     1      31.466  21.150   7.646  0.00  0.00    -0.160 F 
ATOM     18  F   UNL     1      33.125  19.913   6.961  0.00  0.00    -0.160 F 
ENDBRANCH  14  15
ENDBRANCH  12  14
ENDBRANCH   5   8
BRANCH   1  20
ATOM     19  N   UNL     1      29.501  19.174  16.991  0.00  0.00    -0.329 N 
ATOM     20  C   UNL     1      30.638  19.553  16.345  0.00  0.00    +0.215 C 
ATOM     21  O   UNL     1      31.333  18.708  15.790  0.00  0.00    -0.276 OA
ATOM     22  H   UNL     1      29.256  18.194  16.931  0.00  0.00    +0.145 HD
ATOM     23  H   UNL     1      28.807  19.826  17.327  0.00  0.00    +0.145 HD
ENDBRANCH   1  20
TORSDOF 4
ENDMDL
MODEL 7
REMARK VINA RESULT:      -6.0      7.074      9.316
REMARK  Name = ZINC000826139982
REMARK  4 active torsions:
REMARK  status: ('A' for Active; 'I' for Inactive)
REMARK    1  A    between atoms: C_2  and  C_4
REMARK    2  A    between atoms: C_8  and  C_10
REMARK    3  A    between atoms: C_14  and  S_15
REMARK    4  A    between atoms: S_15  and  C_16
REMARK                            x       y       z     vdW  Elec       q    Type
REMARK                         _______ _______ _______ _____ _____    ______ ____
ROOT
ATOM      1  C   UNL     1      22.340  28.721  17.589  0.00  0.00    +0.093 C 
ATOM      2  C   UNL     1      23.308  28.768  18.771  0.00  0.00    +0.033 C 
ATOM      3  C   UNL     1      24.369  27.761  18.353  0.00  0.00    +0.109 C 
ATOM      4  N   UNL     1      23.565  26.674  17.811  0.00  0.00    -0.297 N 
ATOM      5  C   UNL     1      23.808  25.309  17.721  0.00  0.00    +0.247 C 
ATOM      6  O   UNL     1      23.039  24.571  17.098  0.00  0.00    -0.270 OA
ATOM      7  C   UNL     1      22.380  27.246  17.165  0.00  0.00    +0.120 C 
ENDROOT
BRANCH   5   8
ATOM      8  C   UNL     1      25.010  24.678  18.344  0.00  0.00    +0.038 A 
ATOM      9  C   UNL     1      25.513  25.040  19.594  0.00  0.00    +0.013 A 
ATOM     10  C   UNL     1      26.693  24.477  20.083  0.00  0.00    +0.002 A 
ATOM     11  C   UNL     1      27.308  23.440  19.389  0.00  0.00    +0.015 A 
ATOM     12  C   UNL     1      26.723  22.936  18.225  0.00  0.00    +0.017 A 
ATOM     13  C   UNL     1      25.602  23.584  17.684  0.00  0.00    +0.028 A 
BRANCH  12  14
ATOM     14  S   UNL     1      27.393  21.498  17.415  0.00  0.00    -0.016 S 
BRANCH  14  15
ATOM     15  C   UNL     1      28.971  22.136  16.813  0.00  0.00    +0.448 C 
ATOM     16  F   UNL     1      29.985  22.035  17.706  0.00  0.00    -0.160 F 
ATOM     17  F   UNL     1      29.363  21.482  15.694  0.00  0.00    -0.160 F 
ATOM     18  F   UNL     1      28.863  23.449  16.489  0.00  0.00    -0.160 F 
ENDBRANCH  14  15
ENDBRANCH  12  14
ENDBRANCH   5   8
BRANCH   1  20
ATOM     19  N   UNL     1      22.411  29.365  15.228  0.00  0.00    -0.329 N 
ATOM     20  C   UNL     1      22.791  29.679  16.497  0.00  0.00    +0.215 C 
ATOM     21  O   UNL     1      23.422  30.710  16.706  0.00  0.00    -0.276 OA
ATOM     22  H   UNL     1      22.631  30.045  14.512  0.00  0.00    +0.145 HD
ATOM     23  H   UNL     1      21.761  28.625  15.008  0.00  0.00    +0.145 HD
ENDBRANCH   1  20
TORSDOF 4
ENDMDL
MODEL 8
REMARK VINA RESULT:      -6.0      1.966      2.526
REMARK  Name = ZINC000826139982
REMARK  4 active torsions:
REMARK  status: ('A' for Active; 'I' for Inactive)
REMARK    1  A    between atoms: C_2  and  C_4
REMARK    2  A    between atoms: C_8  and  C_10
REMARK    3  A    between atoms: C_14  and  S_15
REMARK    4  A    between atoms: S_15  and  C_16
REMARK                            x       y       z     vdW  Elec       q    Type
REMARK                         _______ _______ _______ _____ _____    ______ ____
ROOT
ATOM      1  C   UNL     1      30.862  21.274  16.731  0.00  0.00    +0.093 C 
ATOM      2  C   UNL     1      32.250  20.663  16.541  0.00  0.00    +0.033 C 
ATOM      3  C   UNL     1      31.963  19.512  15.590  0.00  0.00    +0.109 C 
ATOM      4  N   UNL     1      30.735  18.956  16.141  0.00  0.00    -0.297 N 
ATOM      5  C   UNL     1      30.211  17.670  16.101  0.00  0.00    +0.247 C 
ATOM      6  O   UNL     1      29.076  17.438  16.527  0.00  0.00    -0.270 OA
ATOM      7  C   UNL     1      29.936  20.050  16.700  0.00  0.00    +0.120 C 
ENDROOT
BRANCH   5   8
ATOM      8  C   UNL     1      30.975  16.522  15.524  0.00  0.00    +0.038 A 
ATOM      9  C   UNL     1      32.018  15.878  16.189  0.00  0.00    +0.013 A 
ATOM     10  C   UNL     1      32.755  14.870  15.561  0.00  0.00    +0.002 A 
ATOM     11  C   UNL     1      32.363  14.399  14.312  0.00  0.00    +0.015 A 
ATOM     12  C   UNL     1      31.211  14.906  13.704  0.00  0.00    +0.017 A 
ATOM     13  C   UNL     1      30.547  15.993  14.291  0.00  0.00    +0.028 A 
BRANCH  12  14
ATOM     14  S   UNL     1      30.592  14.200  12.191  0.00  0.00    -0.016 S 
BRANCH  14  15
ATOM     15  C   UNL     1      28.851  13.952  12.604  0.00  0.00    +0.448 C 
ATOM     16  F   UNL     1      28.069  15.032  12.365  0.00  0.00    -0.160 F 
ATOM     17  F   UNL     1      28.328  12.921  11.899  0.00  0.00    -0.160 F 
ATOM     18  F   UNL     1      28.710  13.649  13.918  0.00  0.00    -0.160 F 
ENDBRANCH  14  15
ENDBRANCH  12  14
ENDBRANCH   5   8
BRANCH   1  20
ATOM     19  N   UNL     1      30.915  23.573  15.890  0.00  0.00    -0.329 N 
ATOM     20  C   UNL     1      30.572  22.282  15.630  0.00  0.00    +0.215 C 
ATOM     21  O   UNL     1      30.098  21.987  14.537  0.00  0.00    -0.276 OA
ATOM     22  H   UNL     1      30.806  24.230  15.128  0.00  0.00    +0.145 HD
ATOM     23  H   UNL     1      31.450  23.855  16.698  0.00  0.00    +0.145 HD
ENDBRANCH   1  20
TORSDOF 4
ENDMDL
MODEL 9
REMARK VINA RESULT:      -5.9      5.731      7.379
REMARK  Name = ZINC000826139982
REMARK  4 active torsions:
REMARK  status: ('A' for Active; 'I' for Inactive)
REMARK    1  A    between atoms: C_2  and  C_4
REMARK    2  A    between atoms: C_8  and  C_10
REMARK    3  A    between atoms: C_14  and  S_15
REMARK    4  A    between atoms: S_15  and  C_16
REMARK                            x       y       z     vdW  Elec       q    Type
REMARK                         _______ _______ _______ _____ _____    ______ ____
ROOT
ATOM      1  C   UNL     1      32.586  24.084   9.793  0.00  0.00    +0.093 C 
ATOM      2  C   UNL     1      31.851  24.934  10.830  0.00  0.00    +0.033 C 
ATOM      3  C   UNL     1      32.469  24.449  12.133  0.00  0.00    +0.109 C 
ATOM      4  N   UNL     1      32.519  23.007  11.932  0.00  0.00    -0.297 N 
ATOM      5  C   UNL     1      32.487  21.953  12.836  0.00  0.00    +0.247 C 
ATOM      6  O   UNL     1      32.675  20.793  12.459  0.00  0.00    -0.270 OA
ATOM      7  C   UNL     1      32.773  22.741  10.514  0.00  0.00    +0.120 C 
ENDROOT
BRANCH   5   8
ATOM      8  C   UNL     1      32.251  22.170  14.296  0.00  0.00    +0.038 A 
ATOM      9  C   UNL     1      32.892  23.158  15.043  0.00  0.00    +0.013 A 
ATOM     10  C   UNL     1      32.698  23.252  16.423  0.00  0.00    +0.002 A 
ATOM     11  C   UNL     1      31.750  22.449  17.048  0.00  0.00    +0.015 A 
ATOM     12  C   UNL     1      30.965  21.576  16.290  0.00  0.00    +0.017 A 
ATOM     13  C   UNL     1      31.247  21.408  14.926  0.00  0.00    +0.028 A 
BRANCH  12  14
ATOM     14  S   UNL     1      29.629  20.666  17.038  0.00  0.00    -0.016 S 
BRANCH  14  15
ATOM     15  C   UNL     1      28.472  21.997  17.430  0.00  0.00    +0.448 C 
ATOM     16  F   UNL     1      27.174  21.611  17.450  0.00  0.00    -0.160 F 
ATOM     17  F   UNL     1      28.744  22.533  18.643  0.00  0.00    -0.160 F 
ATOM     18  F   UNL     1      28.570  22.998  16.520  0.00  0.00    -0.160 F 
ENDBRANCH  14  15
ENDBRANCH  12  14
ENDBRANCH   5   8
BRANCH   1  20
ATOM     19  N   UNL     1      35.031  24.045   9.665  0.00  0.00    -0.329 N 
ATOM     20  C   UNL     1      33.896  24.748   9.397  0.00  0.00    +0.215 C 
ATOM     21  O   UNL     1      33.972  25.831   8.826  0.00  0.00    -0.276 OA
ATOM     22  H   UNL     1      35.896  24.441   9.323  0.00  0.00    +0.145 HD
ATOM     23  H   UNL     1      35.031  23.087   9.984  0.00  0.00    +0.145 HD
ENDBRANCH   1  20
TORSDOF 4
ENDMDL
