MODEL 1
REMARK VINA RESULT:      -7.6      0.000      0.000
REMARK  Name = ZINC000329563636
REMARK  3 active torsions:
REMARK  status: ('A' for Active; 'I' for Inactive)
REMARK    1  A    between atoms: C_1  and  C_2
REMARK    2  A    between atoms: C_2  and  N_3
REMARK    3  A    between atoms: N_9  and  C_10
REMARK                            x       y       z     vdW  Elec       q    Type
REMARK                         _______ _______ _______ _____ _____    ______ ____
ROOT
ATOM      1  C   UNL     1      28.015  22.053  18.305  0.00  0.00    +0.112 C 
ATOM      2  C   UNL     1      27.818  20.702  17.609  0.00  0.00    +0.075 C 
ATOM      3  C   UNL     1      28.830  20.393  16.498  0.00  0.00    +0.113 C 
ATOM      4  C   UNL     1      30.170  19.784  16.989  0.00  0.00    +0.048 C 
ATOM      5  C   UNL     1      30.193  18.343  16.493  0.00  0.00    +0.004 C 
ATOM      6  C   UNL     1      29.383  18.385  15.211  0.00  0.00    +0.004 C 
ATOM      7  C   UNL     1      28.227  19.303  15.573  0.00  0.00    +0.048 C 
ATOM      8  O   UNL     1      29.092  21.546  15.673  0.00  0.00    -0.485 OA
ATOM      9  C   UNL     1      29.540  22.625  16.390  0.00  0.00    +0.126 A 
ATOM     10  C   UNL     1      30.484  23.450  15.782  0.00  0.00    +0.046 A 
ATOM     11  C   UNL     1      31.009  24.541  16.477  0.00  0.00    +0.004 A 
ATOM     12  C   UNL     1      30.570  24.819  17.770  0.00  0.00    +0.001 A 
ATOM     13  C   UNL     1      29.600  24.009  18.362  0.00  0.00    +0.009 A 
ATOM     14  C   UNL     1      29.077  22.902  17.674  0.00  0.00    +0.015 A 
ENDROOT
BRANCH   1  21
ATOM     15  N   UNL     1      23.392  26.285  19.099  0.00  0.00    -0.299 N 
ATOM     16  C   UNL     1      24.233  26.034  20.269  0.00  0.00    +0.127 C 
ATOM     17  C   UNL     1      24.412  24.541  20.521  0.00  0.00    +0.129 C 
ATOM     18  N   UNL     1      25.010  23.935  19.340  0.00  0.00    -0.275 N 
ATOM     19  C   UNL     1      26.235  23.317  19.456  0.00  0.00    +0.303 C 
ATOM     20  O   UNL     1      26.847  23.260  20.522  0.00  0.00    -0.253 OA
ATOM     21  N   UNL     1      26.753  22.795  18.308  0.00  0.00    -0.292 N 
ATOM     22  C   UNL     1      24.242  24.131  18.106  0.00  0.00    +0.205 C 
ATOM     23  C   UNL     1      23.424  25.435  17.995  0.00  0.00    +0.233 C 
ATOM     24  O   UNL     1      22.797  25.679  16.960  0.00  0.00    -0.274 OA
ATOM     25  H   UNL     1      26.113  22.541  17.572  0.00  0.00    +0.151 HD
BRANCH  15  27
ATOM     26  C   UNL     1      21.368  27.662  19.487  0.00  0.00    +0.024 C 
ATOM     27  C   UNL     1      22.792  27.607  18.954  0.00  0.00    +0.104 C 
ENDBRANCH  15  27
ENDBRANCH   1  21
TORSDOF 2
ENDMDL
MODEL 2
REMARK VINA RESULT:      -7.3      4.081      7.891
REMARK  Name = ZINC000329563636
REMARK  3 active torsions:
REMARK  status: ('A' for Active; 'I' for Inactive)
REMARK    1  A    between atoms: C_1  and  C_2
REMARK    2  A    between atoms: C_2  and  N_3
REMARK    3  A    between atoms: N_9  and  C_10
REMARK                            x       y       z     vdW  Elec       q    Type
REMARK                         _______ _______ _______ _____ _____    ______ ____
ROOT
ATOM      1  C   UNL     1      30.816  22.753  16.714  0.00  0.00    +0.112 C 
ATOM      2  C   UNL     1      29.838  23.333  17.743  0.00  0.00    +0.075 C 
ATOM      3  C   UNL     1      28.651  22.424  18.090  0.00  0.00    +0.113 C 
ATOM      4  C   UNL     1      28.943  21.358  19.179  0.00  0.00    +0.048 C 
ATOM      5  C   UNL     1      28.132  21.765  20.404  0.00  0.00    +0.004 C 
ATOM      6  C   UNL     1      26.923  22.472  19.823  0.00  0.00    +0.004 C 
ATOM      7  C   UNL     1      27.524  23.299  18.699  0.00  0.00    +0.048 C 
ATOM      8  O   UNL     1      28.102  21.787  16.920  0.00  0.00    -0.485 OA
ATOM      9  C   UNL     1      29.028  21.054  16.225  0.00  0.00    +0.126 A 
ATOM     10  C   UNL     1      28.591  19.878  15.618  0.00  0.00    +0.046 A 
ATOM     11  C   UNL     1      29.498  19.068  14.931  0.00  0.00    +0.004 A 
ATOM     12  C   UNL     1      30.834  19.449  14.832  0.00  0.00    +0.001 A 
ATOM     13  C   UNL     1      31.260  20.643  15.413  0.00  0.00    +0.009 A 
ATOM     14  C   UNL     1      30.358  21.457  16.117  0.00  0.00    +0.015 A 
ENDROOT
BRANCH   1  21
ATOM     15  N   UNL     1      32.708  25.861  11.550  0.00  0.00    -0.299 N 
ATOM     16  C   UNL     1      33.760  25.181  12.305  0.00  0.00    +0.127 C 
ATOM     17  C   UNL     1      33.664  25.482  13.796  0.00  0.00    +0.129 C 
ATOM     18  N   UNL     1      32.357  25.061  14.276  0.00  0.00    -0.275 N 
ATOM     19  C   UNL     1      32.286  24.092  15.253  0.00  0.00    +0.303 C 
ATOM     20  O   UNL     1      33.288  23.566  15.734  0.00  0.00    -0.253 OA
ATOM     21  N   UNL     1      31.032  23.723  15.639  0.00  0.00    -0.292 N 
ATOM     22  C   UNL     1      31.228  25.687  13.582  0.00  0.00    +0.205 C 
ATOM     23  C   UNL     1      31.441  26.056  12.098  0.00  0.00    +0.233 C 
ATOM     24  O   UNL     1      30.512  26.540  11.447  0.00  0.00    -0.274 OA
ATOM     25  H   UNL     1      30.282  24.384  15.510  0.00  0.00    +0.151 HD
BRANCH  15  27
ATOM     26  C   UNL     1      33.486  24.780   9.459  0.00  0.00    +0.024 C 
ATOM     27  C   UNL     1      32.885  26.017  10.111  0.00  0.00    +0.104 C 
ENDBRANCH  15  27
ENDBRANCH   1  21
TORSDOF 2
ENDMDL
MODEL 3
REMARK VINA RESULT:      -6.9      5.646      9.030
REMARK  Name = ZINC000329563636
REMARK  3 active torsions:
REMARK  status: ('A' for Active; 'I' for Inactive)
REMARK    1  A    between atoms: C_1  and  C_2
REMARK    2  A    between atoms: C_2  and  N_3
REMARK    3  A    between atoms: N_9  and  C_10
REMARK                            x       y       z     vdW  Elec       q    Type
REMARK                         _______ _______ _______ _____ _____    ______ ____
ROOT
ATOM      1  C   UNL     1      30.706  23.230  14.328  0.00  0.00    +0.112 C 
ATOM      2  C   UNL     1      29.979  21.906  14.064  0.00  0.00    +0.075 C 
ATOM      3  C   UNL     1      29.994  20.915  15.236  0.00  0.00    +0.113 C 
ATOM      4  C   UNL     1      28.887  21.147  16.298  0.00  0.00    +0.048 C 
ATOM      5  C   UNL     1      27.928  19.967  16.181  0.00  0.00    +0.004 C 
ATOM      6  C   UNL     1      28.809  18.827  15.711  0.00  0.00    +0.004 C 
ATOM      7  C   UNL     1      29.706  19.495  14.682  0.00  0.00    +0.048 C 
ATOM      8  O   UNL     1      31.282  20.862  15.880  0.00  0.00    -0.485 OA
ATOM      9  C   UNL     1      31.705  22.085  16.331  0.00  0.00    +0.126 A 
ATOM     10  C   UNL     1      32.432  22.112  17.521  0.00  0.00    +0.046 A 
ATOM     11  C   UNL     1      32.854  23.332  18.053  0.00  0.00    +0.004 A 
ATOM     12  C   UNL     1      32.570  24.519  17.383  0.00  0.00    +0.001 A 
ATOM     13  C   UNL     1      31.871  24.484  16.175  0.00  0.00    +0.009 A 
ATOM     14  C   UNL     1      31.432  23.263  15.640  0.00  0.00    +0.015 A 
ENDROOT
BRANCH   1  21
ATOM     15  N   UNL     1      34.968  25.715  10.383  0.00  0.00    -0.299 N 
ATOM     16  C   UNL     1      33.885  26.608  10.794  0.00  0.00    +0.127 C 
ATOM     17  C   UNL     1      32.523  25.937  10.661  0.00  0.00    +0.129 C 
ATOM     18  N   UNL     1      32.512  24.733  11.478  0.00  0.00    -0.275 N 
ATOM     19  C   UNL     1      31.600  24.633  12.506  0.00  0.00    +0.303 C 
ATOM     20  O   UNL     1      30.795  25.526  12.763  0.00  0.00    -0.253 OA
ATOM     21  N   UNL     1      31.661  23.492  13.250  0.00  0.00    -0.292 N 
ATOM     22  C   UNL     1      33.563  23.767  11.145  0.00  0.00    +0.205 C 
ATOM     23  C   UNL     1      34.891  24.342  10.605  0.00  0.00    +0.233 C 
ATOM     24  O   UNL     1      35.830  23.582  10.354  0.00  0.00    -0.274 OA
ATOM     25  H   UNL     1      32.052  22.667  12.823  0.00  0.00    +0.151 HD
BRANCH  15  27
ATOM     26  C   UNL     1      36.136  27.717   9.504  0.00  0.00    +0.024 C 
ATOM     27  C   UNL     1      36.262  26.307  10.061  0.00  0.00    +0.104 C 
ENDBRANCH  15  27
ENDBRANCH   1  21
TORSDOF 2
ENDMDL
MODEL 4
REMARK VINA RESULT:      -6.8      2.315      8.200
REMARK  Name = ZINC000329563636
REMARK  3 active torsions:
REMARK  status: ('A' for Active; 'I' for Inactive)
REMARK    1  A    between atoms: C_1  and  C_2
REMARK    2  A    between atoms: C_2  and  N_3
REMARK    3  A    between atoms: N_9  and  C_10
REMARK                            x       y       z     vdW  Elec       q    Type
REMARK                         _______ _______ _______ _____ _____    ______ ____
ROOT
ATOM      1  C   UNL     1      25.082  24.664  20.493  0.00  0.00    +0.112 C 
ATOM      2  C   UNL     1      25.073  25.474  21.794  0.00  0.00    +0.075 C 
ATOM      3  C   UNL     1      24.118  26.676  21.801  0.00  0.00    +0.113 C 
ATOM      4  C   UNL     1      22.649  26.338  22.168  0.00  0.00    +0.048 C 
ATOM      5  C   UNL     1      22.391  26.973  23.529  0.00  0.00    +0.004 C 
ATOM      6  C   UNL     1      23.300  28.187  23.545  0.00  0.00    +0.004 C 
ATOM      7  C   UNL     1      24.576  27.660  22.910  0.00  0.00    +0.048 C 
ATOM      8  O   UNL     1      24.156  27.399  20.555  0.00  0.00    -0.485 OA
ATOM      9  C   UNL     1      23.865  26.613  19.472  0.00  0.00    +0.126 A 
ATOM     10  C   UNL     1      23.154  27.199  18.427  0.00  0.00    +0.046 A 
ATOM     11  C   UNL     1      22.792  26.438  17.314  0.00  0.00    +0.004 A 
ATOM     12  C   UNL     1      23.164  25.097  17.237  0.00  0.00    +0.001 A 
ATOM     13  C   UNL     1      23.905  24.523  18.271  0.00  0.00    +0.009 A 
ATOM     14  C   UNL     1      24.261  25.279  19.399  0.00  0.00    +0.015 A 
ENDROOT
BRANCH   1  21
ATOM     15  N   UNL     1      30.344  23.214  17.312  0.00  0.00    -0.299 N 
ATOM     16  C   UNL     1      29.356  22.142  17.431  0.00  0.00    +0.127 C 
ATOM     17  C   UNL     1      28.861  21.991  18.865  0.00  0.00    +0.129 C 
ATOM     18  N   UNL     1      28.278  23.253  19.294  0.00  0.00    -0.275 N 
ATOM     19  C   UNL     1      26.950  23.285  19.656  0.00  0.00    +0.303 C 
ATOM     20  O   UNL     1      26.234  22.286  19.627  0.00  0.00    -0.253 OA
ATOM     21  N   UNL     1      26.459  24.503  20.022  0.00  0.00    -0.292 N 
ATOM     22  C   UNL     1      29.191  24.398  19.214  0.00  0.00    +0.205 C 
ATOM     23  C   UNL     1      30.257  24.361  18.098  0.00  0.00    +0.233 C 
ATOM     24  O   UNL     1      31.021  25.318  17.948  0.00  0.00    -0.274 OA
ATOM     25  H   UNL     1      27.107  25.190  20.373  0.00  0.00    +0.151 HD
BRANCH  15  27
ATOM     26  C   UNL     1      30.632  22.414  14.983  0.00  0.00    +0.024 C 
ATOM     27  C   UNL     1      31.204  23.228  16.134  0.00  0.00    +0.104 C 
ENDBRANCH  15  27
ENDBRANCH   1  21
TORSDOF 2
ENDMDL
MODEL 5
REMARK VINA RESULT:      -6.6      4.342      7.095
REMARK  Name = ZINC000329563636
REMARK  3 active torsions:
REMARK  status: ('A' for Active; 'I' for Inactive)
REMARK    1  A    between atoms: C_1  and  C_2
REMARK    2  A    between atoms: C_2  and  N_3
REMARK    3  A    between atoms: N_9  and  C_10
REMARK                            x       y       z     vdW  Elec       q    Type
REMARK                         _______ _______ _______ _____ _____    ______ ____
ROOT
ATOM      1  C   UNL     1      32.337  17.646  15.498  0.00  0.00    +0.112 C 
ATOM      2  C   UNL     1      32.521  17.391  13.998  0.00  0.00    +0.075 C 
ATOM      3  C   UNL     1      33.981  17.342  13.525  0.00  0.00    +0.113 C 
ATOM      4  C   UNL     1      34.676  15.966  13.700  0.00  0.00    +0.048 C 
ATOM      5  C   UNL     1      34.900  15.419  12.295  0.00  0.00    +0.004 C 
ATOM      6  C   UNL     1      35.070  16.660  11.442  0.00  0.00    +0.004 C 
ATOM      7  C   UNL     1      34.009  17.597  11.995  0.00  0.00    +0.048 C 
ATOM      8  O   UNL     1      34.779  18.373  14.138  0.00  0.00    -0.485 OA
ATOM      9  C   UNL     1      34.759  18.321  15.508  0.00  0.00    +0.126 A 
ATOM     10  C   UNL     1      35.932  18.662  16.179  0.00  0.00    +0.046 A 
ATOM     11  C   UNL     1      35.985  18.589  17.573  0.00  0.00    +0.004 A 
ATOM     12  C   UNL     1      34.857  18.200  18.292  0.00  0.00    +0.001 A 
ATOM     13  C   UNL     1      33.675  17.892  17.617  0.00  0.00    +0.009 A 
ATOM     14  C   UNL     1      33.618  17.950  16.216  0.00  0.00    +0.015 A 
ENDROOT
BRANCH   1  21
ATOM     15  N   UNL     1      27.884  21.612  17.583  0.00  0.00    -0.299 N 
ATOM     16  C   UNL     1      27.531  20.193  17.602  0.00  0.00    +0.127 C 
ATOM     17  C   UNL     1      27.867  19.513  16.279  0.00  0.00    +0.129 C 
ATOM     18  N   UNL     1      29.291  19.668  16.021  0.00  0.00    -0.275 N 
ATOM     19  C   UNL     1      30.075  18.541  15.913  0.00  0.00    +0.303 C 
ATOM     20  O   UNL     1      29.618  17.405  16.031  0.00  0.00    -0.253 OA
ATOM     21  N   UNL     1      31.404  18.756  15.699  0.00  0.00    -0.292 N 
ATOM     22  C   UNL     1      29.749  21.060  15.981  0.00  0.00    +0.205 C 
ATOM     23  C   UNL     1      28.996  22.067  16.878  0.00  0.00    +0.233 C 
ATOM     24  O   UNL     1      29.368  23.243  16.924  0.00  0.00    -0.274 OA
ATOM     25  H   UNL     1      31.681  19.622  15.264  0.00  0.00    +0.151 HD
BRANCH  15  27
ATOM     26  C   UNL     1      27.459  21.968  19.999  0.00  0.00    +0.024 C 
ATOM     27  C   UNL     1      27.275  22.485  18.580  0.00  0.00    +0.104 C 
ENDBRANCH  15  27
ENDBRANCH   1  21
TORSDOF 2
ENDMDL
MODEL 6
REMARK VINA RESULT:      -6.5      4.357      7.179
REMARK  Name = ZINC000329563636
REMARK  3 active torsions:
REMARK  status: ('A' for Active; 'I' for Inactive)
REMARK    1  A    between atoms: C_1  and  C_2
REMARK    2  A    between atoms: C_2  and  N_3
REMARK    3  A    between atoms: N_9  and  C_10
REMARK                            x       y       z     vdW  Elec       q    Type
REMARK                         _______ _______ _______ _____ _____    ______ ____
ROOT
ATOM      1  C   UNL     1      30.478  23.398  17.909  0.00  0.00    +0.112 C 
ATOM      2  C   UNL     1      31.062  22.442  16.862  0.00  0.00    +0.075 C 
ATOM      3  C   UNL     1      30.168  21.244  16.511  0.00  0.00    +0.113 C 
ATOM      4  C   UNL     1      29.087  21.532  15.438  0.00  0.00    +0.048 C 
ATOM      5  C   UNL     1      29.493  20.741  14.199  0.00  0.00    +0.004 C 
ATOM      6  C   UNL     1      30.225  19.537  14.758  0.00  0.00    +0.004 C 
ATOM      7  C   UNL     1      31.055  20.138  15.880  0.00  0.00    +0.048 C 
ATOM      8  O   UNL     1      29.553  20.671  17.682  0.00  0.00    -0.485 OA
ATOM      9  C   UNL     1      28.813  21.578  18.395  0.00  0.00    +0.126 A 
ATOM     10  C   UNL     1      27.651  21.115  19.009  0.00  0.00    +0.046 A 
ATOM     11  C   UNL     1      26.834  22.000  19.715  0.00  0.00    +0.004 A 
ATOM     12  C   UNL     1      27.194  23.341  19.826  0.00  0.00    +0.001 A 
ATOM     13  C   UNL     1      28.376  23.793  19.237  0.00  0.00    +0.009 A 
ATOM     14  C   UNL     1      29.195  22.912  18.514  0.00  0.00    +0.015 A 
ENDROOT
BRANCH   1  21
ATOM     15  N   UNL     1      33.833  25.579  22.797  0.00  0.00    -0.299 N 
ATOM     16  C   UNL     1      33.395  26.583  21.827  0.00  0.00    +0.127 C 
ATOM     17  C   UNL     1      33.692  26.148  20.396  0.00  0.00    +0.129 C 
ATOM     18  N   UNL     1      33.018  24.883  20.142  0.00  0.00    -0.275 N 
ATOM     19  C   UNL     1      32.069  24.822  19.145  0.00  0.00    +0.303 C 
ATOM     20  O   UNL     1      31.767  25.799  18.462  0.00  0.00    -0.253 OA
ATOM     21  N   UNL     1      31.456  23.617  18.977  0.00  0.00    -0.292 N 
ATOM     22  C   UNL     1      33.388  23.805  21.064  0.00  0.00    +0.205 C 
ATOM     23  C   UNL     1      33.772  24.219  22.501  0.00  0.00    +0.233 C 
ATOM     24  O   UNL     1      34.045  23.352  23.336  0.00  0.00    -0.274 OA
ATOM     25  H   UNL     1      31.946  22.789  19.275  0.00  0.00    +0.151 HD
BRANCH  15  27
ATOM     26  C   UNL     1      34.193  27.495  24.328  0.00  0.00    +0.024 C 
ATOM     27  C   UNL     1      34.002  25.992  24.185  0.00  0.00    +0.104 C 
ENDBRANCH  15  27
ENDBRANCH   1  21
TORSDOF 2
ENDMDL
MODEL 7
REMARK VINA RESULT:      -6.5      4.882      9.827
REMARK  Name = ZINC000329563636
REMARK  3 active torsions:
REMARK  status: ('A' for Active; 'I' for Inactive)
REMARK    1  A    between atoms: C_1  and  C_2
REMARK    2  A    between atoms: C_2  and  N_3
REMARK    3  A    between atoms: N_9  and  C_10
REMARK                            x       y       z     vdW  Elec       q    Type
REMARK                         _______ _______ _______ _____ _____    ______ ____
ROOT
ATOM      1  C   UNL     1      31.547  20.823  16.900  0.00  0.00    +0.112 C 
ATOM      2  C   UNL     1      31.698  22.230  17.488  0.00  0.00    +0.075 C 
ATOM      3  C   UNL     1      30.376  22.940  17.814  0.00  0.00    +0.113 C 
ATOM      4  C   UNL     1      29.769  22.582  19.196  0.00  0.00    +0.048 C 
ATOM      5  C   UNL     1      29.884  23.838  20.052  0.00  0.00    +0.004 C 
ATOM      6  C   UNL     1      29.798  24.972  19.050  0.00  0.00    +0.004 C 
ATOM      7  C   UNL     1      30.645  24.466  17.894  0.00  0.00    +0.048 C 
ATOM      8  O   UNL     1      29.390  22.741  16.782  0.00  0.00    -0.485 OA
ATOM      9  C   UNL     1      29.130  21.417  16.539  0.00  0.00    +0.126 A 
ATOM     10  C   UNL     1      27.821  21.071  16.210  0.00  0.00    +0.046 A 
ATOM     11  C   UNL     1      27.486  19.733  15.992  0.00  0.00    +0.004 A 
ATOM     12  C   UNL     1      28.467  18.748  16.078  0.00  0.00    +0.001 A 
ATOM     13  C   UNL     1      29.783  19.103  16.376  0.00  0.00    +0.009 A 
ATOM     14  C   UNL     1      30.125  20.444  16.609  0.00  0.00    +0.015 A 
ENDROOT
BRANCH   1  21
ATOM     15  N   UNL     1      34.802  18.863  11.853  0.00  0.00    -0.299 N 
ATOM     16  C   UNL     1      35.099  18.174  13.108  0.00  0.00    +0.127 C 
ATOM     17  C   UNL     1      35.326  19.159  14.249  0.00  0.00    +0.129 C 
ATOM     18  N   UNL     1      34.135  19.981  14.403  0.00  0.00    -0.275 N 
ATOM     19  C   UNL     1      33.450  19.946  15.597  0.00  0.00    +0.303 C 
ATOM     20  O   UNL     1      33.806  19.242  16.541  0.00  0.00    -0.253 OA
ATOM     21  N   UNL     1      32.328  20.717  15.666  0.00  0.00    -0.292 N 
ATOM     22  C   UNL     1      33.749  20.717  13.195  0.00  0.00    +0.205 C 
ATOM     23  C   UNL     1      34.081  20.055  11.840  0.00  0.00    +0.233 C 
ATOM     24  O   UNL     1      33.737  20.603  10.790  0.00  0.00    -0.274 OA
ATOM     25  H   UNL     1      32.264  21.517  15.057  0.00  0.00    +0.151 HD
BRANCH  15  27
ATOM     26  C   UNL     1      36.352  18.268  10.012  0.00  0.00    +0.024 C 
ATOM     27  C   UNL     1      34.959  18.120  10.607  0.00  0.00    +0.104 C 
ENDBRANCH  15  27
ENDBRANCH   1  21
TORSDOF 2
ENDMDL
MODEL 8
REMARK VINA RESULT:      -6.4      5.629     10.385
REMARK  Name = ZINC000329563636
REMARK  3 active torsions:
REMARK  status: ('A' for Active; 'I' for Inactive)
REMARK    1  A    between atoms: C_1  and  C_2
REMARK    2  A    between atoms: C_2  and  N_3
REMARK    3  A    between atoms: N_9  and  C_10
REMARK                            x       y       z     vdW  Elec       q    Type
REMARK                         _______ _______ _______ _____ _____    ______ ____
ROOT
ATOM      1  C   UNL     1      31.866  20.003  16.840  0.00  0.00    +0.112 C 
ATOM      2  C   UNL     1      32.623  21.314  17.082  0.00  0.00    +0.075 C 
ATOM      3  C   UNL     1      31.745  22.574  17.101  0.00  0.00    +0.113 C 
ATOM      4  C   UNL     1      31.072  22.876  18.465  0.00  0.00    +0.048 C 
ATOM      5  C   UNL     1      31.737  24.140  18.999  0.00  0.00    +0.004 C 
ATOM      6  C   UNL     1      32.129  24.903  17.749  0.00  0.00    +0.004 C 
ATOM      7  C   UNL     1      32.650  23.806  16.835  0.00  0.00    +0.048 C 
ATOM      8  O   UNL     1      30.749  22.551  16.060  0.00  0.00    -0.485 OA
ATOM      9  C   UNL     1      29.938  21.448  16.121  0.00  0.00    +0.126 A 
ATOM     10  C   UNL     1      28.601  21.615  15.765  0.00  0.00    +0.046 A 
ATOM     11  C   UNL     1      27.716  20.538  15.846  0.00  0.00    +0.004 A 
ATOM     12  C   UNL     1      28.176  19.290  16.260  0.00  0.00    +0.001 A 
ATOM     13  C   UNL     1      29.522  19.119  16.585  0.00  0.00    +0.009 A 
ATOM     14  C   UNL     1      30.415  20.201  16.518  0.00  0.00    +0.015 A 
ENDROOT
BRANCH   1  21
ATOM     15  N   UNL     1      34.272  15.595  13.009  0.00  0.00    -0.299 N 
ATOM     16  C   UNL     1      34.576  15.437  14.430  0.00  0.00    +0.127 C 
ATOM     17  C   UNL     1      35.064  16.742  15.049  0.00  0.00    +0.129 C 
ATOM     18  N   UNL     1      34.038  17.758  14.870  0.00  0.00    -0.275 N 
ATOM     19  C   UNL     1      33.474  18.339  15.984  0.00  0.00    +0.303 C 
ATOM     20  O   UNL     1      33.803  18.029  17.127  0.00  0.00    -0.253 OA
ATOM     21  N   UNL     1      32.499  19.262  15.748  0.00  0.00    -0.292 N 
ATOM     22  C   UNL     1      33.659  17.994  13.473  0.00  0.00    +0.205 C 
ATOM     23  C   UNL     1      33.751  16.788  12.513  0.00  0.00    +0.233 C 
ATOM     24  O   UNL     1      33.398  16.912  11.338  0.00  0.00    -0.274 OA
ATOM     25  H   UNL     1      32.504  19.741  14.861  0.00  0.00    +0.151 HD
BRANCH  15  27
ATOM     26  C   UNL     1      35.561  13.846  11.814  0.00  0.00    +0.024 C 
ATOM     27  C   UNL     1      34.191  14.393  12.185  0.00  0.00    +0.104 C 
ENDBRANCH  15  27
ENDBRANCH   1  21
TORSDOF 2
ENDMDL
MODEL 9
REMARK VINA RESULT:      -6.4      5.382      8.527
REMARK  Name = ZINC000329563636
REMARK  3 active torsions:
REMARK  status: ('A' for Active; 'I' for Inactive)
REMARK    1  A    between atoms: C_1  and  C_2
REMARK    2  A    between atoms: C_2  and  N_3
REMARK    3  A    between atoms: N_9  and  C_10
REMARK                            x       y       z     vdW  Elec       q    Type
REMARK                         _______ _______ _______ _____ _____    ______ ____
ROOT
ATOM      1  C   UNL     1      33.478  24.976  14.644  0.00  0.00    +0.112 C 
ATOM      2  C   UNL     1      34.996  24.893  14.451  0.00  0.00    +0.075 C 
ATOM      3  C   UNL     1      35.515  25.491  13.136  0.00  0.00    +0.113 C 
ATOM      4  C   UNL     1      35.746  27.025  13.166  0.00  0.00    +0.048 C 
ATOM      5  C   UNL     1      37.254  27.232  13.079  0.00  0.00    +0.004 C 
ATOM      6  C   UNL     1      37.741  26.040  12.279  0.00  0.00    +0.004 C 
ATOM      7  C   UNL     1      36.917  24.895  12.844  0.00  0.00    +0.048 C 
ATOM      8  O   UNL     1      34.671  25.147  12.019  0.00  0.00    -0.485 OA
ATOM      9  C   UNL     1      33.368  25.533  12.195  0.00  0.00    +0.126 A 
ATOM     10  C   UNL     1      32.670  25.963  11.068  0.00  0.00    +0.046 A 
ATOM     11  C   UNL     1      31.351  26.407  11.190  0.00  0.00    +0.004 A 
ATOM     12  C   UNL     1      30.727  26.397  12.435  0.00  0.00    +0.001 A 
ATOM     13  C   UNL     1      31.419  25.935  13.555  0.00  0.00    +0.009 A 
ATOM     14  C   UNL     1      32.749  25.499  13.442  0.00  0.00    +0.015 A 
ENDROOT
BRANCH   1  21
ATOM     15  N   UNL     1      29.881  20.036  16.246  0.00  0.00    -0.299 N 
ATOM     16  C   UNL     1      29.658  21.261  17.012  0.00  0.00    +0.127 C 
ATOM     17  C   UNL     1      30.970  21.869  17.495  0.00  0.00    +0.129 C 
ATOM     18  N   UNL     1      31.808  22.151  16.340  0.00  0.00    -0.275 N 
ATOM     19  C   UNL     1      32.189  23.452  16.095  0.00  0.00    +0.303 C 
ATOM     20  O   UNL     1      31.844  24.387  16.816  0.00  0.00    -0.253 OA
ATOM     21  N   UNL     1      32.950  23.653  14.982  0.00  0.00    -0.292 N 
ATOM     22  C   UNL     1      32.094  20.984  15.500  0.00  0.00    +0.205 C 
ATOM     23  C   UNL     1      31.006  19.889  15.436  0.00  0.00    +0.233 C 
ATOM     24  O   UNL     1      31.168  18.907  14.708  0.00  0.00    -0.274 OA
ATOM     25  H   UNL     1      33.496  22.880  14.635  0.00  0.00    +0.151 HD
BRANCH  15  27
ATOM     26  C   UNL     1      27.413  19.809  16.257  0.00  0.00    +0.024 C 
ATOM     27  C   UNL     1      28.757  19.124  16.063  0.00  0.00    +0.104 C 
ENDBRANCH  15  27
ENDBRANCH   1  21
TORSDOF 2
ENDMDL
