MODEL 1
REMARK VINA RESULT:      -7.7      0.000      0.000
REMARK  Name = ZINC000870248439
REMARK  2 active torsions:
REMARK  status: ('A' for Active; 'I' for Inactive)
REMARK    1  A    between atoms: C_2  and  C_4
REMARK    2  A    between atoms: C_7  and  C_8
REMARK                            x       y       z     vdW  Elec       q    Type
REMARK                         _______ _______ _______ _____ _____    ______ ____
ROOT
ATOM      1  C   UNL     1      31.797  21.091  14.910  0.00  0.00    +0.247 C 
ATOM      2  O   UNL     1      32.310  19.996  15.137  0.00  0.00    -0.270 OA
ATOM      3  N   UNL     1      32.196  21.922  13.854  0.00  0.00    -0.297 N 
ATOM      4  C   UNL     1      31.646  23.247  13.559  0.00  0.00    +0.108 C 
ATOM      5  C   UNL     1      31.520  23.528  12.066  0.00  0.00    +0.026 C 
ATOM      6  C   UNL     1      32.809  23.235  11.270  0.00  0.00    -0.025 C 
ATOM      7  C   UNL     1      32.461  23.354   9.764  0.00  0.00    +0.017 C 
ATOM      8  C   UNL     1      33.629  23.131   8.813  0.00  0.00    +0.069 C 
ATOM      9  S   UNL     1      34.969  24.326   9.074  0.00  0.00    -0.161 S 
ATOM     10  C   UNL     1      35.205  24.125  10.861  0.00  0.00    +0.069 C 
ATOM     11  C   UNL     1      33.897  24.279  11.629  0.00  0.00    +0.017 C 
ATOM     12  C   UNL     1      33.239  21.785  11.615  0.00  0.00    +0.026 C 
ATOM     13  C   UNL     1      33.402  21.552  13.118  0.00  0.00    +0.108 C 
ENDROOT
BRANCH   1  17
ATOM     14  C   UNL     1      28.603  22.041  17.579  0.00  0.00    +0.037 A 
ATOM     15  C   UNL     1      28.311  21.443  16.349  0.00  0.00    +0.014 A 
ATOM     16  C   UNL     1      29.336  21.218  15.429  0.00  0.00    +0.014 A 
ATOM     17  C   UNL     1      30.662  21.499  15.775  0.00  0.00    +0.037 A 
ATOM     18  C   UNL     1      30.941  22.179  16.968  0.00  0.00    +0.014 A 
ATOM     19  C   UNL     1      29.908  22.460  17.866  0.00  0.00    +0.014 A 
BRANCH  14  21
ATOM     20  N   UNL     1      26.249  22.205  18.163  0.00  0.00    -0.325 N 
ATOM     21  C   UNL     1      27.544  22.245  18.599  0.00  0.00    +0.242 C 
ATOM     22  O   UNL     1      27.812  22.389  19.782  0.00  0.00    -0.270 OA
ATOM     23  H   UNL     1      25.537  22.222  18.882  0.00  0.00    +0.145 HD
ATOM     24  H   UNL     1      25.994  21.830  17.260  0.00  0.00    +0.145 HD
ENDBRANCH  14  21
ENDBRANCH   1  17
TORSDOF 2
ENDMDL
MODEL 2
REMARK VINA RESULT:      -7.2      3.563      4.948
REMARK  Name = ZINC000870248439
REMARK  2 active torsions:
REMARK  status: ('A' for Active; 'I' for Inactive)
REMARK    1  A    between atoms: C_2  and  C_4
REMARK    2  A    between atoms: C_7  and  C_8
REMARK                            x       y       z     vdW  Elec       q    Type
REMARK                         _______ _______ _______ _____ _____    ______ ____
ROOT
ATOM      1  C   UNL     1      31.593  21.395  14.933  0.00  0.00    +0.247 C 
ATOM      2  O   UNL     1      32.242  22.339  14.484  0.00  0.00    -0.270 OA
ATOM      3  N   UNL     1      31.903  20.054  14.667  0.00  0.00    -0.297 N 
ATOM      4  C   UNL     1      31.146  18.894  15.144  0.00  0.00    +0.108 C 
ATOM      5  C   UNL     1      32.030  17.712  15.522  0.00  0.00    +0.026 C 
ATOM      6  C   UNL     1      33.061  17.337  14.436  0.00  0.00    -0.025 C 
ATOM      7  C   UNL     1      34.015  16.280  15.047  0.00  0.00    +0.017 C 
ATOM      8  C   UNL     1      35.088  15.758  14.102  0.00  0.00    +0.069 C 
ATOM      9  S   UNL     1      34.384  14.951  12.638  0.00  0.00    -0.161 S 
ATOM     10  C   UNL     1      33.255  16.260  12.090  0.00  0.00    +0.069 C 
ATOM     11  C   UNL     1      32.332  16.722  13.212  0.00  0.00    +0.017 C 
ATOM     12  C   UNL     1      33.838  18.630  14.078  0.00  0.00    +0.026 C 
ATOM     13  C   UNL     1      32.923  19.780  13.658  0.00  0.00    +0.108 C 
ENDROOT
BRANCH   1  17
ATOM     14  C   UNL     1      28.440  22.102  17.724  0.00  0.00    +0.037 A 
ATOM     15  C   UNL     1      28.137  21.551  16.473  0.00  0.00    +0.014 A 
ATOM     16  C   UNL     1      29.144  21.407  15.519  0.00  0.00    +0.014 A 
ATOM     17  C   UNL     1      30.468  21.720  15.845  0.00  0.00    +0.037 A 
ATOM     18  C   UNL     1      30.755  22.353  17.061  0.00  0.00    +0.014 A 
ATOM     19  C   UNL     1      29.737  22.554  17.997  0.00  0.00    +0.014 A 
BRANCH  14  21
ATOM     20  N   UNL     1      26.098  22.218  18.366  0.00  0.00    -0.325 N 
ATOM     21  C   UNL     1      27.402  22.220  18.778  0.00  0.00    +0.242 C 
ATOM     22  O   UNL     1      27.693  22.261  19.963  0.00  0.00    -0.270 OA
ATOM     23  H   UNL     1      25.400  22.175  19.097  0.00  0.00    +0.145 HD
ATOM     24  H   UNL     1      25.824  21.922  17.439  0.00  0.00    +0.145 HD
ENDBRANCH  14  21
ENDBRANCH   1  17
TORSDOF 2
ENDMDL
MODEL 3
REMARK VINA RESULT:      -7.0     22.207     24.722
REMARK  Name = ZINC000870248439
REMARK  2 active torsions:
REMARK  status: ('A' for Active; 'I' for Inactive)
REMARK    1  A    between atoms: C_2  and  C_4
REMARK    2  A    between atoms: C_7  and  C_8
REMARK                            x       y       z     vdW  Elec       q    Type
REMARK                         _______ _______ _______ _____ _____    ______ ____
ROOT
ATOM      1  C   UNL     1      20.036   4.595  28.052  0.00  0.00    +0.247 C 
ATOM      2  O   UNL     1      19.554   3.813  27.233  0.00  0.00    -0.270 OA
ATOM      3  N   UNL     1      21.410   4.849  28.155  0.00  0.00    -0.297 N 
ATOM      4  C   UNL     1      22.040   5.740  29.132  0.00  0.00    +0.108 C 
ATOM      5  C   UNL     1      23.217   6.522  28.563  0.00  0.00    +0.026 C 
ATOM      6  C   UNL     1      24.245   5.641  27.820  0.00  0.00    -0.025 C 
ATOM      7  C   UNL     1      25.249   6.591  27.119  0.00  0.00    +0.017 C 
ATOM      8  C   UNL     1      26.370   5.896  26.358  0.00  0.00    +0.069 C 
ATOM      9  S   UNL     1      27.393   4.855  27.435  0.00  0.00    -0.161 S 
ATOM     10  C   UNL     1      26.090   3.872  28.226  0.00  0.00    +0.069 C 
ATOM     11  C   UNL     1      25.005   4.751  28.837  0.00  0.00    +0.017 C 
ATOM     12  C   UNL     1      23.460   4.810  26.772  0.00  0.00    +0.026 C 
ATOM     13  C   UNL     1      22.316   4.002  27.385  0.00  0.00    +0.108 C 
ENDROOT
BRANCH   1  17
ATOM     14  C   UNL     1      17.092   6.538  30.459  0.00  0.00    +0.037 A 
ATOM     15  C   UNL     1      17.551   7.168  29.297  0.00  0.00    +0.014 A 
ATOM     16  C   UNL     1      18.581   6.588  28.557  0.00  0.00    +0.014 A 
ATOM     17  C   UNL     1      19.086   5.335  28.921  0.00  0.00    +0.037 A 
ATOM     18  C   UNL     1      18.690   4.750  30.130  0.00  0.00    +0.014 A 
ATOM     19  C   UNL     1      17.700   5.358  30.906  0.00  0.00    +0.014 A 
BRANCH  14  21
ATOM     20  N   UNL     1      15.453   8.298  30.812  0.00  0.00    -0.325 N 
ATOM     21  C   UNL     1      15.963   7.103  31.239  0.00  0.00    +0.242 C 
ATOM     22  O   UNL     1      15.474   6.504  32.185  0.00  0.00    -0.270 OA
ATOM     23  H   UNL     1      14.609   8.611  31.274  0.00  0.00    +0.145 HD
ATOM     24  H   UNL     1      15.654   8.677  29.898  0.00  0.00    +0.145 HD
ENDBRANCH  14  21
ENDBRANCH   1  17
TORSDOF 2
ENDMDL
MODEL 4
REMARK VINA RESULT:      -7.0      4.376      5.415
REMARK  Name = ZINC000870248439
REMARK  2 active torsions:
REMARK  status: ('A' for Active; 'I' for Inactive)
REMARK    1  A    between atoms: C_2  and  C_4
REMARK    2  A    between atoms: C_7  and  C_8
REMARK                            x       y       z     vdW  Elec       q    Type
REMARK                         _______ _______ _______ _____ _____    ______ ____
ROOT
ATOM      1  C   UNL     1      30.085  20.376  14.523  0.00  0.00    +0.247 C 
ATOM      2  O   UNL     1      29.487  20.860  13.562  0.00  0.00    -0.270 OA
ATOM      3  N   UNL     1      30.869  19.217  14.434  0.00  0.00    -0.297 N 
ATOM      4  C   UNL     1      31.572  18.578  15.549  0.00  0.00    +0.108 C 
ATOM      5  C   UNL     1      32.931  18.010  15.157  0.00  0.00    +0.026 C 
ATOM      6  C   UNL     1      32.889  17.117  13.898  0.00  0.00    -0.025 C 
ATOM      7  C   UNL     1      34.354  16.802  13.504  0.00  0.00    +0.017 C 
ATOM      8  C   UNL     1      34.514  15.893  12.293  0.00  0.00    +0.069 C 
ATOM      9  S   UNL     1      33.742  14.271  12.540  0.00  0.00    -0.161 S 
ATOM     10  C   UNL     1      32.088  14.803  13.060  0.00  0.00    +0.069 C 
ATOM     11  C   UNL     1      32.146  15.794  14.217  0.00  0.00    +0.017 C 
ATOM     12  C   UNL     1      32.190  17.937  12.781  0.00  0.00    +0.026 C 
ATOM     13  C   UNL     1      30.811  18.452  13.192  0.00  0.00    +0.108 C 
ENDROOT
BRANCH   1  17
ATOM     14  C   UNL     1      29.768  22.724  18.075  0.00  0.00    +0.037 A 
ATOM     15  C   UNL     1      31.036  22.380  17.592  0.00  0.00    +0.014 A 
ATOM     16  C   UNL     1      31.149  21.533  16.490  0.00  0.00    +0.014 A 
ATOM     17  C   UNL     1      30.002  21.109  15.810  0.00  0.00    +0.037 A 
ATOM     18  C   UNL     1      28.737  21.379  16.346  0.00  0.00    +0.014 A 
ATOM     19  C   UNL     1      28.620  22.179  17.486  0.00  0.00    +0.014 A 
BRANCH  14  21
ATOM     20  N   UNL     1      28.338  24.008  19.562  0.00  0.00    -0.325 N 
ATOM     21  C   UNL     1      29.614  23.664  19.212  0.00  0.00    +0.242 C 
ATOM     22  O   UNL     1      30.578  24.072  19.843  0.00  0.00    -0.270 OA
ATOM     23  H   UNL     1      28.240  24.549  20.412  0.00  0.00    +0.145 HD
ATOM     24  H   UNL     1      27.531  23.492  19.241  0.00  0.00    +0.145 HD
ENDBRANCH  14  21
ENDBRANCH   1  17
TORSDOF 2
ENDMDL
MODEL 5
REMARK VINA RESULT:      -6.9      0.751      1.282
REMARK  Name = ZINC000870248439
REMARK  2 active torsions:
REMARK  status: ('A' for Active; 'I' for Inactive)
REMARK    1  A    between atoms: C_2  and  C_4
REMARK    2  A    between atoms: C_7  and  C_8
REMARK                            x       y       z     vdW  Elec       q    Type
REMARK                         _______ _______ _______ _____ _____    ______ ____
ROOT
ATOM      1  C   UNL     1      32.124  20.629  14.426  0.00  0.00    +0.247 C 
ATOM      2  O   UNL     1      32.447  19.442  14.399  0.00  0.00    -0.270 OA
ATOM      3  N   UNL     1      32.552  21.563  13.473  0.00  0.00    -0.297 N 
ATOM      4  C   UNL     1      32.229  22.991  13.475  0.00  0.00    +0.108 C 
ATOM      5  C   UNL     1      31.994  23.558  12.081  0.00  0.00    +0.026 C 
ATOM      6  C   UNL     1      33.112  23.209  11.074  0.00  0.00    -0.025 C 
ATOM      7  C   UNL     1      32.629  23.658   9.672  0.00  0.00    +0.017 C 
ATOM      8  C   UNL     1      33.624  23.426   8.543  0.00  0.00    +0.069 C 
ATOM      9  S   UNL     1      35.182  24.317   8.803  0.00  0.00    -0.161 S 
ATOM     10  C   UNL     1      35.571  23.756  10.483  0.00  0.00    +0.069 C 
ATOM     11  C   UNL     1      34.407  23.978  11.442  0.00  0.00    +0.017 C 
ATOM     12  C   UNL     1      33.300  21.670  11.118  0.00  0.00    +0.026 C 
ATOM     13  C   UNL     1      33.581  21.142  12.525  0.00  0.00    +0.108 C 
ENDROOT
BRANCH   1  17
ATOM     14  C   UNL     1      29.363  22.080  17.342  0.00  0.00    +0.037 A 
ATOM     15  C   UNL     1      30.737  22.172  17.594  0.00  0.00    +0.014 A 
ATOM     16  C   UNL     1      31.644  21.614  16.693  0.00  0.00    +0.014 A 
ATOM     17  C   UNL     1      31.187  21.051  15.497  0.00  0.00    +0.037 A 
ATOM     18  C   UNL     1      29.812  20.879  15.289  0.00  0.00    +0.014 A 
ATOM     19  C   UNL     1      28.900  21.384  16.218  0.00  0.00    +0.014 A 
BRANCH  14  21
ATOM     20  N   UNL     1      27.111  22.190  18.250  0.00  0.00    -0.325 N 
ATOM     21  C   UNL     1      28.376  22.709  18.254  0.00  0.00    +0.242 C 
ATOM     22  O   UNL     1      28.690  23.614  19.013  0.00  0.00    -0.270 OA
ATOM     23  H   UNL     1      26.483  22.544  18.960  0.00  0.00    +0.145 HD
ATOM     24  H   UNL     1      26.896  21.292  17.840  0.00  0.00    +0.145 HD
ENDBRANCH  14  21
ENDBRANCH   1  17
TORSDOF 2
ENDMDL
MODEL 6
REMARK VINA RESULT:      -6.8      5.557      7.214
REMARK  Name = ZINC000870248439
REMARK  2 active torsions:
REMARK  status: ('A' for Active; 'I' for Inactive)
REMARK    1  A    between atoms: C_2  and  C_4
REMARK    2  A    between atoms: C_7  and  C_8
REMARK                            x       y       z     vdW  Elec       q    Type
REMARK                         _______ _______ _______ _____ _____    ______ ____
ROOT
ATOM      1  C   UNL     1      32.222  23.811  18.927  0.00  0.00    +0.247 C 
ATOM      2  O   UNL     1      32.303  25.039  18.939  0.00  0.00    -0.270 OA
ATOM      3  N   UNL     1      33.313  22.968  19.177  0.00  0.00    -0.297 N 
ATOM      4  C   UNL     1      33.283  21.504  19.142  0.00  0.00    +0.108 C 
ATOM      5  C   UNL     1      34.148  20.857  20.217  0.00  0.00    +0.026 C 
ATOM      6  C   UNL     1      35.587  21.415  20.273  0.00  0.00    -0.025 C 
ATOM      7  C   UNL     1      36.262  20.828  21.538  0.00  0.00    +0.017 C 
ATOM      8  C   UNL     1      37.713  21.242  21.744  0.00  0.00    +0.069 C 
ATOM      9  S   UNL     1      38.779  20.728  20.369  0.00  0.00    -0.161 S 
ATOM     10  C   UNL     1      37.831  21.412  18.983  0.00  0.00    +0.069 C 
ATOM     11  C   UNL     1      36.373  20.966  19.015  0.00  0.00    +0.017 C 
ATOM     12  C   UNL     1      35.472  22.958  20.384  0.00  0.00    +0.026 C 
ATOM     13  C   UNL     1      34.637  23.578  19.263  0.00  0.00    +0.108 C 
ENDROOT
BRANCH   1  17
ATOM     14  C   UNL     1      28.300  22.353  18.079  0.00  0.00    +0.037 A 
ATOM     15  C   UNL     1      28.570  22.897  19.339  0.00  0.00    +0.014 A 
ATOM     16  C   UNL     1      29.871  23.286  19.660  0.00  0.00    +0.014 A 
ATOM     17  C   UNL     1      30.880  23.224  18.692  0.00  0.00    +0.037 A 
ATOM     18  C   UNL     1      30.629  22.597  17.465  0.00  0.00    +0.014 A 
ATOM     19  C   UNL     1      29.340  22.151  17.162  0.00  0.00    +0.014 A 
BRANCH  14  21
ATOM     20  N   UNL     1      25.922  22.281  18.576  0.00  0.00    -0.325 N 
ATOM     21  C   UNL     1      26.918  21.979  17.690  0.00  0.00    +0.242 C 
ATOM     22  O   UNL     1      26.671  21.473  16.605  0.00  0.00    -0.270 OA
ATOM     23  H   UNL     1      24.975  22.134  18.249  0.00  0.00    +0.145 HD
ATOM     24  H   UNL     1      26.057  22.925  19.343  0.00  0.00    +0.145 HD
ENDBRANCH  14  21
ENDBRANCH   1  17
TORSDOF 2
ENDMDL
MODEL 7
REMARK VINA RESULT:      -6.4      7.521      9.542
REMARK  Name = ZINC000870248439
REMARK  2 active torsions:
REMARK  status: ('A' for Active; 'I' for Inactive)
REMARK    1  A    between atoms: C_2  and  C_4
REMARK    2  A    between atoms: C_7  and  C_8
REMARK                            x       y       z     vdW  Elec       q    Type
REMARK                         _______ _______ _______ _____ _____    ______ ____
ROOT
ATOM      1  C   UNL     1      33.290  15.130  12.074  0.00  0.00    +0.247 C 
ATOM      2  O   UNL     1      33.791  15.417  10.987  0.00  0.00    -0.270 OA
ATOM      3  N   UNL     1      32.926  16.090  13.028  0.00  0.00    -0.297 N 
ATOM      4  C   UNL     1      32.361  15.806  14.349  0.00  0.00    +0.108 C 
ATOM      5  C   UNL     1      31.296  16.808  14.777  0.00  0.00    +0.026 C 
ATOM      6  C   UNL     1      31.737  18.281  14.630  0.00  0.00    -0.025 C 
ATOM      7  C   UNL     1      30.492  19.165  14.888  0.00  0.00    +0.017 C 
ATOM      8  C   UNL     1      30.742  20.666  14.822  0.00  0.00    +0.069 C 
ATOM      9  S   UNL     1      31.962  21.216  16.045  0.00  0.00    -0.161 S 
ATOM     10  C   UNL     1      33.305  20.057  15.671  0.00  0.00    +0.069 C 
ATOM     11  C   UNL     1      32.828  18.609  15.682  0.00  0.00    +0.017 C 
ATOM     12  C   UNL     1      32.241  18.462  13.174  0.00  0.00    +0.026 C 
ATOM     13  C   UNL     1      33.341  17.471  12.794  0.00  0.00    +0.108 C 
ENDROOT
BRANCH   1  17
ATOM     14  C   UNL     1      32.662  10.939  12.588  0.00  0.00    +0.037 A 
ATOM     15  C   UNL     1      31.616  11.734  12.107  0.00  0.00    +0.014 A 
ATOM     16  C   UNL     1      31.779  13.117  12.028  0.00  0.00    +0.014 A 
ATOM     17  C   UNL     1      33.015  13.696  12.335  0.00  0.00    +0.037 A 
ATOM     18  C   UNL     1      34.030  12.912  12.899  0.00  0.00    +0.014 A 
ATOM     19  C   UNL     1      33.849  11.533  13.036  0.00  0.00    +0.014 A 
BRANCH  14  21
ATOM     20  N   UNL     1      31.450   8.911  12.016  0.00  0.00    -0.325 N 
ATOM     21  C   UNL     1      32.538   9.460  12.634  0.00  0.00    +0.242 C 
ATOM     22  O   UNL     1      33.395   8.761  13.153  0.00  0.00    -0.270 OA
ATOM     23  H   UNL     1      31.440   7.901  11.947  0.00  0.00    +0.145 HD
ATOM     24  H   UNL     1      30.879   9.430  11.363  0.00  0.00    +0.145 HD
ENDBRANCH  14  21
ENDBRANCH   1  17
TORSDOF 2
ENDMDL
MODEL 8
REMARK VINA RESULT:      -6.3      4.113      7.684
REMARK  Name = ZINC000870248439
REMARK  2 active torsions:
REMARK  status: ('A' for Active; 'I' for Inactive)
REMARK    1  A    between atoms: C_2  and  C_4
REMARK    2  A    between atoms: C_7  and  C_8
REMARK                            x       y       z     vdW  Elec       q    Type
REMARK                         _______ _______ _______ _____ _____    ______ ____
ROOT
ATOM      1  C   UNL     1      31.034  22.567  14.651  0.00  0.00    +0.247 C 
ATOM      2  O   UNL     1      30.057  21.822  14.724  0.00  0.00    -0.270 OA
ATOM      3  N   UNL     1      31.776  22.972  15.769  0.00  0.00    -0.297 N 
ATOM      4  C   UNL     1      32.923  23.883  15.745  0.00  0.00    +0.108 C 
ATOM      5  C   UNL     1      34.020  23.496  16.730  0.00  0.00    +0.026 C 
ATOM      6  C   UNL     1      33.503  23.237  18.161  0.00  0.00    -0.025 C 
ATOM      7  C   UNL     1      34.680  22.648  18.979  0.00  0.00    +0.017 C 
ATOM      8  C   UNL     1      34.368  22.358  20.441  0.00  0.00    +0.069 C 
ATOM      9  S   UNL     1      33.874  23.849  21.349  0.00  0.00    -0.161 S 
ATOM     10  C   UNL     1      32.567  24.452  20.246  0.00  0.00    +0.069 C 
ATOM     11  C   UNL     1      33.048  24.573  18.805  0.00  0.00    +0.017 C 
ATOM     12  C   UNL     1      32.349  22.207  18.050  0.00  0.00    +0.026 C 
ATOM     13  C   UNL     1      31.244  22.649  17.090  0.00  0.00    +0.108 C 
ENDROOT
BRANCH   1  17
ATOM     14  C   UNL     1      32.495  23.918  10.873  0.00  0.00    +0.037 A 
ATOM     15  C   UNL     1      31.399  24.565  11.454  0.00  0.00    +0.014 A 
ATOM     16  C   UNL     1      30.854  24.071  12.639  0.00  0.00    +0.014 A 
ATOM     17  C   UNL     1      31.460  22.994  13.294  0.00  0.00    +0.037 A 
ATOM     18  C   UNL     1      32.498  22.293  12.668  0.00  0.00    +0.014 A 
ATOM     19  C   UNL     1      33.009  22.750  11.450  0.00  0.00    +0.014 A 
BRANCH  14  21
ATOM     20  N   UNL     1      32.718  23.917   8.453  0.00  0.00    -0.325 N 
ATOM     21  C   UNL     1      33.131  24.450   9.642  0.00  0.00    +0.242 C 
ATOM     22  O   UNL     1      33.946  25.359   9.682  0.00  0.00    -0.270 OA
ATOM     23  H   UNL     1      33.066  24.370   7.617  0.00  0.00    +0.145 HD
ATOM     24  H   UNL     1      31.875  23.367   8.370  0.00  0.00    +0.145 HD
ENDBRANCH  14  21
ENDBRANCH   1  17
TORSDOF 2
ENDMDL
MODEL 9
REMARK VINA RESULT:      -6.3      6.117      8.552
REMARK  Name = ZINC000870248439
REMARK  2 active torsions:
REMARK  status: ('A' for Active; 'I' for Inactive)
REMARK    1  A    between atoms: C_2  and  C_4
REMARK    2  A    between atoms: C_7  and  C_8
REMARK                            x       y       z     vdW  Elec       q    Type
REMARK                         _______ _______ _______ _____ _____    ______ ____
ROOT
ATOM      1  C   UNL     1      32.635  24.277  18.770  0.00  0.00    +0.247 C 
ATOM      2  O   UNL     1      33.020  24.958  17.821  0.00  0.00    -0.270 OA
ATOM      3  N   UNL     1      33.351  24.156  19.969  0.00  0.00    -0.297 N 
ATOM      4  C   UNL     1      32.959  23.333  21.115  0.00  0.00    +0.108 C 
ATOM      5  C   UNL     1      33.277  23.980  22.458  0.00  0.00    +0.026 C 
ATOM      6  C   UNL     1      34.729  24.493  22.570  0.00  0.00    -0.025 C 
ATOM      7  C   UNL     1      34.832  25.309  23.883  0.00  0.00    +0.017 C 
ATOM      8  C   UNL     1      36.214  25.870  24.186  0.00  0.00    +0.069 C 
ATOM      9  S   UNL     1      37.466  24.568  24.351  0.00  0.00    -0.161 S 
ATOM     10  C   UNL     1      37.173  23.673  22.802  0.00  0.00    +0.069 C 
ATOM     11  C   UNL     1      35.706  23.291  22.634  0.00  0.00    +0.017 C 
ATOM     12  C   UNL     1      34.986  25.404  21.342  0.00  0.00    +0.026 C 
ATOM     13  C   UNL     1      34.702  24.708  20.010  0.00  0.00    +0.108 C 
ENDROOT
BRANCH   1  17
ATOM     14  C   UNL     1      28.787  22.535  18.146  0.00  0.00    +0.037 A 
ATOM     15  C   UNL     1      28.980  23.397  19.231  0.00  0.00    +0.014 A 
ATOM     16  C   UNL     1      30.256  23.894  19.501  0.00  0.00    +0.014 A 
ATOM     17  C   UNL     1      31.316  23.610  18.633  0.00  0.00    +0.037 A 
ATOM     18  C   UNL     1      31.141  22.677  17.603  0.00  0.00    +0.014 A 
ATOM     19  C   UNL     1      29.877  22.131  17.366  0.00  0.00    +0.014 A 
BRANCH  14  21
ATOM     20  N   UNL     1      26.438  22.267  18.710  0.00  0.00    -0.325 N 
ATOM     21  C   UNL     1      27.433  22.032  17.803  0.00  0.00    +0.242 C 
ATOM     22  O   UNL     1      27.205  21.482  16.736  0.00  0.00    -0.270 OA
ATOM     23  H   UNL     1      25.500  22.030  18.412  0.00  0.00    +0.145 HD
ATOM     24  H   UNL     1      26.535  22.937  19.459  0.00  0.00    +0.145 HD
ENDBRANCH  14  21
ENDBRANCH   1  17
TORSDOF 2
ENDMDL
