MODEL 1
REMARK VINA RESULT:      -6.6      0.000      0.000
REMARK  Name = ZINC000826139982
REMARK  4 active torsions:
REMARK  status: ('A' for Active; 'I' for Inactive)
REMARK    1  A    between atoms: C_2  and  C_4
REMARK    2  A    between atoms: C_8  and  C_10
REMARK    3  A    between atoms: C_14  and  S_15
REMARK    4  A    between atoms: S_15  and  C_16
REMARK                            x       y       z     vdW  Elec       q    Type
REMARK                         _______ _______ _______ _____ _____    ______ ____
ROOT
ATOM      1  C   UNL     1      16.872   3.885   9.002  0.00  0.00    +0.093 C 
ATOM      2  C   UNL     1      17.106   2.608   8.187  0.00  0.00    +0.033 C 
ATOM      3  C   UNL     1      16.640   2.938   6.776  0.00  0.00    +0.109 C 
ATOM      4  N   UNL     1      15.638   3.966   6.964  0.00  0.00    -0.297 N 
ATOM      5  C   UNL     1      14.621   4.167   6.039  0.00  0.00    +0.247 C 
ATOM      6  O   UNL     1      14.482   3.427   5.065  0.00  0.00    -0.270 OA
ATOM      7  C   UNL     1      15.979   4.761   8.133  0.00  0.00    +0.120 C 
ENDROOT
BRANCH   5   8
ATOM      8  C   UNL     1      13.606   5.255   6.234  0.00  0.00    +0.038 A 
ATOM      9  C   UNL     1      13.624   6.463   5.530  0.00  0.00    +0.013 A 
ATOM     10  C   UNL     1      12.731   7.488   5.839  0.00  0.00    +0.002 A 
ATOM     11  C   UNL     1      11.737   7.278   6.787  0.00  0.00    +0.015 A 
ATOM     12  C   UNL     1      11.610   6.031   7.406  0.00  0.00    +0.017 A 
ATOM     13  C   UNL     1      12.566   5.037   7.154  0.00  0.00    +0.028 A 
BRANCH  12  14
ATOM     14  S   UNL     1      10.273   5.709   8.538  0.00  0.00    -0.016 S 
BRANCH  14  15
ATOM     15  C   UNL     1      11.115   5.863  10.128  0.00  0.00    +0.448 C 
ATOM     16  F   UNL     1      11.871   4.789  10.458  0.00  0.00    -0.160 F 
ATOM     17  F   UNL     1      11.934   6.942  10.137  0.00  0.00    -0.160 F 
ATOM     18  F   UNL     1      10.217   6.036  11.128  0.00  0.00    -0.160 F 
ENDBRANCH  14  15
ENDBRANCH  12  14
ENDBRANCH   5   8
BRANCH   1  20
ATOM     19  N   UNL     1      19.272   3.842   9.375  0.00  0.00    -0.329 N 
ATOM     20  C   UNL     1      18.142   4.603   9.421  0.00  0.00    +0.215 C 
ATOM     21  O   UNL     1      18.190   5.752   9.834  0.00  0.00    -0.276 OA
ATOM     22  H   UNL     1      20.130   4.260   9.712  0.00  0.00    +0.145 HD
ATOM     23  H   UNL     1      19.278   2.867   9.111  0.00  0.00    +0.145 HD
ENDBRANCH   1  20
TORSDOF 4
ENDMDL
MODEL 2
REMARK VINA RESULT:      -6.5     21.085     23.485
REMARK  Name = ZINC000826139982
REMARK  4 active torsions:
REMARK  status: ('A' for Active; 'I' for Inactive)
REMARK    1  A    between atoms: C_2  and  C_4
REMARK    2  A    between atoms: C_8  and  C_10
REMARK    3  A    between atoms: C_14  and  S_15
REMARK    4  A    between atoms: S_15  and  C_16
REMARK                            x       y       z     vdW  Elec       q    Type
REMARK                         _______ _______ _______ _____ _____    ______ ____
ROOT
ATOM      1  C   UNL     1      32.043  22.165  17.910  0.00  0.00    +0.093 C 
ATOM      2  C   UNL     1      31.965  23.203  16.786  0.00  0.00    +0.033 C 
ATOM      3  C   UNL     1      30.733  22.827  15.974  0.00  0.00    +0.109 C 
ATOM      4  N   UNL     1      30.595  21.400  16.178  0.00  0.00    -0.297 N 
ATOM      5  C   UNL     1      29.958  20.590  15.245  0.00  0.00    +0.247 C 
ATOM      6  O   UNL     1      29.561  21.039  14.170  0.00  0.00    -0.270 OA
ATOM      7  C   UNL     1      31.081  21.056  17.504  0.00  0.00    +0.120 C 
ENDROOT
BRANCH   5   8
ATOM      8  C   UNL     1      29.799  19.118  15.484  0.00  0.00    +0.038 A 
ATOM      9  C   UNL     1      29.002  18.583  16.501  0.00  0.00    +0.013 A 
ATOM     10  C   UNL     1      28.987  17.213  16.757  0.00  0.00    +0.002 A 
ATOM     11  C   UNL     1      29.690  16.346  15.928  0.00  0.00    +0.015 A 
ATOM     12  C   UNL     1      30.383  16.842  14.820  0.00  0.00    +0.017 A 
ATOM     13  C   UNL     1      30.465  18.228  14.624  0.00  0.00    +0.028 A 
BRANCH  12  14
ATOM     14  S   UNL     1      31.193  15.736  13.683  0.00  0.00    -0.016 S 
BRANCH  14  15
ATOM     15  C   UNL     1      29.776  14.960  12.879  0.00  0.00    +0.448 C 
ATOM     16  F   UNL     1      29.006  15.819  12.169  0.00  0.00    -0.160 F 
ATOM     17  F   UNL     1      30.178  13.989  12.024  0.00  0.00    -0.160 F 
ATOM     18  F   UNL     1      28.968  14.374  13.797  0.00  0.00    -0.160 F 
ENDBRANCH  14  15
ENDBRANCH  12  14
ENDBRANCH   5   8
BRANCH   1  20
ATOM     19  N   UNL     1      30.542  23.366  19.394  0.00  0.00    -0.329 N 
ATOM     20  C   UNL     1      31.733  22.712  19.291  0.00  0.00    +0.215 C 
ATOM     21  O   UNL     1      32.487  22.653  20.251  0.00  0.00    -0.276 OA
ATOM     22  H   UNL     1      30.327  23.807  20.280  0.00  0.00    +0.145 HD
ATOM     23  H   UNL     1      29.913  23.507  18.616  0.00  0.00    +0.145 HD
ENDBRANCH   1  20
TORSDOF 4
ENDMDL
MODEL 3
REMARK VINA RESULT:      -6.3     20.122     22.674
REMARK  Name = ZINC000826139982
REMARK  4 active torsions:
REMARK  status: ('A' for Active; 'I' for Inactive)
REMARK    1  A    between atoms: C_2  and  C_4
REMARK    2  A    between atoms: C_8  and  C_10
REMARK    3  A    between atoms: C_14  and  S_15
REMARK    4  A    between atoms: S_15  and  C_16
REMARK                            x       y       z     vdW  Elec       q    Type
REMARK                         _______ _______ _______ _____ _____    ______ ____
ROOT
ATOM      1  C   UNL     1      29.675  21.091  17.478  0.00  0.00    +0.093 C 
ATOM      2  C   UNL     1      29.950  22.401  16.732  0.00  0.00    +0.033 C 
ATOM      3  C   UNL     1      30.027  22.020  15.259  0.00  0.00    +0.109 C 
ATOM      4  N   UNL     1      30.461  20.638  15.272  0.00  0.00    -0.297 N 
ATOM      5  C   UNL     1      31.144  20.081  14.199  0.00  0.00    +0.247 C 
ATOM      6  O   UNL     1      31.480  20.760  13.229  0.00  0.00    -0.270 OA
ATOM      7  C   UNL     1      29.947  19.985  16.466  0.00  0.00    +0.120 C 
ENDROOT
BRANCH   5   8
ATOM      8  C   UNL     1      31.562  18.640  14.216  0.00  0.00    +0.038 A 
ATOM      9  C   UNL     1      32.896  18.224  14.168  0.00  0.00    +0.013 A 
ATOM     10  C   UNL     1      33.223  16.873  14.062  0.00  0.00    +0.002 A 
ATOM     11  C   UNL     1      32.221  15.911  14.109  0.00  0.00    +0.015 A 
ATOM     12  C   UNL     1      30.889  16.294  14.297  0.00  0.00    +0.017 A 
ATOM     13  C   UNL     1      30.562  17.658  14.313  0.00  0.00    +0.028 A 
BRANCH  12  14
ATOM     14  S   UNL     1      29.606  15.072  14.475  0.00  0.00    -0.016 S 
BRANCH  14  15
ATOM     15  C   UNL     1      29.247  14.688  12.748  0.00  0.00    +0.448 C 
ATOM     16  F   UNL     1      28.955  15.772  11.991  0.00  0.00    -0.160 F 
ATOM     17  F   UNL     1      30.299  14.068  12.162  0.00  0.00    -0.160 F 
ATOM     18  F   UNL     1      28.188  13.847  12.657  0.00  0.00    -0.160 F 
ENDBRANCH  14  15
ENDBRANCH  12  14
ENDBRANCH   5   8
BRANCH   1  20
ATOM     19  N   UNL     1      27.557  19.914  17.655  0.00  0.00    -0.329 N 
ATOM     20  C   UNL     1      28.283  20.990  18.074  0.00  0.00    +0.215 C 
ATOM     21  O   UNL     1      27.784  21.814  18.824  0.00  0.00    -0.276 OA
ATOM     22  H   UNL     1      26.598  19.846  17.974  0.00  0.00    +0.145 HD
ATOM     23  H   UNL     1      27.894  19.242  16.981  0.00  0.00    +0.145 HD
ENDBRANCH   1  20
TORSDOF 4
ENDMDL
MODEL 4
REMARK VINA RESULT:      -6.3      4.570      6.220
REMARK  Name = ZINC000826139982
REMARK  4 active torsions:
REMARK  status: ('A' for Active; 'I' for Inactive)
REMARK    1  A    between atoms: C_2  and  C_4
REMARK    2  A    between atoms: C_8  and  C_10
REMARK    3  A    between atoms: C_14  and  S_15
REMARK    4  A    between atoms: S_15  and  C_16
REMARK                            x       y       z     vdW  Elec       q    Type
REMARK                         _______ _______ _______ _____ _____    ______ ____
ROOT
ATOM      1  C   UNL     1      12.449   5.747  12.107  0.00  0.00    +0.093 C 
ATOM      2  C   UNL     1      11.108   6.460  11.905  0.00  0.00    +0.033 C 
ATOM      3  C   UNL     1      10.401   5.687  10.800  0.00  0.00    +0.109 C 
ATOM      4  N   UNL     1      11.479   5.112  10.023  0.00  0.00    -0.297 N 
ATOM      5  C   UNL     1      11.318   4.791   8.681  0.00  0.00    +0.247 C 
ATOM      6  O   UNL     1      10.279   5.060   8.077  0.00  0.00    -0.270 OA
ATOM      7  C   UNL     1      12.605   4.830  10.900  0.00  0.00    +0.120 C 
ENDROOT
BRANCH   5   8
ATOM      8  C   UNL     1      12.436   4.170   7.897  0.00  0.00    +0.038 A 
ATOM      9  C   UNL     1      12.732   2.804   7.926  0.00  0.00    +0.013 A 
ATOM     10  C   UNL     1      13.858   2.299   7.277  0.00  0.00    +0.002 A 
ATOM     11  C   UNL     1      14.646   3.141   6.500  0.00  0.00    +0.015 A 
ATOM     12  C   UNL     1      14.291   4.484   6.341  0.00  0.00    +0.017 A 
ATOM     13  C   UNL     1      13.210   5.001   7.069  0.00  0.00    +0.028 A 
BRANCH  12  14
ATOM     14  S   UNL     1      15.222   5.549   5.259  0.00  0.00    -0.016 S 
BRANCH  14  15
ATOM     15  C   UNL     1      14.563   5.072   3.647  0.00  0.00    +0.448 C 
ATOM     16  F   UNL     1      13.328   4.520   3.697  0.00  0.00    -0.160 F 
ATOM     17  F   UNL     1      14.485   6.144   2.822  0.00  0.00    -0.160 F 
ATOM     18  F   UNL     1      15.376   4.167   3.049  0.00  0.00    -0.160 F 
ENDBRANCH  14  15
ENDBRANCH  12  14
ENDBRANCH   5   8
BRANCH   1  20
ATOM     19  N   UNL     1      11.430   4.974  14.172  0.00  0.00    -0.329 N 
ATOM     20  C   UNL     1      12.565   4.990  13.417  0.00  0.00    +0.215 C 
ATOM     21  O   UNL     1      13.590   4.473  13.836  0.00  0.00    -0.276 OA
ATOM     22  H   UNL     1      11.484   4.539  15.085  0.00  0.00    +0.145 HD
ATOM     23  H   UNL     1      10.577   5.445  13.908  0.00  0.00    +0.145 HD
ENDBRANCH   1  20
TORSDOF 4
ENDMDL
MODEL 5
REMARK VINA RESULT:      -6.3      4.155      5.932
REMARK  Name = ZINC000826139982
REMARK  4 active torsions:
REMARK  status: ('A' for Active; 'I' for Inactive)
REMARK    1  A    between atoms: C_2  and  C_4
REMARK    2  A    between atoms: C_8  and  C_10
REMARK    3  A    between atoms: C_14  and  S_15
REMARK    4  A    between atoms: S_15  and  C_16
REMARK                            x       y       z     vdW  Elec       q    Type
REMARK                         _______ _______ _______ _____ _____    ______ ____
ROOT
ATOM      1  C   UNL     1      12.701   4.733  10.283  0.00  0.00    +0.093 C 
ATOM      2  C   UNL     1      13.785   4.811  11.364  0.00  0.00    +0.033 C 
ATOM      3  C   UNL     1      15.098   4.961  10.608  0.00  0.00    +0.109 C 
ATOM      4  N   UNL     1      14.849   4.326   9.331  0.00  0.00    -0.297 N 
ATOM      5  C   UNL     1      15.881   3.785   8.574  0.00  0.00    +0.247 C 
ATOM      6  O   UNL     1      17.036   3.750   8.997  0.00  0.00    -0.270 OA
ATOM      7  C   UNL     1      13.448   4.494   8.977  0.00  0.00    +0.120 C 
ENDROOT
BRANCH   5   8
ATOM      8  C   UNL     1      15.609   3.155   7.240  0.00  0.00    +0.038 A 
ATOM      9  C   UNL     1      15.114   1.856   7.087  0.00  0.00    +0.013 A 
ATOM     10  C   UNL     1      14.998   1.276   5.824  0.00  0.00    +0.002 A 
ATOM     11  C   UNL     1      15.274   2.029   4.688  0.00  0.00    +0.015 A 
ATOM     12  C   UNL     1      15.637   3.373   4.809  0.00  0.00    +0.017 A 
ATOM     13  C   UNL     1      15.838   3.920   6.084  0.00  0.00    +0.028 A 
BRANCH  12  14
ATOM     14  S   UNL     1      15.884   4.382   3.362  0.00  0.00    -0.016 S 
BRANCH  14  15
ATOM     15  C   UNL     1      14.399   5.408   3.392  0.00  0.00    +0.448 C 
ATOM     16  F   UNL     1      14.474   6.463   4.237  0.00  0.00    -0.160 F 
ATOM     17  F   UNL     1      14.130   5.903   2.160  0.00  0.00    -0.160 F 
ATOM     18  F   UNL     1      13.322   4.675   3.770  0.00  0.00    -0.160 F 
ENDBRANCH  14  15
ENDBRANCH  12  14
ENDBRANCH   5   8
BRANCH   1  20
ATOM     19  N   UNL     1      10.484   5.679   9.975  0.00  0.00    -0.329 N 
ATOM     20  C   UNL     1      11.800   5.952  10.210  0.00  0.00    +0.215 C 
ATOM     21  O   UNL     1      12.184   7.109  10.286  0.00  0.00    -0.276 OA
ATOM     22  H   UNL     1       9.860   6.466   9.851  0.00  0.00    +0.145 HD
ATOM     23  H   UNL     1      10.125   4.746   9.833  0.00  0.00    +0.145 HD
ENDBRANCH   1  20
TORSDOF 4
ENDMDL
MODEL 6
REMARK VINA RESULT:      -6.2      4.387      6.953
REMARK  Name = ZINC000826139982
REMARK  4 active torsions:
REMARK  status: ('A' for Active; 'I' for Inactive)
REMARK    1  A    between atoms: C_2  and  C_4
REMARK    2  A    between atoms: C_8  and  C_10
REMARK    3  A    between atoms: C_14  and  S_15
REMARK    4  A    between atoms: S_15  and  C_16
REMARK                            x       y       z     vdW  Elec       q    Type
REMARK                         _______ _______ _______ _____ _____    ______ ____
ROOT
ATOM      1  C   UNL     1      10.468   5.316   9.278  0.00  0.00    +0.093 C 
ATOM      2  C   UNL     1      10.927   6.313  10.348  0.00  0.00    +0.033 C 
ATOM      3  C   UNL     1      12.442   6.385  10.210  0.00  0.00    +0.109 C 
ATOM      4  N   UNL     1      12.811   5.095   9.665  0.00  0.00    -0.297 N 
ATOM      5  C   UNL     1      14.074   4.553   9.870  0.00  0.00    +0.247 C 
ATOM      6  O   UNL     1      14.901   5.108  10.593  0.00  0.00    -0.270 OA
ATOM      7  C   UNL     1      11.736   4.608   8.815  0.00  0.00    +0.120 C 
ENDROOT
BRANCH   5   8
ATOM      8  C   UNL     1      14.449   3.228   9.275  0.00  0.00    +0.038 A 
ATOM      9  C   UNL     1      14.100   2.000   9.844  0.00  0.00    +0.013 A 
ATOM     10  C   UNL     1      14.580   0.801   9.317  0.00  0.00    +0.002 A 
ATOM     11  C   UNL     1      15.331   0.810   8.147  0.00  0.00    +0.015 A 
ATOM     12  C   UNL     1      15.577   2.015   7.481  0.00  0.00    +0.017 A 
ATOM     13  C   UNL     1      15.167   3.221   8.066  0.00  0.00    +0.028 A 
BRANCH  12  14
ATOM     14  S   UNL     1      16.439   2.033   5.923  0.00  0.00    -0.016 S 
BRANCH  14  15
ATOM     15  C   UNL     1      15.060   2.137   4.761  0.00  0.00    +0.448 C 
ATOM     16  F   UNL     1      13.841   2.089   5.347  0.00  0.00    -0.160 F 
ATOM     17  F   UNL     1      15.114   3.289   4.051  0.00  0.00    -0.160 F 
ATOM     18  F   UNL     1      15.110   1.117   3.870  0.00  0.00    -0.160 F 
ENDBRANCH  14  15
ENDBRANCH  12  14
ENDBRANCH   5   8
BRANCH   1  20
ATOM     19  N   UNL     1      10.434   6.818   7.369  0.00  0.00    -0.329 N 
ATOM     20  C   UNL     1       9.710   5.942   8.122  0.00  0.00    +0.215 C 
ATOM     21  O   UNL     1       8.526   5.757   7.883  0.00  0.00    -0.276 OA
ATOM     22  H   UNL     1       9.947   7.311   6.630  0.00  0.00    +0.145 HD
ATOM     23  H   UNL     1      11.394   7.062   7.566  0.00  0.00    +0.145 HD
ENDBRANCH   1  20
TORSDOF 4
ENDMDL
MODEL 7
REMARK VINA RESULT:      -6.2      2.397      4.389
REMARK  Name = ZINC000826139982
REMARK  4 active torsions:
REMARK  status: ('A' for Active; 'I' for Inactive)
REMARK    1  A    between atoms: C_2  and  C_4
REMARK    2  A    between atoms: C_8  and  C_10
REMARK    3  A    between atoms: C_14  and  S_15
REMARK    4  A    between atoms: S_15  and  C_16
REMARK                            x       y       z     vdW  Elec       q    Type
REMARK                         _______ _______ _______ _____ _____    ______ ____
ROOT
ATOM      1  C   UNL     1      14.863   3.016   6.379  0.00  0.00    +0.093 C 
ATOM      2  C   UNL     1      16.337   3.426   6.286  0.00  0.00    +0.033 C 
ATOM      3  C   UNL     1      16.811   3.560   7.727  0.00  0.00    +0.109 C 
ATOM      4  N   UNL     1      15.611   3.894   8.466  0.00  0.00    -0.297 N 
ATOM      5  C   UNL     1      15.667   4.596   9.664  0.00  0.00    +0.247 C 
ATOM      6  O   UNL     1      16.730   5.036  10.102  0.00  0.00    -0.270 OA
ATOM      7  C   UNL     1      14.465   3.267   7.828  0.00  0.00    +0.120 C 
ENDROOT
BRANCH   5   8
ATOM      8  C   UNL     1      14.417   4.910  10.432  0.00  0.00    +0.038 A 
ATOM      9  C   UNL     1      14.264   4.648  11.797  0.00  0.00    +0.013 A 
ATOM     10  C   UNL     1      13.039   4.845  12.433  0.00  0.00    +0.002 A 
ATOM     11  C   UNL     1      11.977   5.408  11.733  0.00  0.00    +0.015 A 
ATOM     12  C   UNL     1      12.146   5.808  10.404  0.00  0.00    +0.017 A 
ATOM     13  C   UNL     1      13.353   5.524   9.749  0.00  0.00    +0.028 A 
BRANCH  12  14
ATOM     14  S   UNL     1      10.834   6.634   9.529  0.00  0.00    -0.016 S 
BRANCH  14  15
ATOM     15  C   UNL     1      10.368   5.372   8.325  0.00  0.00    +0.448 C 
ATOM     16  F   UNL     1      11.002   5.484   7.134  0.00  0.00    -0.160 F 
ATOM     17  F   UNL     1      10.632   4.131   8.800  0.00  0.00    -0.160 F 
ATOM     18  F   UNL     1       9.037   5.425   8.070  0.00  0.00    -0.160 F 
ENDBRANCH  14  15
ENDBRANCH  12  14
ENDBRANCH   5   8
BRANCH   1  20
ATOM     19  N   UNL     1      13.904   0.837   6.863  0.00  0.00    -0.329 N 
ATOM     20  C   UNL     1      14.581   1.589   5.949  0.00  0.00    +0.215 C 
ATOM     21  O   UNL     1      14.965   1.086   4.903  0.00  0.00    -0.276 OA
ATOM     22  H   UNL     1      13.756  -0.141   6.645  0.00  0.00    +0.145 HD
ATOM     23  H   UNL     1      13.626   1.180   7.771  0.00  0.00    +0.145 HD
ENDBRANCH   1  20
TORSDOF 4
ENDMDL
MODEL 8
REMARK VINA RESULT:      -6.1     24.051     25.490
REMARK  Name = ZINC000826139982
REMARK  4 active torsions:
REMARK  status: ('A' for Active; 'I' for Inactive)
REMARK    1  A    between atoms: C_2  and  C_4
REMARK    2  A    between atoms: C_8  and  C_10
REMARK    3  A    between atoms: C_14  and  S_15
REMARK    4  A    between atoms: S_15  and  C_16
REMARK                            x       y       z     vdW  Elec       q    Type
REMARK                         _______ _______ _______ _____ _____    ______ ____
ROOT
ATOM      1  C   UNL     1      25.534  26.055  21.424  0.00  0.00    +0.093 C 
ATOM      2  C   UNL     1      24.836  25.428  22.637  0.00  0.00    +0.033 C 
ATOM      3  C   UNL     1      24.074  24.229  22.089  0.00  0.00    +0.109 C 
ATOM      4  N   UNL     1      23.801  24.581  20.711  0.00  0.00    -0.297 N 
ATOM      5  C   UNL     1      22.719  24.043  20.025  0.00  0.00    +0.247 C 
ATOM      6  O   UNL     1      21.903  23.311  20.584  0.00  0.00    -0.270 OA
ATOM      7  C   UNL     1      24.879  25.415  20.207  0.00  0.00    +0.120 C 
ENDROOT
BRANCH   5   8
ATOM      8  C   UNL     1      22.466  24.396  18.589  0.00  0.00    +0.038 A 
ATOM      9  C   UNL     1      22.938  23.637  17.513  0.00  0.00    +0.013 A 
ATOM     10  C   UNL     1      22.781  24.077  16.200  0.00  0.00    +0.002 A 
ATOM     11  C   UNL     1      22.053  25.233  15.939  0.00  0.00    +0.015 A 
ATOM     12  C   UNL     1      21.451  25.934  16.988  0.00  0.00    +0.017 A 
ATOM     13  C   UNL     1      21.691  25.534  18.310  0.00  0.00    +0.028 A 
BRANCH  12  14
ATOM     14  S   UNL     1      20.421  27.350  16.663  0.00  0.00    -0.016 S 
BRANCH  14  15
ATOM     15  C   UNL     1      21.414  28.677  17.378  0.00  0.00    +0.448 C 
ATOM     16  F   UNL     1      22.536  28.251  18.004  0.00  0.00    -0.160 F 
ATOM     17  F   UNL     1      21.803  29.557  16.424  0.00  0.00    -0.160 F 
ATOM     18  F   UNL     1      20.693  29.373  18.291  0.00  0.00    -0.160 F 
ENDBRANCH  14  15
ENDBRANCH  12  14
ENDBRANCH   5   8
BRANCH   1  20
ATOM     19  N   UNL     1      27.523  25.074  20.432  0.00  0.00    -0.329 N 
ATOM     20  C   UNL     1      27.042  25.888  21.414  0.00  0.00    +0.215 C 
ATOM     21  O   UNL     1      27.803  26.372  22.239  0.00  0.00    -0.276 OA
ATOM     22  H   UNL     1      28.517  24.880  20.431  0.00  0.00    +0.145 HD
ATOM     23  H   UNL     1      26.933  24.592  19.769  0.00  0.00    +0.145 HD
ENDBRANCH   1  20
TORSDOF 4
ENDMDL
MODEL 9
REMARK VINA RESULT:      -6.1      4.269      6.737
REMARK  Name = ZINC000826139982
REMARK  4 active torsions:
REMARK  status: ('A' for Active; 'I' for Inactive)
REMARK    1  A    between atoms: C_2  and  C_4
REMARK    2  A    between atoms: C_8  and  C_10
REMARK    3  A    between atoms: C_14  and  S_15
REMARK    4  A    between atoms: S_15  and  C_16
REMARK                            x       y       z     vdW  Elec       q    Type
REMARK                         _______ _______ _______ _____ _____    ______ ____
ROOT
ATOM      1  C   UNL     1       9.988   9.277   5.373  0.00  0.00    +0.093 C 
ATOM      2  C   UNL     1       8.544   8.832   5.627  0.00  0.00    +0.033 C 
ATOM      3  C   UNL     1       8.603   7.959   6.874  0.00  0.00    +0.109 C 
ATOM      4  N   UNL     1       9.945   7.416   6.865  0.00  0.00    -0.297 N 
ATOM      5  C   UNL     1      10.247   6.212   7.488  0.00  0.00    +0.247 C 
ATOM      6  O   UNL     1       9.370   5.517   8.001  0.00  0.00    -0.270 OA
ATOM      7  C   UNL     1      10.848   8.380   6.256  0.00  0.00    +0.120 C 
ENDROOT
BRANCH   5   8
ATOM      8  C   UNL     1      11.648   5.677   7.493  0.00  0.00    +0.038 A 
ATOM      9  C   UNL     1      12.253   5.087   6.379  0.00  0.00    +0.013 A 
ATOM     10  C   UNL     1      13.512   4.495   6.474  0.00  0.00    +0.002 A 
ATOM     11  C   UNL     1      14.230   4.581   7.662  0.00  0.00    +0.015 A 
ATOM     12  C   UNL     1      13.706   5.287   8.749  0.00  0.00    +0.017 A 
ATOM     13  C   UNL     1      12.403   5.800   8.672  0.00  0.00    +0.028 A 
BRANCH  12  14
ATOM     14  S   UNL     1      14.658   5.503  10.238  0.00  0.00    -0.016 S 
BRANCH  14  15
ATOM     15  C   UNL     1      13.855   4.323  11.342  0.00  0.00    +0.448 C 
ATOM     16  F   UNL     1      12.669   4.749  11.838  0.00  0.00    -0.160 F 
ATOM     17  F   UNL     1      13.620   3.150  10.706  0.00  0.00    -0.160 F 
ATOM     18  F   UNL     1      14.650   4.047  12.405  0.00  0.00    -0.160 F 
ENDBRANCH  14  15
ENDBRANCH  12  14
ENDBRANCH   5   8
BRANCH   1  20
ATOM     19  N   UNL     1       9.524  11.284   6.660  0.00  0.00    -0.329 N 
ATOM     20  C   UNL     1      10.245  10.749   5.634  0.00  0.00    +0.215 C 
ATOM     21  O   UNL     1      10.982  11.458   4.965  0.00  0.00    -0.276 OA
ATOM     22  H   UNL     1       9.613  12.280   6.823  0.00  0.00    +0.145 HD
ATOM     23  H   UNL     1       8.849  10.762   7.199  0.00  0.00    +0.145 HD
ENDBRANCH   1  20
TORSDOF 4
ENDMDL
