MODEL 1
REMARK VINA RESULT:      -7.1      0.000      0.000
REMARK  Name = ZINC000543478179
REMARK  8 active torsions:
REMARK  status: ('A' for Active; 'I' for Inactive)
REMARK    1  A    between atoms: C_1  and  C_2
REMARK    2  A    between atoms: C_2  and  N_3
REMARK    3  A    between atoms: N_9  and  C_10
REMARK    4  A    between atoms: C_10  and  C_11
REMARK    5  A    between atoms: C_10  and  C_12
REMARK    6  A    between atoms: C_15  and  O_16
REMARK    7  A    between atoms: O_16  and  C_17
REMARK    8  A    between atoms: C_17  and  C_18
REMARK                            x       y       z     vdW  Elec       q    Type
REMARK                         _______ _______ _______ _____ _____    ______ ____
ROOT
ATOM      1  C   UNL     1      30.615  23.687  13.238  0.00  0.00    +0.102 C 
ATOM      2  C   UNL     1      29.849  24.955  12.850  0.00  0.00    +0.033 C 
ENDROOT
BRANCH   1   9
ATOM      3  N   UNL     1      34.225  22.575   9.325  0.00  0.00    -0.299 N 
ATOM      4  C   UNL     1      35.171  22.758  10.425  0.00  0.00    +0.127 C 
ATOM      5  C   UNL     1      34.802  23.961  11.299  0.00  0.00    +0.129 C 
ATOM      6  N   UNL     1      33.439  23.814  11.820  0.00  0.00    -0.275 N 
ATOM      7  C   UNL     1      33.198  24.076  13.138  0.00  0.00    +0.303 C 
ATOM      8  O   UNL     1      34.106  24.413  13.905  0.00  0.00    -0.253 OA
ATOM      9  N   UNL     1      31.972  23.972  13.695  0.00  0.00    -0.293 N 
ATOM     10  C   UNL     1      32.453  23.409  10.830  0.00  0.00    +0.205 C 
ATOM     11  C   UNL     1      32.911  22.982   9.436  0.00  0.00    +0.233 C 
ATOM     12  O   UNL     1      32.093  22.893   8.516  0.00  0.00    -0.274 OA
ATOM     13  H   UNL     1      32.049  24.193  14.681  0.00  0.00    +0.151 HD
BRANCH   3  15
ATOM     14  C   UNL     1      34.655  20.417   8.256  0.00  0.00    +0.024 C 
ATOM     15  C   UNL     1      34.662  21.927   8.103  0.00  0.00    +0.104 C 
ENDBRANCH   3  15
ENDBRANCH   1   9
BRANCH   1  16
ATOM     16  C   UNL     1      29.875  22.871  14.283  0.00  0.00    -0.024 A 
ATOM     17  C   UNL     1      29.204  21.688  13.950  0.00  0.00    +0.009 A 
ATOM     18  C   UNL     1      28.513  20.960  14.920  0.00  0.00    +0.049 A 
ATOM     19  C   UNL     1      28.443  21.425  16.241  0.00  0.00    +0.156 A 
ATOM     20  C   UNL     1      29.142  22.580  16.579  0.00  0.00    +0.165 A 
ATOM     21  F   UNL     1      29.134  23.035  17.842  0.00  0.00    -0.202 F 
ATOM     22  C   UNL     1      29.841  23.307  15.617  0.00  0.00    +0.047 A 
BRANCH  19  23
ATOM     23  O   UNL     1      27.723  20.821  17.234  0.00  0.00    -0.489 OA
BRANCH  23  24
ATOM     24  C   UNL     1      26.311  20.792  17.023  0.00  0.00    +0.232 C 
BRANCH  24  25
ATOM     25  C   UNL     1      25.779  22.190  17.041  0.00  0.00    +0.027 C 
ATOM     26  C   UNL     1      25.790  22.965  18.335  0.00  0.00    +0.007 C 
ATOM     27  C   UNL     1      24.484  22.501  17.750  0.00  0.00    +0.007 C 
ENDBRANCH  24  25
ENDBRANCH  23  24
ENDBRANCH  19  23
ENDBRANCH   1  16
TORSDOF 6
ENDMDL
MODEL 2
REMARK VINA RESULT:      -7.0      3.317      8.618
REMARK  Name = ZINC000543478179
REMARK  8 active torsions:
REMARK  status: ('A' for Active; 'I' for Inactive)
REMARK    1  A    between atoms: C_1  and  C_2
REMARK    2  A    between atoms: C_2  and  N_3
REMARK    3  A    between atoms: N_9  and  C_10
REMARK    4  A    between atoms: C_10  and  C_11
REMARK    5  A    between atoms: C_10  and  C_12
REMARK    6  A    between atoms: C_15  and  O_16
REMARK    7  A    between atoms: O_16  and  C_17
REMARK    8  A    between atoms: C_17  and  C_18
REMARK                            x       y       z     vdW  Elec       q    Type
REMARK                         _______ _______ _______ _____ _____    ______ ____
ROOT
ATOM      1  C   UNL     1      30.607  24.497  12.682  0.00  0.00    +0.102 C 
ATOM      2  C   UNL     1      29.660  25.573  12.144  0.00  0.00    +0.033 C 
ENDROOT
BRANCH   1   9
ATOM      3  N   UNL     1      31.452  23.043  17.855  0.00  0.00    -0.299 N 
ATOM      4  C   UNL     1      30.849  21.794  17.391  0.00  0.00    +0.127 C 
ATOM      5  C   UNL     1      29.643  22.048  16.483  0.00  0.00    +0.129 C 
ATOM      6  N   UNL     1      30.030  22.880  15.339  0.00  0.00    -0.275 N 
ATOM      7  C   UNL     1      29.610  22.531  14.088  0.00  0.00    +0.303 C 
ATOM      8  O   UNL     1      28.928  21.518  13.896  0.00  0.00    -0.253 OA
ATOM      9  N   UNL     1      29.917  23.246  12.984  0.00  0.00    -0.293 N 
ATOM     10  C   UNL     1      30.836  24.042  15.682  0.00  0.00    +0.205 C 
ATOM     11  C   UNL     1      31.373  24.199  17.104  0.00  0.00    +0.233 C 
ATOM     12  O   UNL     1      31.823  25.284  17.480  0.00  0.00    -0.274 OA
ATOM     13  H   UNL     1      29.515  22.780  12.179  0.00  0.00    +0.151 HD
BRANCH   3  15
ATOM     14  C   UNL     1      33.327  22.080  19.097  0.00  0.00    +0.024 C 
ATOM     15  C   UNL     1      32.175  23.067  19.113  0.00  0.00    +0.104 C 
ENDBRANCH   3  15
ENDBRANCH   1   9
BRANCH   1  16
ATOM     16  C   UNL     1      31.769  24.236  11.741  0.00  0.00    -0.024 A 
ATOM     17  C   UNL     1      33.096  24.445  12.136  0.00  0.00    +0.009 A 
ATOM     18  C   UNL     1      34.150  24.220  11.250  0.00  0.00    +0.049 A 
ATOM     19  C   UNL     1      33.897  23.817   9.932  0.00  0.00    +0.156 A 
ATOM     20  C   UNL     1      32.580  23.572   9.551  0.00  0.00    +0.165 A 
ATOM     21  F   UNL     1      32.299  23.146   8.309  0.00  0.00    -0.202 F 
ATOM     22  C   UNL     1      31.522  23.788  10.432  0.00  0.00    +0.047 A 
BRANCH  19  23
ATOM     23  O   UNL     1      34.861  23.652   8.977  0.00  0.00    -0.489 OA
BRANCH  23  24
ATOM     24  C   UNL     1      35.572  22.416   9.047  0.00  0.00    +0.232 C 
BRANCH  24  25
ATOM     25  C   UNL     1      35.125  21.522   7.934  0.00  0.00    +0.027 C 
ATOM     26  C   UNL     1      34.125  20.431   8.222  0.00  0.00    +0.007 C 
ATOM     27  C   UNL     1      35.551  20.076   7.902  0.00  0.00    +0.007 C 
ENDBRANCH  24  25
ENDBRANCH  23  24
ENDBRANCH  19  23
ENDBRANCH   1  16
TORSDOF 6
ENDMDL
MODEL 3
REMARK VINA RESULT:      -6.6      1.583      2.047
REMARK  Name = ZINC000543478179
REMARK  8 active torsions:
REMARK  status: ('A' for Active; 'I' for Inactive)
REMARK    1  A    between atoms: C_1  and  C_2
REMARK    2  A    between atoms: C_2  and  N_3
REMARK    3  A    between atoms: N_9  and  C_10
REMARK    4  A    between atoms: C_10  and  C_11
REMARK    5  A    between atoms: C_10  and  C_12
REMARK    6  A    between atoms: C_15  and  O_16
REMARK    7  A    between atoms: O_16  and  C_17
REMARK    8  A    between atoms: C_17  and  C_18
REMARK                            x       y       z     vdW  Elec       q    Type
REMARK                         _______ _______ _______ _____ _____    ______ ____
ROOT
ATOM      1  C   UNL     1      31.338  23.673  12.512  0.00  0.00    +0.102 C 
ATOM      2  C   UNL     1      30.676  24.770  11.674  0.00  0.00    +0.033 C 
ENDROOT
BRANCH   1   9
ATOM      3  N   UNL     1      34.798  20.505   9.760  0.00  0.00    -0.299 N 
ATOM      4  C   UNL     1      35.756  21.077  10.704  0.00  0.00    +0.127 C 
ATOM      5  C   UNL     1      35.531  22.578  10.904  0.00  0.00    +0.129 C 
ATOM      6  N   UNL     1      34.160  22.833  11.356  0.00  0.00    -0.275 N 
ATOM      7  C   UNL     1      33.950  23.700  12.390  0.00  0.00    +0.303 C 
ATOM      8  O   UNL     1      34.890  24.257  12.966  0.00  0.00    -0.253 OA
ATOM      9  N   UNL     1      32.719  23.994  12.863  0.00  0.00    -0.293 N 
ATOM     10  C   UNL     1      33.134  22.120  10.610  0.00  0.00    +0.205 C 
ATOM     11  C   UNL     1      33.541  21.051   9.596  0.00  0.00    +0.233 C 
ATOM     12  O   UNL     1      32.720  20.631   8.776  0.00  0.00    -0.274 OA
ATOM     13  H   UNL     1      32.820  24.637  13.639  0.00  0.00    +0.151 HD
BRANCH   3  15
ATOM     14  C   UNL     1      35.537  18.178   9.921  0.00  0.00    +0.024 C 
ATOM     15  C   UNL     1      35.157  19.322   9.000  0.00  0.00    +0.104 C 
ENDBRANCH   3  15
ENDBRANCH   1   9
BRANCH   1  16
ATOM     16  C   UNL     1      30.544  23.356  13.766  0.00  0.00    -0.024 A 
ATOM     17  C   UNL     1      30.672  24.122  14.931  0.00  0.00    +0.009 A 
ATOM     18  C   UNL     1      29.948  23.803  16.081  0.00  0.00    +0.049 A 
ATOM     19  C   UNL     1      29.109  22.681  16.104  0.00  0.00    +0.156 A 
ATOM     20  C   UNL     1      28.953  21.941  14.934  0.00  0.00    +0.165 A 
ATOM     21  F   UNL     1      28.127  20.884  14.903  0.00  0.00    -0.202 F 
ATOM     22  C   UNL     1      29.666  22.259  13.780  0.00  0.00    +0.047 A 
BRANCH  19  23
ATOM     23  O   UNL     1      28.428  22.249  17.207  0.00  0.00    -0.489 OA
BRANCH  23  24
ATOM     24  C   UNL     1      27.370  23.106  17.636  0.00  0.00    +0.232 C 
BRANCH  24  25
ATOM     25  C   UNL     1      26.181  22.279  18.007  0.00  0.00    +0.027 C 
ATOM     26  C   UNL     1      25.727  21.183  17.076  0.00  0.00    +0.007 C 
ATOM     27  C   UNL     1      24.888  22.420  17.242  0.00  0.00    +0.007 C 
ENDBRANCH  24  25
ENDBRANCH  23  24
ENDBRANCH  19  23
ENDBRANCH   1  16
TORSDOF 6
ENDMDL
MODEL 4
REMARK VINA RESULT:      -6.5      5.268      8.048
REMARK  Name = ZINC000543478179
REMARK  8 active torsions:
REMARK  status: ('A' for Active; 'I' for Inactive)
REMARK    1  A    between atoms: C_1  and  C_2
REMARK    2  A    between atoms: C_2  and  N_3
REMARK    3  A    between atoms: N_9  and  C_10
REMARK    4  A    between atoms: C_10  and  C_11
REMARK    5  A    between atoms: C_10  and  C_12
REMARK    6  A    between atoms: C_15  and  O_16
REMARK    7  A    between atoms: O_16  and  C_17
REMARK    8  A    between atoms: C_17  and  C_18
REMARK                            x       y       z     vdW  Elec       q    Type
REMARK                         _______ _______ _______ _____ _____    ______ ____
ROOT
ATOM      1  C   UNL     1      31.683  24.759  18.479  0.00  0.00    +0.102 C 
ATOM      2  C   UNL     1      31.770  26.250  18.814  0.00  0.00    +0.033 C 
ENDROOT
BRANCH   1   9
ATOM      3  N   UNL     1      27.943  21.422  16.365  0.00  0.00    -0.299 N 
ATOM      4  C   UNL     1      28.908  21.364  15.268  0.00  0.00    +0.127 C 
ATOM      5  C   UNL     1      29.485  22.745  14.945  0.00  0.00    +0.129 C 
ATOM      6  N   UNL     1      30.108  23.330  16.137  0.00  0.00    -0.275 N 
ATOM      7  C   UNL     1      31.336  23.916  16.028  0.00  0.00    +0.303 C 
ATOM      8  O   UNL     1      31.943  23.947  14.952  0.00  0.00    -0.253 OA
ATOM      9  N   UNL     1      31.975  24.483  17.075  0.00  0.00    -0.293 N 
ATOM     10  C   UNL     1      29.307  23.232  17.347  0.00  0.00    +0.205 C 
ATOM     11  C   UNL     1      28.031  22.390  17.346  0.00  0.00    +0.233 C 
ATOM     12  O   UNL     1      27.212  22.505  18.260  0.00  0.00    -0.274 OA
ATOM     13  H   UNL     1      32.871  24.828  16.753  0.00  0.00    +0.151 HD
BRANCH   3  15
ATOM     14  C   UNL     1      27.462  19.051  16.731  0.00  0.00    +0.024 C 
ATOM     15  C   UNL     1      26.890  20.428  16.448  0.00  0.00    +0.104 C 
ENDBRANCH   3  15
ENDBRANCH   1   9
BRANCH   1  16
ATOM     16  C   UNL     1      32.580  23.919  19.371  0.00  0.00    -0.024 A 
ATOM     17  C   UNL     1      32.999  22.638  18.994  0.00  0.00    +0.009 A 
ATOM     18  C   UNL     1      33.807  21.873  19.836  0.00  0.00    +0.049 A 
ATOM     19  C   UNL     1      34.181  22.359  21.096  0.00  0.00    +0.156 A 
ATOM     20  C   UNL     1      33.796  23.648  21.454  0.00  0.00    +0.165 A 
ATOM     21  F   UNL     1      34.168  24.166  22.636  0.00  0.00    -0.202 F 
ATOM     22  C   UNL     1      32.996  24.421  20.615  0.00  0.00    +0.047 A 
BRANCH  19  23
ATOM     23  O   UNL     1      34.901  21.647  22.015  0.00  0.00    -0.489 OA
BRANCH  23  24
ATOM     24  C   UNL     1      34.118  20.891  22.939  0.00  0.00    +0.232 C 
BRANCH  24  25
ATOM     25  C   UNL     1      34.477  19.444  22.826  0.00  0.00    +0.027 C 
ATOM     26  C   UNL     1      35.244  18.968  21.618  0.00  0.00    +0.007 C 
ATOM     27  C   UNL     1      33.804  18.571  21.796  0.00  0.00    +0.007 C 
ENDBRANCH  24  25
ENDBRANCH  23  24
ENDBRANCH  19  23
ENDBRANCH   1  16
TORSDOF 6
ENDMDL
MODEL 5
REMARK VINA RESULT:      -6.5      2.780      3.065
REMARK  Name = ZINC000543478179
REMARK  8 active torsions:
REMARK  status: ('A' for Active; 'I' for Inactive)
REMARK    1  A    between atoms: C_1  and  C_2
REMARK    2  A    between atoms: C_2  and  N_3
REMARK    3  A    between atoms: N_9  and  C_10
REMARK    4  A    between atoms: C_10  and  C_11
REMARK    5  A    between atoms: C_10  and  C_12
REMARK    6  A    between atoms: C_15  and  O_16
REMARK    7  A    between atoms: O_16  and  C_17
REMARK    8  A    between atoms: C_17  and  C_18
REMARK                            x       y       z     vdW  Elec       q    Type
REMARK                         _______ _______ _______ _____ _____    ______ ____
ROOT
ATOM      1  C   UNL     1      30.682  23.283  13.329  0.00  0.00    +0.102 C 
ATOM      2  C   UNL     1      29.869  24.313  12.542  0.00  0.00    +0.033 C 
ENDROOT
BRANCH   1   9
ATOM      3  N   UNL     1      34.560  19.501  13.826  0.00  0.00    -0.299 N 
ATOM      4  C   UNL     1      35.192  20.544  14.632  0.00  0.00    +0.127 C 
ATOM      5  C   UNL     1      35.052  21.925  13.986  0.00  0.00    +0.129 C 
ATOM      6  N   UNL     1      33.639  22.243  13.762  0.00  0.00    -0.275 N 
ATOM      7  C   UNL     1      33.172  23.481  14.102  0.00  0.00    +0.303 C 
ATOM      8  O   UNL     1      33.910  24.330  14.613  0.00  0.00    -0.253 OA
ATOM      9  N   UNL     1      31.887  23.856  13.922  0.00  0.00    -0.293 N 
ATOM     10  C   UNL     1      32.864  21.168  13.161  0.00  0.00    +0.205 C 
ATOM     11  C   UNL     1      33.488  19.782  13.003  0.00  0.00    +0.233 C 
ATOM     12  O   UNL     1      32.958  18.945  12.269  0.00  0.00    -0.274 OA
ATOM     13  H   UNL     1      31.779  24.802  14.268  0.00  0.00    +0.151 HD
BRANCH   3  15
ATOM     14  C   UNL     1      35.157  17.688  15.357  0.00  0.00    +0.024 C 
ATOM     15  C   UNL     1      35.044  18.135  13.911  0.00  0.00    +0.104 C 
ENDBRANCH   3  15
ENDBRANCH   1   9
BRANCH   1  16
ATOM     16  C   UNL     1      29.852  22.596  14.398  0.00  0.00    -0.024 A 
ATOM     17  C   UNL     1      29.084  21.460  14.116  0.00  0.00    +0.009 A 
ATOM     18  C   UNL     1      28.311  20.854  15.107  0.00  0.00    +0.049 A 
ATOM     19  C   UNL     1      28.258  21.398  16.398  0.00  0.00    +0.156 A 
ATOM     20  C   UNL     1      29.051  22.505  16.688  0.00  0.00    +0.165 A 
ATOM     21  F   UNL     1      29.059  23.031  17.923  0.00  0.00    -0.202 F 
ATOM     22  C   UNL     1      29.832  23.110  15.705  0.00  0.00    +0.047 A 
BRANCH  19  23
ATOM     23  O   UNL     1      27.467  20.919  17.405  0.00  0.00    -0.489 OA
BRANCH  23  24
ATOM     24  C   UNL     1      26.069  20.897  17.115  0.00  0.00    +0.232 C 
BRANCH  24  25
ATOM     25  C   UNL     1      25.532  22.292  17.155  0.00  0.00    +0.027 C 
ATOM     26  C   UNL     1      25.638  23.086  18.432  0.00  0.00    +0.007 C 
ATOM     27  C   UNL     1      24.294  22.609  17.955  0.00  0.00    +0.007 C 
ENDBRANCH  24  25
ENDBRANCH  23  24
ENDBRANCH  19  23
ENDBRANCH   1  16
TORSDOF 6
ENDMDL
MODEL 6
REMARK VINA RESULT:      -6.4      5.730      7.849
REMARK  Name = ZINC000543478179
REMARK  8 active torsions:
REMARK  status: ('A' for Active; 'I' for Inactive)
REMARK    1  A    between atoms: C_1  and  C_2
REMARK    2  A    between atoms: C_2  and  N_3
REMARK    3  A    between atoms: N_9  and  C_10
REMARK    4  A    between atoms: C_10  and  C_11
REMARK    5  A    between atoms: C_10  and  C_12
REMARK    6  A    between atoms: C_15  and  O_16
REMARK    7  A    between atoms: O_16  and  C_17
REMARK    8  A    between atoms: C_17  and  C_18
REMARK                            x       y       z     vdW  Elec       q    Type
REMARK                         _______ _______ _______ _____ _____    ______ ____
ROOT
ATOM      1  C   UNL     1      33.640  24.183  18.543  0.00  0.00    +0.102 C 
ATOM      2  C   UNL     1      34.219  25.479  17.971  0.00  0.00    +0.033 C 
ENDROOT
BRANCH   1   9
ATOM      3  N   UNL     1      34.969  19.449  20.869  0.00  0.00    -0.299 N 
ATOM      4  C   UNL     1      34.322  20.067  22.025  0.00  0.00    +0.127 C 
ATOM      5  C   UNL     1      34.716  21.539  22.179  0.00  0.00    +0.129 C 
ATOM      6  N   UNL     1      34.393  22.284  20.958  0.00  0.00    -0.275 N 
ATOM      7  C   UNL     1      33.772  23.496  21.062  0.00  0.00    +0.303 C 
ATOM      8  O   UNL     1      33.458  23.968  22.160  0.00  0.00    -0.253 OA
ATOM      9  N   UNL     1      33.445  24.248  19.989  0.00  0.00    -0.293 N 
ATOM     10  C   UNL     1      34.802  21.631  19.724  0.00  0.00    +0.205 C 
ATOM     11  C   UNL     1      35.327  20.196  19.764  0.00  0.00    +0.233 C 
ATOM     12  O   UNL     1      35.918  19.726  18.789  0.00  0.00    -0.274 OA
ATOM     13  H   UNL     1      32.977  25.085  20.316  0.00  0.00    +0.151 HD
BRANCH   3  15
ATOM     14  C   UNL     1      36.430  17.673  21.704  0.00  0.00    +0.024 C 
ATOM     15  C   UNL     1      35.216  18.019  20.862  0.00  0.00    +0.104 C 
ENDBRANCH   3  15
ENDBRANCH   1   9
BRANCH   1  16
ATOM     16  C   UNL     1      32.343  23.787  17.861  0.00  0.00    -0.024 A 
ATOM     17  C   UNL     1      31.563  22.721  18.326  0.00  0.00    +0.009 A 
ATOM     18  C   UNL     1      30.384  22.359  17.674  0.00  0.00    +0.049 A 
ATOM     19  C   UNL     1      29.978  23.031  16.513  0.00  0.00    +0.156 A 
ATOM     20  C   UNL     1      30.733  24.116  16.073  0.00  0.00    +0.165 A 
ATOM     21  F   UNL     1      30.355  24.812  14.989  0.00  0.00    -0.202 F 
ATOM     22  C   UNL     1      31.908  24.489  16.724  0.00  0.00    +0.047 A 
BRANCH  19  23
ATOM     23  O   UNL     1      28.884  22.692  15.767  0.00  0.00    -0.489 OA
BRANCH  23  24
ATOM     24  C   UNL     1      28.894  21.360  15.255  0.00  0.00    +0.232 C 
BRANCH  24  25
ATOM     25  C   UNL     1      27.659  20.646  15.705  0.00  0.00    +0.027 C 
ATOM     26  C   UNL     1      27.023  21.031  17.017  0.00  0.00    +0.007 C 
ATOM     27  C   UNL     1      27.711  19.701  16.879  0.00  0.00    +0.007 C 
ENDBRANCH  24  25
ENDBRANCH  23  24
ENDBRANCH  19  23
ENDBRANCH   1  16
TORSDOF 6
ENDMDL
MODEL 7
REMARK VINA RESULT:      -6.3      2.745      3.370
REMARK  Name = ZINC000543478179
REMARK  8 active torsions:
REMARK  status: ('A' for Active; 'I' for Inactive)
REMARK    1  A    between atoms: C_1  and  C_2
REMARK    2  A    between atoms: C_2  and  N_3
REMARK    3  A    between atoms: N_9  and  C_10
REMARK    4  A    between atoms: C_10  and  C_11
REMARK    5  A    between atoms: C_10  and  C_12
REMARK    6  A    between atoms: C_15  and  O_16
REMARK    7  A    between atoms: O_16  and  C_17
REMARK    8  A    between atoms: C_17  and  C_18
REMARK                            x       y       z     vdW  Elec       q    Type
REMARK                         _______ _______ _______ _____ _____    ______ ____
ROOT
ATOM      1  C   UNL     1      31.066  24.508  11.980  0.00  0.00    +0.102 C 
ATOM      2  C   UNL     1      29.783  25.336  11.870  0.00  0.00    +0.033 C 
ENDROOT
BRANCH   1   9
ATOM      3  N   UNL     1      34.571  21.572   9.034  0.00  0.00    -0.299 N 
ATOM      4  C   UNL     1      35.461  22.687   9.354  0.00  0.00    +0.127 C 
ATOM      5  C   UNL     1      34.750  24.037   9.228  0.00  0.00    +0.129 C 
ATOM      6  N   UNL     1      33.564  24.072  10.089  0.00  0.00    -0.275 N 
ATOM      7  C   UNL     1      33.334  25.174  10.862  0.00  0.00    +0.303 C 
ATOM      8  O   UNL     1      34.113  26.133  10.866  0.00  0.00    -0.253 OA
ATOM      9  N   UNL     1      32.262  25.289  11.676  0.00  0.00    -0.293 N 
ATOM     10  C   UNL     1      32.722  22.888  10.007  0.00  0.00    +0.205 C 
ATOM     11  C   UNL     1      33.208  21.665   9.230  0.00  0.00    +0.233 C 
ATOM     12  O   UNL     1      32.416  20.769   8.928  0.00  0.00    -0.274 OA
ATOM     13  H   UNL     1      32.321  26.177  12.158  0.00  0.00    +0.151 HD
BRANCH   3  15
ATOM     14  C   UNL     1      35.352  20.404   7.030  0.00  0.00    +0.024 C 
ATOM     15  C   UNL     1      35.128  20.331   8.529  0.00  0.00    +0.104 C 
ENDBRANCH   3  15
ENDBRANCH   1   9
BRANCH   1  16
ATOM     16  C   UNL     1      31.205  23.849  13.340  0.00  0.00    -0.024 A 
ATOM     17  C   UNL     1      32.389  23.211  13.729  0.00  0.00    +0.009 A 
ATOM     18  C   UNL     1      32.492  22.593  14.976  0.00  0.00    +0.049 A 
ATOM     19  C   UNL     1      31.395  22.564  15.847  0.00  0.00    +0.156 A 
ATOM     20  C   UNL     1      30.231  23.232  15.476  0.00  0.00    +0.165 A 
ATOM     21  F   UNL     1      29.172  23.263  16.301  0.00  0.00    -0.202 F 
ATOM     22  C   UNL     1      30.123  23.858  14.236  0.00  0.00    +0.047 A 
BRANCH  19  23
ATOM     23  O   UNL     1      31.382  21.914  17.050  0.00  0.00    -0.489 OA
BRANCH  23  24
ATOM     24  C   UNL     1      32.238  22.473  18.047  0.00  0.00    +0.232 C 
BRANCH  24  25
ATOM     25  C   UNL     1      31.440  23.371  18.938  0.00  0.00    +0.027 C 
ATOM     26  C   UNL     1      31.426  24.854  18.667  0.00  0.00    +0.007 C 
ATOM     27  C   UNL     1      32.136  24.320  19.881  0.00  0.00    +0.007 C 
ENDBRANCH  24  25
ENDBRANCH  23  24
ENDBRANCH  19  23
ENDBRANCH   1  16
TORSDOF 6
ENDMDL
MODEL 8
REMARK VINA RESULT:      -6.3      3.157      4.762
REMARK  Name = ZINC000543478179
REMARK  8 active torsions:
REMARK  status: ('A' for Active; 'I' for Inactive)
REMARK    1  A    between atoms: C_1  and  C_2
REMARK    2  A    between atoms: C_2  and  N_3
REMARK    3  A    between atoms: N_9  and  C_10
REMARK    4  A    between atoms: C_10  and  C_11
REMARK    5  A    between atoms: C_10  and  C_12
REMARK    6  A    between atoms: C_15  and  O_16
REMARK    7  A    between atoms: O_16  and  C_17
REMARK    8  A    between atoms: C_17  and  C_18
REMARK                            x       y       z     vdW  Elec       q    Type
REMARK                         _______ _______ _______ _____ _____    ______ ____
ROOT
ATOM      1  C   UNL     1      29.793  22.028  14.417  0.00  0.00    +0.102 C 
ATOM      2  C   UNL     1      28.654  21.005  14.437  0.00  0.00    +0.033 C 
ENDROOT
BRANCH   1   9
ATOM      3  N   UNL     1      34.025  24.086  11.688  0.00  0.00    -0.299 N 
ATOM      4  C   UNL     1      33.138  25.244  11.588  0.00  0.00    +0.127 C 
ATOM      5  C   UNL     1      31.697  24.832  11.273  0.00  0.00    +0.129 C 
ATOM      6  N   UNL     1      31.200  23.899  12.288  0.00  0.00    -0.275 N 
ATOM      7  C   UNL     1      29.952  24.086  12.812  0.00  0.00    +0.303 C 
ATOM      8  O   UNL     1      29.243  25.036  12.464  0.00  0.00    -0.253 OA
ATOM      9  N   UNL     1      29.417  23.269  13.745  0.00  0.00    -0.293 N 
ATOM     10  C   UNL     1      32.120  22.823  12.625  0.00  0.00    +0.205 C 
ATOM     11  C   UNL     1      33.549  22.851  12.082  0.00  0.00    +0.233 C 
ATOM     12  O   UNL     1      34.250  21.838  12.133  0.00  0.00    -0.274 OA
ATOM     13  H   UNL     1      28.501  23.623  13.991  0.00  0.00    +0.151 HD
BRANCH   3  15
ATOM     14  C   UNL     1      35.685  24.295   9.903  0.00  0.00    +0.024 C 
ATOM     15  C   UNL     1      35.439  24.237  11.400  0.00  0.00    +0.104 C 
ENDBRANCH   3  15
ENDBRANCH   1   9
BRANCH   1  16
ATOM     16  C   UNL     1      30.316  22.328  15.810  0.00  0.00    -0.024 A 
ATOM     17  C   UNL     1      29.580  23.093  16.722  0.00  0.00    +0.009 A 
ATOM     18  C   UNL     1      30.086  23.375  17.992  0.00  0.00    +0.049 A 
ATOM     19  C   UNL     1      31.363  22.932  18.362  0.00  0.00    +0.156 A 
ATOM     20  C   UNL     1      32.078  22.139  17.469  0.00  0.00    +0.165 A 
ATOM     21  F   UNL     1      33.287  21.660  17.802  0.00  0.00    -0.202 F 
ATOM     22  C   UNL     1      31.576  21.846  16.203  0.00  0.00    +0.047 A 
BRANCH  19  23
ATOM     23  O   UNL     1      31.968  23.230  19.551  0.00  0.00    -0.489 OA
BRANCH  23  24
ATOM     24  C   UNL     1      32.286  24.609  19.736  0.00  0.00    +0.232 C 
BRANCH  24  25
ATOM     25  C   UNL     1      33.679  24.866  19.256  0.00  0.00    +0.027 C 
ATOM     26  C   UNL     1      34.158  26.289  19.113  0.00  0.00    +0.007 C 
ATOM     27  C   UNL     1      33.915  25.453  17.887  0.00  0.00    +0.007 C 
ENDBRANCH  24  25
ENDBRANCH  23  24
ENDBRANCH  19  23
ENDBRANCH   1  16
TORSDOF 6
ENDMDL
MODEL 9
REMARK VINA RESULT:      -6.2      3.575      5.029
REMARK  Name = ZINC000543478179
REMARK  8 active torsions:
REMARK  status: ('A' for Active; 'I' for Inactive)
REMARK    1  A    between atoms: C_1  and  C_2
REMARK    2  A    between atoms: C_2  and  N_3
REMARK    3  A    between atoms: N_9  and  C_10
REMARK    4  A    between atoms: C_10  and  C_11
REMARK    5  A    between atoms: C_10  and  C_12
REMARK    6  A    between atoms: C_15  and  O_16
REMARK    7  A    between atoms: O_16  and  C_17
REMARK    8  A    between atoms: C_17  and  C_18
REMARK                            x       y       z     vdW  Elec       q    Type
REMARK                         _______ _______ _______ _____ _____    ______ ____
ROOT
ATOM      1  C   UNL     1      29.916  22.698  14.697  0.00  0.00    +0.102 C 
ATOM      2  C   UNL     1      28.845  21.622  14.893  0.00  0.00    +0.033 C 
ENDROOT
BRANCH   1   9
ATOM      3  N   UNL     1      33.822  24.115  11.186  0.00  0.00    -0.299 N 
ATOM      4  C   UNL     1      32.921  25.242  10.951  0.00  0.00    +0.127 C 
ATOM      5  C   UNL     1      31.458  24.796  10.877  0.00  0.00    +0.129 C 
ATOM      6  N   UNL     1      31.077  24.090  12.104  0.00  0.00    -0.275 N 
ATOM      7  C   UNL     1      29.890  24.394  12.707  0.00  0.00    +0.303 C 
ATOM      8  O   UNL     1      29.142  25.266  12.254  0.00  0.00    -0.253 OA
ATOM      9  N   UNL     1      29.463  23.786  13.835  0.00  0.00    -0.293 N 
ATOM     10  C   UNL     1      32.036  23.089  12.549  0.00  0.00    +0.205 C 
ATOM     11  C   UNL     1      33.399  22.990  11.865  0.00  0.00    +0.233 C 
ATOM     12  O   UNL     1      34.109  21.997  12.043  0.00  0.00    -0.274 OA
ATOM     13  H   UNL     1      28.574  24.194  14.100  0.00  0.00    +0.151 HD
BRANCH   3  15
ATOM     14  C   UNL     1      35.274  24.047   9.218  0.00  0.00    +0.024 C 
ATOM     15  C   UNL     1      35.196  24.186  10.727  0.00  0.00    +0.104 C 
ENDBRANCH   3  15
ENDBRANCH   1   9
BRANCH   1  16
ATOM     16  C   UNL     1      30.416  23.254  16.017  0.00  0.00    -0.024 A 
ATOM     17  C   UNL     1      29.819  22.907  17.235  0.00  0.00    +0.009 A 
ATOM     18  C   UNL     1      30.279  23.445  18.437  0.00  0.00    +0.049 A 
ATOM     19  C   UNL     1      31.326  24.376  18.444  0.00  0.00    +0.156 A 
ATOM     20  C   UNL     1      31.946  24.692  17.237  0.00  0.00    +0.165 A 
ATOM     21  F   UNL     1      32.979  25.548  17.207  0.00  0.00    -0.202 F 
ATOM     22  C   UNL     1      31.496  24.153  16.033  0.00  0.00    +0.047 A 
BRANCH  19  23
ATOM     23  O   UNL     1      31.787  25.012  19.563  0.00  0.00    -0.489 OA
BRANCH  23  24
ATOM     24  C   UNL     1      32.838  24.334  20.252  0.00  0.00    +0.232 C 
BRANCH  24  25
ATOM     25  C   UNL     1      33.800  25.339  20.801  0.00  0.00    +0.027 C 
ATOM     26  C   UNL     1      34.024  26.629  20.052  0.00  0.00    +0.007 C 
ATOM     27  C   UNL     1      35.114  25.593  20.105  0.00  0.00    +0.007 C 
ENDBRANCH  24  25
ENDBRANCH  23  24
ENDBRANCH  19  23
ENDBRANCH   1  16
TORSDOF 6
ENDMDL
