MODEL 1
REMARK VINA RESULT:      -6.3      0.000      0.000
REMARK  Name = ZINC000543478179
REMARK  8 active torsions:
REMARK  status: ('A' for Active; 'I' for Inactive)
REMARK    1  A    between atoms: C_1  and  C_2
REMARK    2  A    between atoms: C_2  and  N_3
REMARK    3  A    between atoms: N_9  and  C_10
REMARK    4  A    between atoms: C_10  and  C_11
REMARK    5  A    between atoms: C_10  and  C_12
REMARK    6  A    between atoms: C_15  and  O_16
REMARK    7  A    between atoms: O_16  and  C_17
REMARK    8  A    between atoms: C_17  and  C_18
REMARK                            x       y       z     vdW  Elec       q    Type
REMARK                         _______ _______ _______ _____ _____    ______ ____
ROOT
ATOM      1  C   UNL     1      27.705  23.480  19.058  0.00  0.00    +0.102 C 
ATOM      2  C   UNL     1      26.426  23.288  19.886  0.00  0.00    +0.033 C 
ENDROOT
BRANCH   1   9
ATOM      3  N   UNL     1      32.959  24.689  22.493  0.00  0.00    -0.299 N 
ATOM      4  C   UNL     1      32.680  25.689  21.461  0.00  0.00    +0.127 C 
ATOM      5  C   UNL     1      32.296  25.042  20.127  0.00  0.00    +0.129 C 
ATOM      6  N   UNL     1      31.123  24.195  20.322  0.00  0.00    -0.275 N 
ATOM      7  C   UNL     1      30.009  24.353  19.510  0.00  0.00    +0.303 C 
ATOM      8  O   UNL     1      29.964  25.154  18.585  0.00  0.00    -0.253 OA
ATOM      9  N   UNL     1      28.938  23.561  19.846  0.00  0.00    -0.293 N 
ATOM     10  C   UNL     1      31.235  23.234  21.421  0.00  0.00    +0.205 C 
ATOM     11  C   UNL     1      32.377  23.426  22.437  0.00  0.00    +0.233 C 
ATOM     12  O   UNL     1      32.647  22.536  23.244  0.00  0.00    -0.274 OA
ATOM     13  H   UNL     1      29.188  22.691  20.284  0.00  0.00    +0.151 HD
BRANCH   3  15
ATOM     14  C   UNL     1      35.075  25.054  23.714  0.00  0.00    +0.024 C 
ATOM     15  C   UNL     1      33.554  25.125  23.755  0.00  0.00    +0.104 C 
ENDBRANCH   3  15
ENDBRANCH   1   9
BRANCH   1  16
ATOM     16  C   UNL     1      27.860  22.324  18.077  0.00  0.00    -0.024 A 
ATOM     17  C   UNL     1      27.605  21.007  18.506  0.00  0.00    +0.009 A 
ATOM     18  C   UNL     1      27.818  19.920  17.663  0.00  0.00    +0.049 A 
ATOM     19  C   UNL     1      28.337  20.118  16.384  0.00  0.00    +0.156 A 
ATOM     20  C   UNL     1      28.531  21.424  15.927  0.00  0.00    +0.165 A 
ATOM     21  F   UNL     1      28.983  21.647  14.684  0.00  0.00    -0.202 F 
ATOM     22  C   UNL     1      28.300  22.523  16.762  0.00  0.00    +0.047 A 
BRANCH  19  23
ATOM     23  O   UNL     1      28.692  19.094  15.545  0.00  0.00    -0.489 OA
BRANCH  23  24
ATOM     24  C   UNL     1      29.639  18.176  16.101  0.00  0.00    +0.232 C 
BRANCH  24  25
ATOM     25  C   UNL     1      31.018  18.692  15.853  0.00  0.00    +0.027 C 
ATOM     26  C   UNL     1      32.208  18.010  16.477  0.00  0.00    +0.007 C 
ATOM     27  C   UNL     1      31.795  19.377  16.951  0.00  0.00    +0.007 C 
ENDBRANCH  24  25
ENDBRANCH  23  24
ENDBRANCH  19  23
ENDBRANCH   1  16
TORSDOF 6
ENDMDL
MODEL 2
REMARK VINA RESULT:      -6.2      2.932      4.222
REMARK  Name = ZINC000543478179
REMARK  8 active torsions:
REMARK  status: ('A' for Active; 'I' for Inactive)
REMARK    1  A    between atoms: C_1  and  C_2
REMARK    2  A    between atoms: C_2  and  N_3
REMARK    3  A    between atoms: N_9  and  C_10
REMARK    4  A    between atoms: C_10  and  C_11
REMARK    5  A    between atoms: C_10  and  C_12
REMARK    6  A    between atoms: C_15  and  O_16
REMARK    7  A    between atoms: O_16  and  C_17
REMARK    8  A    between atoms: C_17  and  C_18
REMARK                            x       y       z     vdW  Elec       q    Type
REMARK                         _______ _______ _______ _____ _____    ______ ____
ROOT
ATOM      1  C   UNL     1      28.750  20.245  16.428  0.00  0.00    +0.102 C 
ATOM      2  C   UNL     1      27.605  19.605  17.225  0.00  0.00    +0.033 C 
ENDROOT
BRANCH   1   9
ATOM      3  N   UNL     1      31.811  24.213  20.396  0.00  0.00    -0.299 N 
ATOM      4  C   UNL     1      30.353  24.310  20.466  0.00  0.00    +0.127 C 
ATOM      5  C   UNL     1      29.713  24.335  19.075  0.00  0.00    +0.129 C 
ATOM      6  N   UNL     1      30.092  23.126  18.349  0.00  0.00    -0.275 N 
ATOM      7  C   UNL     1      29.115  22.328  17.772  0.00  0.00    +0.303 C 
ATOM      8  O   UNL     1      27.923  22.605  17.798  0.00  0.00    -0.253 OA
ATOM      9  N   UNL     1      29.586  21.174  17.193  0.00  0.00    -0.293 N 
ATOM     10  C   UNL     1      31.530  22.852  18.321  0.00  0.00    +0.205 C 
ATOM     11  C   UNL     1      32.434  23.627  19.297  0.00  0.00    +0.233 C 
ATOM     12  O   UNL     1      33.659  23.596  19.168  0.00  0.00    -0.274 OA
ATOM     13  H   UNL     1      30.527  21.240  16.846  0.00  0.00    +0.151 HD
BRANCH   3  15
ATOM     14  C   UNL     1      32.332  23.295  22.629  0.00  0.00    +0.024 C 
ATOM     15  C   UNL     1      32.592  24.403  21.617  0.00  0.00    +0.104 C 
ENDBRANCH   3  15
ENDBRANCH   1   9
BRANCH   1  16
ATOM     16  C   UNL     1      29.660  19.156  15.872  0.00  0.00    -0.024 A 
ATOM     17  C   UNL     1      31.051  19.243  16.071  0.00  0.00    +0.009 A 
ATOM     18  C   UNL     1      31.919  18.314  15.506  0.00  0.00    +0.049 A 
ATOM     19  C   UNL     1      31.423  17.299  14.688  0.00  0.00    +0.156 A 
ATOM     20  C   UNL     1      30.040  17.166  14.538  0.00  0.00    +0.165 A 
ATOM     21  F   UNL     1      29.531  16.172  13.796  0.00  0.00    -0.202 F 
ATOM     22  C   UNL     1      29.160  18.085  15.119  0.00  0.00    +0.047 A 
BRANCH  19  23
ATOM     23  O   UNL     1      32.222  16.427  13.996  0.00  0.00    -0.489 OA
BRANCH  23  24
ATOM     24  C   UNL     1      33.465  16.983  13.558  0.00  0.00    +0.232 C 
BRANCH  24  25
ATOM     25  C   UNL     1      33.650  16.677  12.108  0.00  0.00    +0.027 C 
ATOM     26  C   UNL     1      35.033  16.627  11.513  0.00  0.00    +0.007 C 
ATOM     27  C   UNL     1      34.100  17.748  11.144  0.00  0.00    +0.007 C 
ENDBRANCH  24  25
ENDBRANCH  23  24
ENDBRANCH  19  23
ENDBRANCH   1  16
TORSDOF 6
ENDMDL
MODEL 3
REMARK VINA RESULT:      -6.2      6.825      8.659
REMARK  Name = ZINC000543478179
REMARK  8 active torsions:
REMARK  status: ('A' for Active; 'I' for Inactive)
REMARK    1  A    between atoms: C_1  and  C_2
REMARK    2  A    between atoms: C_2  and  N_3
REMARK    3  A    between atoms: N_9  and  C_10
REMARK    4  A    between atoms: C_10  and  C_11
REMARK    5  A    between atoms: C_10  and  C_12
REMARK    6  A    between atoms: C_15  and  O_16
REMARK    7  A    between atoms: O_16  and  C_17
REMARK    8  A    between atoms: C_17  and  C_18
REMARK                            x       y       z     vdW  Elec       q    Type
REMARK                         _______ _______ _______ _____ _____    ______ ____
ROOT
ATOM      1  C   UNL     1      31.359  25.827  12.986  0.00  0.00    +0.102 C 
ATOM      2  C   UNL     1      30.180  26.713  12.558  0.00  0.00    +0.033 C 
ENDROOT
BRANCH   1   9
ATOM      3  N   UNL     1      29.429  20.850  16.503  0.00  0.00    -0.299 N 
ATOM      4  C   UNL     1      30.025  21.935  17.284  0.00  0.00    +0.127 C 
ATOM      5  C   UNL     1      31.310  22.464  16.639  0.00  0.00    +0.129 C 
ATOM      6  N   UNL     1      31.012  22.935  15.290  0.00  0.00    -0.275 N 
ATOM      7  C   UNL     1      31.388  24.214  14.902  0.00  0.00    +0.303 C 
ATOM      8  O   UNL     1      32.008  24.978  15.629  0.00  0.00    -0.253 OA
ATOM      9  N   UNL     1      30.977  24.573  13.641  0.00  0.00    -0.293 N 
ATOM     10  C   UNL     1      30.296  21.975  14.448  0.00  0.00    +0.205 C 
ATOM     11  C   UNL     1      29.648  20.756  15.131  0.00  0.00    +0.233 C 
ATOM     12  O   UNL     1      29.225  19.817  14.456  0.00  0.00    -0.274 OA
ATOM     13  H   UNL     1      30.882  23.803  13.002  0.00  0.00    +0.151 HD
BRANCH   3  15
ATOM     14  C   UNL     1      27.720  20.794  18.286  0.00  0.00    +0.024 C 
ATOM     15  C   UNL     1      28.329  20.083  17.085  0.00  0.00    +0.104 C 
ENDBRANCH   3  15
ENDBRANCH   1   9
BRANCH   1  16
ATOM     16  C   UNL     1      32.203  25.472  11.767  0.00  0.00    -0.024 A 
ATOM     17  C   UNL     1      32.257  26.359  10.675  0.00  0.00    +0.009 A 
ATOM     18  C   UNL     1      32.948  26.030   9.513  0.00  0.00    +0.049 A 
ATOM     19  C   UNL     1      33.563  24.784   9.393  0.00  0.00    +0.156 A 
ATOM     20  C   UNL     1      33.570  23.924  10.495  0.00  0.00    +0.165 A 
ATOM     21  F   UNL     1      34.194  22.739  10.426  0.00  0.00    -0.202 F 
ATOM     22  C   UNL     1      32.894  24.257  11.674  0.00  0.00    +0.047 A 
BRANCH  19  23
ATOM     23  O   UNL     1      34.151  24.338   8.238  0.00  0.00    -0.489 OA
BRANCH  23  24
ATOM     24  C   UNL     1      35.476  24.831   8.020  0.00  0.00    +0.232 C 
BRANCH  24  25
ATOM     25  C   UNL     1      36.304  23.746   7.413  0.00  0.00    +0.027 C 
ATOM     26  C   UNL     1      35.865  22.308   7.518  0.00  0.00    +0.007 C 
ATOM     27  C   UNL     1      37.071  22.781   8.284  0.00  0.00    +0.007 C 
ENDBRANCH  24  25
ENDBRANCH  23  24
ENDBRANCH  19  23
ENDBRANCH   1  16
TORSDOF 6
ENDMDL
MODEL 4
REMARK VINA RESULT:      -6.2      4.355      6.629
REMARK  Name = ZINC000543478179
REMARK  8 active torsions:
REMARK  status: ('A' for Active; 'I' for Inactive)
REMARK    1  A    between atoms: C_1  and  C_2
REMARK    2  A    between atoms: C_2  and  N_3
REMARK    3  A    between atoms: N_9  and  C_10
REMARK    4  A    between atoms: C_10  and  C_11
REMARK    5  A    between atoms: C_10  and  C_12
REMARK    6  A    between atoms: C_15  and  O_16
REMARK    7  A    between atoms: O_16  and  C_17
REMARK    8  A    between atoms: C_17  and  C_18
REMARK                            x       y       z     vdW  Elec       q    Type
REMARK                         _______ _______ _______ _____ _____    ______ ____
ROOT
ATOM      1  C   UNL     1      27.662  22.722  19.344  0.00  0.00    +0.102 C 
ATOM      2  C   UNL     1      28.385  21.799  20.335  0.00  0.00    +0.033 C 
ENDROOT
BRANCH   1   9
ATOM      3  N   UNL     1      24.168  27.200  22.279  0.00  0.00    -0.299 N 
ATOM      4  C   UNL     1      23.374  26.150  21.639  0.00  0.00    +0.127 C 
ATOM      5  C   UNL     1      23.886  25.823  20.233  0.00  0.00    +0.129 C 
ATOM      6  N   UNL     1      25.282  25.403  20.315  0.00  0.00    -0.275 N 
ATOM      7  C   UNL     1      25.683  24.207  19.737  0.00  0.00    +0.303 C 
ATOM      8  O   UNL     1      24.924  23.480  19.109  0.00  0.00    -0.253 OA
ATOM      9  N   UNL     1      26.998  23.877  19.955  0.00  0.00    -0.293 N 
ATOM     10  C   UNL     1      26.157  26.318  21.051  0.00  0.00    +0.205 C 
ATOM     11  C   UNL     1      25.499  27.404  21.923  0.00  0.00    +0.233 C 
ATOM     12  O   UNL     1      26.174  28.324  22.385  0.00  0.00    -0.274 OA
ATOM     13  H   UNL     1      27.608  24.668  20.076  0.00  0.00    +0.151 HD
BRANCH   3  15
ATOM     14  C   UNL     1      23.326  26.721  24.552  0.00  0.00    +0.024 C 
ATOM     15  C   UNL     1      23.685  27.789  23.527  0.00  0.00    +0.104 C 
ENDBRANCH   3  15
ENDBRANCH   1   9
BRANCH   1  16
ATOM     16  C   UNL     1      28.657  23.252  18.317  0.00  0.00    -0.024 A 
ATOM     17  C   UNL     1      28.679  22.702  17.022  0.00  0.00    +0.009 A 
ATOM     18  C   UNL     1      29.628  23.101  16.086  0.00  0.00    +0.049 A 
ATOM     19  C   UNL     1      30.611  24.027  16.435  0.00  0.00    +0.156 A 
ATOM     20  C   UNL     1      30.557  24.626  17.697  0.00  0.00    +0.165 A 
ATOM     21  F   UNL     1      31.460  25.555  18.045  0.00  0.00    -0.202 F 
ATOM     22  C   UNL     1      29.593  24.244  18.637  0.00  0.00    +0.047 A 
BRANCH  19  23
ATOM     23  O   UNL     1      31.651  24.372  15.614  0.00  0.00    -0.489 OA
BRANCH  23  24
ATOM     24  C   UNL     1      31.352  24.298  14.217  0.00  0.00    +0.232 C 
BRANCH  24  25
ATOM     25  C   UNL     1      31.657  25.616  13.584  0.00  0.00    +0.027 C 
ATOM     26  C   UNL     1      30.607  26.328  12.771  0.00  0.00    +0.007 C 
ATOM     27  C   UNL     1      31.811  25.737  12.088  0.00  0.00    +0.007 C 
ENDBRANCH  24  25
ENDBRANCH  23  24
ENDBRANCH  19  23
ENDBRANCH   1  16
TORSDOF 6
ENDMDL
MODEL 5
REMARK VINA RESULT:      -6.2      4.751      7.797
REMARK  Name = ZINC000543478179
REMARK  8 active torsions:
REMARK  status: ('A' for Active; 'I' for Inactive)
REMARK    1  A    between atoms: C_1  and  C_2
REMARK    2  A    between atoms: C_2  and  N_3
REMARK    3  A    between atoms: N_9  and  C_10
REMARK    4  A    between atoms: C_10  and  C_11
REMARK    5  A    between atoms: C_10  and  C_12
REMARK    6  A    between atoms: C_15  and  O_16
REMARK    7  A    between atoms: O_16  and  C_17
REMARK    8  A    between atoms: C_17  and  C_18
REMARK                            x       y       z     vdW  Elec       q    Type
REMARK                         _______ _______ _______ _____ _____    ______ ____
ROOT
ATOM      1  C   UNL     1      30.269  20.859  15.758  0.00  0.00    +0.102 C 
ATOM      2  C   UNL     1      29.656  19.749  14.891  0.00  0.00    +0.033 C 
ENDROOT
BRANCH   1   9
ATOM      3  N   UNL     1      32.341  25.621  12.031  0.00  0.00    -0.299 N 
ATOM      4  C   UNL     1      33.312  24.541  12.211  0.00  0.00    +0.127 C 
ATOM      5  C   UNL     1      33.407  24.094  13.673  0.00  0.00    +0.129 C 
ATOM      6  N   UNL     1      32.091  23.654  14.127  0.00  0.00    -0.275 N 
ATOM      7  C   UNL     1      31.941  22.408  14.720  0.00  0.00    +0.303 C 
ATOM      8  O   UNL     1      32.879  21.650  14.929  0.00  0.00    -0.253 OA
ATOM      9  N   UNL     1      30.645  22.071  15.026  0.00  0.00    -0.293 N 
ATOM     10  C   UNL     1      31.006  24.606  13.882  0.00  0.00    +0.205 C 
ATOM     11  C   UNL     1      31.271  25.770  12.909  0.00  0.00    +0.233 C 
ATOM     12  O   UNL     1      30.479  26.711  12.834  0.00  0.00    -0.274 OA
ATOM     13  H   UNL     1      30.050  22.856  15.224  0.00  0.00    +0.151 HD
BRANCH   3  15
ATOM     14  C   UNL     1      33.227  25.687   9.726  0.00  0.00    +0.024 C 
ATOM     15  C   UNL     1      32.288  26.317  10.746  0.00  0.00    +0.104 C 
ENDBRANCH   3  15
ENDBRANCH   1   9
BRANCH   1  16
ATOM     16  C   UNL     1      29.281  21.265  16.845  0.00  0.00    -0.024 A 
ATOM     17  C   UNL     1      28.031  21.803  16.485  0.00  0.00    +0.009 A 
ATOM     18  C   UNL     1      27.139  22.263  17.450  0.00  0.00    +0.049 A 
ATOM     19  C   UNL     1      27.494  22.241  18.798  0.00  0.00    +0.156 A 
ATOM     20  C   UNL     1      28.704  21.650  19.170  0.00  0.00    +0.165 A 
ATOM     21  F   UNL     1      29.051  21.571  20.463  0.00  0.00    -0.202 F 
ATOM     22  C   UNL     1      29.597  21.167  18.207  0.00  0.00    +0.047 A 
BRANCH  19  23
ATOM     23  O   UNL     1      26.727  22.791  19.791  0.00  0.00    -0.489 OA
BRANCH  23  24
ATOM     24  C   UNL     1      26.256  24.113  19.512  0.00  0.00    +0.232 C 
BRANCH  24  25
ATOM     25  C   UNL     1      24.782  24.163  19.748  0.00  0.00    +0.027 C 
ATOM     26  C   UNL     1      23.841  24.479  18.615  0.00  0.00    +0.007 C 
ATOM     27  C   UNL     1      24.040  25.477  19.723  0.00  0.00    +0.007 C 
ENDBRANCH  24  25
ENDBRANCH  23  24
ENDBRANCH  19  23
ENDBRANCH   1  16
TORSDOF 6
ENDMDL
MODEL 6
REMARK VINA RESULT:      -6.2      3.740      6.662
REMARK  Name = ZINC000543478179
REMARK  8 active torsions:
REMARK  status: ('A' for Active; 'I' for Inactive)
REMARK    1  A    between atoms: C_1  and  C_2
REMARK    2  A    between atoms: C_2  and  N_3
REMARK    3  A    between atoms: N_9  and  C_10
REMARK    4  A    between atoms: C_10  and  C_11
REMARK    5  A    between atoms: C_10  and  C_12
REMARK    6  A    between atoms: C_15  and  O_16
REMARK    7  A    between atoms: O_16  and  C_17
REMARK    8  A    between atoms: C_17  and  C_18
REMARK                            x       y       z     vdW  Elec       q    Type
REMARK                         _______ _______ _______ _____ _____    ______ ____
ROOT
ATOM      1  C   UNL     1      27.505  22.575  19.036  0.00  0.00    +0.102 C 
ATOM      2  C   UNL     1      28.730  23.393  19.469  0.00  0.00    +0.033 C 
ENDROOT
BRANCH   1   9
ATOM      3  N   UNL     1      22.682  26.668  18.107  0.00  0.00    -0.299 N 
ATOM      4  C   UNL     1      23.237  26.700  19.461  0.00  0.00    +0.127 C 
ATOM      5  C   UNL     1      23.465  25.292  20.019  0.00  0.00    +0.129 C 
ATOM      6  N   UNL     1      24.369  24.564  19.134  0.00  0.00    -0.275 N 
ATOM      7  C   UNL     1      25.503  23.951  19.649  0.00  0.00    +0.303 C 
ATOM      8  O   UNL     1      25.777  23.948  20.842  0.00  0.00    -0.253 OA
ATOM      9  N   UNL     1      26.320  23.373  18.708  0.00  0.00    -0.293 N 
ATOM     10  C   UNL     1      23.984  24.571  17.721  0.00  0.00    +0.205 C 
ATOM     11  C   UNL     1      22.912  25.580  17.269  0.00  0.00    +0.233 C 
ATOM     12  O   UNL     1      22.399  25.484  16.153  0.00  0.00    -0.274 OA
ATOM     13  H   UNL     1      25.840  23.052  17.885  0.00  0.00    +0.151 HD
BRANCH   3  15
ATOM     14  C   UNL     1      22.124  29.035  18.540  0.00  0.00    +0.024 C 
ATOM     15  C   UNL     1      22.196  27.912  17.513  0.00  0.00    +0.104 C 
ENDBRANCH   3  15
ENDBRANCH   1   9
BRANCH   1  16
ATOM     16  C   UNL     1      27.852  21.740  17.809  0.00  0.00    -0.024 A 
ATOM     17  C   UNL     1      27.662  20.345  17.840  0.00  0.00    +0.009 A 
ATOM     18  C   UNL     1      28.047  19.542  16.771  0.00  0.00    +0.049 A 
ATOM     19  C   UNL     1      28.676  20.107  15.661  0.00  0.00    +0.156 A 
ATOM     20  C   UNL     1      28.809  21.496  15.594  0.00  0.00    +0.165 A 
ATOM     21  F   UNL     1      29.366  22.072  14.518  0.00  0.00    -0.202 F 
ATOM     22  C   UNL     1      28.406  22.312  16.656  0.00  0.00    +0.047 A 
BRANCH  19  23
ATOM     23  O   UNL     1      29.197  19.370  14.630  0.00  0.00    -0.489 OA
BRANCH  23  24
ATOM     24  C   UNL     1      29.986  18.250  15.043  0.00  0.00    +0.232 C 
BRANCH  24  25
ATOM     25  C   UNL     1      31.361  18.724  15.382  0.00  0.00    +0.027 C 
ATOM     26  C   UNL     1      32.450  17.732  15.697  0.00  0.00    +0.007 C 
ATOM     27  C   UNL     1      31.894  18.605  16.789  0.00  0.00    +0.007 C 
ENDBRANCH  24  25
ENDBRANCH  23  24
ENDBRANCH  19  23
ENDBRANCH   1  16
TORSDOF 6
ENDMDL
MODEL 7
REMARK VINA RESULT:      -6.0      5.352      9.108
REMARK  Name = ZINC000543478179
REMARK  8 active torsions:
REMARK  status: ('A' for Active; 'I' for Inactive)
REMARK    1  A    between atoms: C_1  and  C_2
REMARK    2  A    between atoms: C_2  and  N_3
REMARK    3  A    between atoms: N_9  and  C_10
REMARK    4  A    between atoms: C_10  and  C_11
REMARK    5  A    between atoms: C_10  and  C_12
REMARK    6  A    between atoms: C_15  and  O_16
REMARK    7  A    between atoms: O_16  and  C_17
REMARK    8  A    between atoms: C_17  and  C_18
REMARK                            x       y       z     vdW  Elec       q    Type
REMARK                         _______ _______ _______ _____ _____    ______ ____
ROOT
ATOM      1  C   UNL     1      30.951  17.442  14.697  0.00  0.00    +0.102 C 
ATOM      2  C   UNL     1      30.048  16.493  13.898  0.00  0.00    +0.033 C 
ENDROOT
BRANCH   1   9
ATOM      3  N   UNL     1      36.062  18.725  11.077  0.00  0.00    -0.299 N 
ATOM      4  C   UNL     1      35.841  17.297  11.309  0.00  0.00    +0.127 C 
ATOM      5  C   UNL     1      35.509  17.000  12.775  0.00  0.00    +0.129 C 
ATOM      6  N   UNL     1      34.318  17.752  13.160  0.00  0.00    -0.275 N 
ATOM      7  C   UNL     1      33.243  17.098  13.746  0.00  0.00    +0.303 C 
ATOM      8  O   UNL     1      33.249  15.902  14.005  0.00  0.00    -0.253 OA
ATOM      9  N   UNL     1      32.149  17.894  13.984  0.00  0.00    -0.293 N 
ATOM     10  C   UNL     1      34.370  19.183  12.857  0.00  0.00    +0.205 C 
ATOM     11  C   UNL     1      35.468  19.680  11.898  0.00  0.00    +0.233 C 
ATOM     12  O   UNL     1      35.691  20.886  11.779  0.00  0.00    -0.274 OA
ATOM     13  H   UNL     1      32.369  18.861  14.150  0.00  0.00    +0.151 HD
BRANCH   3  15
ATOM     14  C   UNL     1      37.241  17.997   9.032  0.00  0.00    +0.024 C 
ATOM     15  C   UNL     1      36.606  19.155   9.790  0.00  0.00    +0.104 C 
ENDBRANCH   3  15
ENDBRANCH   1   9
BRANCH   1  16
ATOM     16  C   UNL     1      30.162  18.681  15.103  0.00  0.00    -0.024 A 
ATOM     17  C   UNL     1      30.806  19.932  15.151  0.00  0.00    +0.009 A 
ATOM     18  C   UNL     1      30.139  21.069  15.598  0.00  0.00    +0.049 A 
ATOM     19  C   UNL     1      28.825  20.976  16.055  0.00  0.00    +0.156 A 
ATOM     20  C   UNL     1      28.157  19.753  15.951  0.00  0.00    +0.165 A 
ATOM     21  F   UNL     1      26.878  19.644  16.338  0.00  0.00    -0.202 F 
ATOM     22  C   UNL     1      28.815  18.610  15.483  0.00  0.00    +0.047 A 
BRANCH  19  23
ATOM     23  O   UNL     1      28.147  22.020  16.628  0.00  0.00    -0.489 OA
BRANCH  23  24
ATOM     24  C   UNL     1      28.748  22.532  17.822  0.00  0.00    +0.232 C 
BRANCH  24  25
ATOM     25  C   UNL     1      28.509  21.567  18.937  0.00  0.00    +0.027 C 
ATOM     26  C   UNL     1      27.405  21.814  19.931  0.00  0.00    +0.007 C 
ATOM     27  C   UNL     1      28.841  21.938  20.362  0.00  0.00    +0.007 C 
ENDBRANCH  24  25
ENDBRANCH  23  24
ENDBRANCH  19  23
ENDBRANCH   1  16
TORSDOF 6
ENDMDL
MODEL 8
REMARK VINA RESULT:      -6.0      4.884      7.982
REMARK  Name = ZINC000543478179
REMARK  8 active torsions:
REMARK  status: ('A' for Active; 'I' for Inactive)
REMARK    1  A    between atoms: C_1  and  C_2
REMARK    2  A    between atoms: C_2  and  N_3
REMARK    3  A    between atoms: N_9  and  C_10
REMARK    4  A    between atoms: C_10  and  C_11
REMARK    5  A    between atoms: C_10  and  C_12
REMARK    6  A    between atoms: C_15  and  O_16
REMARK    7  A    between atoms: O_16  and  C_17
REMARK    8  A    between atoms: C_17  and  C_18
REMARK                            x       y       z     vdW  Elec       q    Type
REMARK                         _______ _______ _______ _____ _____    ______ ____
ROOT
ATOM      1  C   UNL     1      29.832  21.854  15.915  0.00  0.00    +0.102 C 
ATOM      2  C   UNL     1      28.403  21.405  15.578  0.00  0.00    +0.033 C 
ENDROOT
BRANCH   1   9
ATOM      3  N   UNL     1      32.751  25.154  11.284  0.00  0.00    -0.299 N 
ATOM      4  C   UNL     1      33.485  23.965  11.721  0.00  0.00    +0.127 C 
ATOM      5  C   UNL     1      33.518  23.842  13.247  0.00  0.00    +0.129 C 
ATOM      6  N   UNL     1      32.150  23.790  13.755  0.00  0.00    -0.275 N 
ATOM      7  C   UNL     1      31.762  22.763  14.604  0.00  0.00    +0.303 C 
ATOM      8  O   UNL     1      32.530  21.895  14.997  0.00  0.00    -0.253 OA
ATOM      9  N   UNL     1      30.432  22.772  14.944  0.00  0.00    -0.293 N 
ATOM     10  C   UNL     1      31.277  24.865  13.280  0.00  0.00    +0.205 C 
ATOM     11  C   UNL     1      31.753  25.707  12.081  0.00  0.00    +0.233 C 
ATOM     12  O   UNL     1      31.167  26.749  11.781  0.00  0.00    -0.274 OA
ATOM     13  H   UNL     1      30.013  23.686  14.950  0.00  0.00    +0.151 HD
BRANCH   3  15
ATOM     14  C   UNL     1      33.608  24.543   9.049  0.00  0.00    +0.024 C 
ATOM     15  C   UNL     1      32.813  25.545   9.877  0.00  0.00    +0.104 C 
ENDBRANCH   3  15
ENDBRANCH   1   9
BRANCH   1  16
ATOM     16  C   UNL     1      29.845  22.546  17.274  0.00  0.00    -0.024 A 
ATOM     17  C   UNL     1      30.306  23.872  17.375  0.00  0.00    +0.009 A 
ATOM     18  C   UNL     1      30.412  24.506  18.609  0.00  0.00    +0.049 A 
ATOM     19  C   UNL     1      30.106  23.814  19.780  0.00  0.00    +0.156 A 
ATOM     20  C   UNL     1      29.586  22.520  19.685  0.00  0.00    +0.165 A 
ATOM     21  F   UNL     1      29.238  21.847  20.792  0.00  0.00    -0.202 F 
ATOM     22  C   UNL     1      29.458  21.883  18.446  0.00  0.00    +0.047 A 
BRANCH  19  23
ATOM     23  O   UNL     1      30.306  24.325  21.036  0.00  0.00    -0.489 OA
BRANCH  23  24
ATOM     24  C   UNL     1      31.681  24.449  21.411  0.00  0.00    +0.232 C 
BRANCH  24  25
ATOM     25  C   UNL     1      32.017  23.369  22.387  0.00  0.00    +0.027 C 
ATOM     26  C   UNL     1      32.812  23.686  23.627  0.00  0.00    +0.007 C 
ATOM     27  C   UNL     1      33.434  22.869  22.527  0.00  0.00    +0.007 C 
ENDBRANCH  24  25
ENDBRANCH  23  24
ENDBRANCH  19  23
ENDBRANCH   1  16
TORSDOF 6
ENDMDL
MODEL 9
REMARK VINA RESULT:      -6.0      7.640      9.428
REMARK  Name = ZINC000543478179
REMARK  8 active torsions:
REMARK  status: ('A' for Active; 'I' for Inactive)
REMARK    1  A    between atoms: C_1  and  C_2
REMARK    2  A    between atoms: C_2  and  N_3
REMARK    3  A    between atoms: N_9  and  C_10
REMARK    4  A    between atoms: C_10  and  C_11
REMARK    5  A    between atoms: C_10  and  C_12
REMARK    6  A    between atoms: C_15  and  O_16
REMARK    7  A    between atoms: O_16  and  C_17
REMARK    8  A    between atoms: C_17  and  C_18
REMARK                            x       y       z     vdW  Elec       q    Type
REMARK                         _______ _______ _______ _____ _____    ______ ____
ROOT
ATOM      1  C   UNL     1      32.621  25.400  11.677  0.00  0.00    +0.102 C 
ATOM      2  C   UNL     1      31.778  26.517  11.047  0.00  0.00    +0.033 C 
ENDROOT
BRANCH   1   9
ATOM      3  N   UNL     1      29.085  22.204  15.936  0.00  0.00    -0.299 N 
ATOM      4  C   UNL     1      29.676  23.436  16.460  0.00  0.00    +0.127 C 
ATOM      5  C   UNL     1      31.147  23.581  16.056  0.00  0.00    +0.129 C 
ATOM      6  N   UNL     1      31.250  23.564  14.600  0.00  0.00    -0.275 N 
ATOM      7  C   UNL     1      31.928  24.580  13.940  0.00  0.00    +0.303 C 
ATOM      8  O   UNL     1      32.496  25.494  14.524  0.00  0.00    -0.253 OA
ATOM      9  N   UNL     1      31.882  24.503  12.570  0.00  0.00    -0.293 N 
ATOM     10  C   UNL     1      30.579  22.437  13.949  0.00  0.00    +0.205 C 
ATOM     11  C   UNL     1      29.586  21.607  14.782  0.00  0.00    +0.233 C 
ATOM     12  O   UNL     1      29.163  20.532  14.356  0.00  0.00    -0.274 OA
ATOM     13  H   UNL     1      31.796  23.568  12.211  0.00  0.00    +0.151 HD
BRANCH   3  15
ATOM     14  C   UNL     1      27.637  21.942  17.921  0.00  0.00    +0.024 C 
ATOM     15  C   UNL     1      27.762  21.799  16.410  0.00  0.00    +0.104 C 
ENDBRANCH   3  15
ENDBRANCH   1   9
BRANCH   1  16
ATOM     16  C   UNL     1      33.245  24.546  10.579  0.00  0.00    -0.024 A 
ATOM     17  C   UNL     1      33.736  23.263  10.888  0.00  0.00    +0.009 A 
ATOM     18  C   UNL     1      34.388  22.491   9.932  0.00  0.00    +0.049 A 
ATOM     19  C   UNL     1      34.608  23.000   8.652  0.00  0.00    +0.156 A 
ATOM     20  C   UNL     1      34.068  24.245   8.317  0.00  0.00    +0.165 A 
ATOM     21  F   UNL     1      34.223  24.740   7.080  0.00  0.00    -0.202 F 
ATOM     22  C   UNL     1      33.395  25.019   9.268  0.00  0.00    +0.047 A 
BRANCH  19  23
ATOM     23  O   UNL     1      35.351  22.355   7.699  0.00  0.00    -0.489 OA
BRANCH  23  24
ATOM     24  C   UNL     1      36.752  22.641   7.745  0.00  0.00    +0.232 C 
BRANCH  24  25
ATOM     25  C   UNL     1      37.297  22.626   6.355  0.00  0.00    +0.027 C 
ATOM     26  C   UNL     1      36.978  21.483   5.427  0.00  0.00    +0.007 C 
ATOM     27  C   UNL     1      38.376  21.648   5.959  0.00  0.00    +0.007 C 
ENDBRANCH  24  25
ENDBRANCH  23  24
ENDBRANCH  19  23
ENDBRANCH   1  16
TORSDOF 6
ENDMDL
