MODEL 1
REMARK VINA RESULT:      -6.6      0.000      0.000
REMARK  Name = ZINC000826139982
REMARK  4 active torsions:
REMARK  status: ('A' for Active; 'I' for Inactive)
REMARK    1  A    between atoms: C_2  and  C_4
REMARK    2  A    between atoms: C_8  and  C_10
REMARK    3  A    between atoms: C_14  and  S_15
REMARK    4  A    between atoms: S_15  and  C_16
REMARK                            x       y       z     vdW  Elec       q    Type
REMARK                         _______ _______ _______ _____ _____    ______ ____
ROOT
ATOM      1  C   UNL     1      30.356  22.695  19.236  0.00  0.00    +0.093 C 
ATOM      2  C   UNL     1      28.859  22.885  19.509  0.00  0.00    +0.033 C 
ATOM      3  C   UNL     1      28.172  21.707  18.831  0.00  0.00    +0.109 C 
ATOM      4  N   UNL     1      29.066  21.348  17.749  0.00  0.00    -0.297 N 
ATOM      5  C   UNL     1      28.603  20.709  16.606  0.00  0.00    +0.247 C 
ATOM      6  O   UNL     1      27.403  20.497  16.430  0.00  0.00    -0.270 OA
ATOM      7  C   UNL     1      30.435  21.635  18.144  0.00  0.00    +0.120 C 
ENDROOT
BRANCH   5   8
ATOM      8  C   UNL     1      29.546  20.319  15.507  0.00  0.00    +0.038 A 
ATOM      9  C   UNL     1      29.793  21.115  14.384  0.00  0.00    +0.013 A 
ATOM     10  C   UNL     1      30.583  20.649  13.333  0.00  0.00    +0.002 A 
ATOM     11  C   UNL     1      31.224  19.420  13.440  0.00  0.00    +0.015 A 
ATOM     12  C   UNL     1      31.105  18.667  14.612  0.00  0.00    +0.017 A 
ATOM     13  C   UNL     1      30.237  19.101  15.624  0.00  0.00    +0.028 A 
BRANCH  12  14
ATOM     14  S   UNL     1      32.009  17.145  14.811  0.00  0.00    -0.016 S 
BRANCH  14  15
ATOM     15  C   UNL     1      31.399  16.189  13.406  0.00  0.00    +0.448 C 
ATOM     16  F   UNL     1      31.804  16.658  12.202  0.00  0.00    -0.160 F 
ATOM     17  F   UNL     1      31.806  14.900  13.487  0.00  0.00    -0.160 F 
ATOM     18  F   UNL     1      30.043  16.178  13.389  0.00  0.00    -0.160 F 
ENDBRANCH  14  15
ENDBRANCH  12  14
ENDBRANCH   5   8
BRANCH   1  20
ATOM     19  N   UNL     1      30.740  22.866  21.628  0.00  0.00    -0.329 N 
ATOM     20  C   UNL     1      31.172  22.318  20.458  0.00  0.00    +0.215 C 
ATOM     21  O   UNL     1      32.183  21.632  20.437  0.00  0.00    -0.276 OA
ATOM     22  H   UNL     1      31.296  22.697  22.457  0.00  0.00    +0.145 HD
ATOM     23  H   UNL     1      29.954  23.497  21.692  0.00  0.00    +0.145 HD
ENDBRANCH   1  20
TORSDOF 4
ENDMDL
MODEL 2
REMARK VINA RESULT:      -6.3      4.683      6.596
REMARK  Name = ZINC000826139982
REMARK  4 active torsions:
REMARK  status: ('A' for Active; 'I' for Inactive)
REMARK    1  A    between atoms: C_2  and  C_4
REMARK    2  A    between atoms: C_8  and  C_10
REMARK    3  A    between atoms: C_14  and  S_15
REMARK    4  A    between atoms: S_15  and  C_16
REMARK                            x       y       z     vdW  Elec       q    Type
REMARK                         _______ _______ _______ _____ _____    ______ ____
ROOT
ATOM      1  C   UNL     1      31.515  17.327  15.705  0.00  0.00    +0.093 C 
ATOM      2  C   UNL     1      30.815  17.334  14.342  0.00  0.00    +0.033 C 
ATOM      3  C   UNL     1      30.488  18.795  14.063  0.00  0.00    +0.109 C 
ATOM      4  N   UNL     1      30.361  19.388  15.379  0.00  0.00    -0.297 N 
ATOM      5  C   UNL     1      29.583  20.518  15.595  0.00  0.00    +0.247 C 
ATOM      6  O   UNL     1      28.904  21.012  14.695  0.00  0.00    -0.270 OA
ATOM      7  C   UNL     1      31.255  18.705  16.301  0.00  0.00    +0.120 C 
ENDROOT
BRANCH   5   8
ATOM      8  C   UNL     1      29.484  21.136  16.958  0.00  0.00    +0.038 A 
ATOM      9  C   UNL     1      28.322  21.111  17.735  0.00  0.00    +0.013 A 
ATOM     10  C   UNL     1      28.248  21.807  18.940  0.00  0.00    +0.002 A 
ATOM     11  C   UNL     1      29.375  22.452  19.438  0.00  0.00    +0.015 A 
ATOM     12  C   UNL     1      30.589  22.375  18.749  0.00  0.00    +0.017 A 
ATOM     13  C   UNL     1      30.630  21.749  17.495  0.00  0.00    +0.028 A 
BRANCH  12  14
ATOM     14  S   UNL     1      32.068  23.099  19.428  0.00  0.00    -0.016 S 
BRANCH  14  15
ATOM     15  C   UNL     1      32.741  21.708  20.362  0.00  0.00    +0.448 C 
ATOM     16  F   UNL     1      32.931  20.588  19.624  0.00  0.00    -0.160 F 
ATOM     17  F   UNL     1      33.937  22.029  20.911  0.00  0.00    -0.160 F 
ATOM     18  F   UNL     1      31.912  21.372  21.381  0.00  0.00    -0.160 F 
ENDBRANCH  14  15
ENDBRANCH  12  14
ENDBRANCH   5   8
BRANCH   1  20
ATOM     19  N   UNL     1      33.439  16.170  16.634  0.00  0.00    -0.329 N 
ATOM     20  C   UNL     1      32.996  17.000  15.647  0.00  0.00    +0.215 C 
ATOM     21  O   UNL     1      33.783  17.469  14.839  0.00  0.00    -0.276 OA
ATOM     22  H   UNL     1      34.433  15.982  16.674  0.00  0.00    +0.145 HD
ATOM     23  H   UNL     1      32.846  15.811  17.369  0.00  0.00    +0.145 HD
ENDBRANCH   1  20
TORSDOF 4
ENDMDL
MODEL 3
REMARK VINA RESULT:      -6.2      3.262      3.908
REMARK  Name = ZINC000826139982
REMARK  4 active torsions:
REMARK  status: ('A' for Active; 'I' for Inactive)
REMARK    1  A    between atoms: C_2  and  C_4
REMARK    2  A    between atoms: C_8  and  C_10
REMARK    3  A    between atoms: C_14  and  S_15
REMARK    4  A    between atoms: S_15  and  C_16
REMARK                            x       y       z     vdW  Elec       q    Type
REMARK                         _______ _______ _______ _____ _____    ______ ____
ROOT
ATOM      1  C   UNL     1      30.620  22.684  19.315  0.00  0.00    +0.093 C 
ATOM      2  C   UNL     1      29.117  22.823  19.584  0.00  0.00    +0.033 C 
ATOM      3  C   UNL     1      28.455  21.733  18.751  0.00  0.00    +0.109 C 
ATOM      4  N   UNL     1      29.370  21.523  17.649  0.00  0.00    -0.297 N 
ATOM      5  C   UNL     1      28.933  21.029  16.426  0.00  0.00    +0.247 C 
ATOM      6  O   UNL     1      27.739  20.829  16.204  0.00  0.00    -0.270 OA
ATOM      7  C   UNL     1      30.730  21.772  18.100  0.00  0.00    +0.120 C 
ENDROOT
BRANCH   5   8
ATOM      8  C   UNL     1      29.898  20.791  15.302  0.00  0.00    +0.038 A 
ATOM      9  C   UNL     1      30.044  19.558  14.659  0.00  0.00    +0.013 A 
ATOM     10  C   UNL     1      31.042  19.359  13.706  0.00  0.00    +0.002 A 
ATOM     11  C   UNL     1      31.841  20.424  13.306  0.00  0.00    +0.015 A 
ATOM     12  C   UNL     1      31.623  21.701  13.833  0.00  0.00    +0.017 A 
ATOM     13  C   UNL     1      30.678  21.871  14.855  0.00  0.00    +0.028 A 
BRANCH  12  14
ATOM     14  S   UNL     1      32.560  23.098  13.250  0.00  0.00    -0.016 S 
BRANCH  14  15
ATOM     15  C   UNL     1      31.597  23.586  11.803  0.00  0.00    +0.448 C 
ATOM     16  F   UNL     1      32.077  23.105  10.632  0.00  0.00    -0.160 F 
ATOM     17  F   UNL     1      30.315  23.162  11.911  0.00  0.00    -0.160 F 
ATOM     18  F   UNL     1      31.561  24.937  11.688  0.00  0.00    -0.160 F 
ENDBRANCH  14  15
ENDBRANCH  12  14
ENDBRANCH   5   8
BRANCH   1  20
ATOM     19  N   UNL     1      31.089  22.708  21.698  0.00  0.00    -0.329 N 
ATOM     20  C   UNL     1      31.422  22.164  20.493  0.00  0.00    +0.215 C 
ATOM     21  O   UNL     1      32.346  21.368  20.412  0.00  0.00    -0.276 OA
ATOM     22  H   UNL     1      31.646  22.441  22.501  0.00  0.00    +0.145 HD
ATOM     23  H   UNL     1      30.383  23.422  21.812  0.00  0.00    +0.145 HD
ENDBRANCH   1  20
TORSDOF 4
ENDMDL
MODEL 4
REMARK VINA RESULT:      -6.1      2.175      3.122
REMARK  Name = ZINC000826139982
REMARK  4 active torsions:
REMARK  status: ('A' for Active; 'I' for Inactive)
REMARK    1  A    between atoms: C_2  and  C_4
REMARK    2  A    between atoms: C_8  and  C_10
REMARK    3  A    between atoms: C_14  and  S_15
REMARK    4  A    between atoms: S_15  and  C_16
REMARK                            x       y       z     vdW  Elec       q    Type
REMARK                         _______ _______ _______ _____ _____    ______ ____
ROOT
ATOM      1  C   UNL     1      28.128  21.780  19.327  0.00  0.00    +0.093 C 
ATOM      2  C   UNL     1      29.171  22.613  20.080  0.00  0.00    +0.033 C 
ATOM      3  C   UNL     1      30.034  23.252  19.001  0.00  0.00    +0.109 C 
ATOM      4  N   UNL     1      29.943  22.336  17.884  0.00  0.00    -0.297 N 
ATOM      5  C   UNL     1      30.948  22.253  16.928  0.00  0.00    +0.247 C 
ATOM      6  O   UNL     1      31.993  22.894  17.038  0.00  0.00    -0.270 OA
ATOM      7  C   UNL     1      28.638  21.696  17.893  0.00  0.00    +0.120 C 
ENDROOT
BRANCH   5   8
ATOM      8  C   UNL     1      30.826  21.318  15.761  0.00  0.00    +0.038 A 
ATOM      9  C   UNL     1      29.926  21.511  14.709  0.00  0.00    +0.013 A 
ATOM     10  C   UNL     1      29.767  20.548  13.714  0.00  0.00    +0.002 A 
ATOM     11  C   UNL     1      30.585  19.424  13.700  0.00  0.00    +0.015 A 
ATOM     12  C   UNL     1      31.588  19.275  14.663  0.00  0.00    +0.017 A 
ATOM     13  C   UNL     1      31.681  20.203  15.710  0.00  0.00    +0.028 A 
BRANCH  12  14
ATOM     14  S   UNL     1      32.718  17.900  14.594  0.00  0.00    -0.016 S 
BRANCH  14  15
ATOM     15  C   UNL     1      31.974  16.774  15.793  0.00  0.00    +0.448 C 
ATOM     16  F   UNL     1      32.465  16.900  17.048  0.00  0.00    -0.160 F 
ATOM     17  F   UNL     1      30.635  16.968  15.870  0.00  0.00    -0.160 F 
ATOM     18  F   UNL     1      32.168  15.485  15.420  0.00  0.00    -0.160 F 
ENDBRANCH  14  15
ENDBRANCH  12  14
ENDBRANCH   5   8
BRANCH   1  20
ATOM     19  N   UNL     1      25.765  21.548  18.812  0.00  0.00    -0.329 N 
ATOM     20  C   UNL     1      26.715  22.330  19.399  0.00  0.00    +0.215 C 
ATOM     21  O   UNL     1      26.412  23.412  19.877  0.00  0.00    -0.276 OA
ATOM     22  H   UNL     1      24.820  21.910  18.776  0.00  0.00    +0.145 HD
ATOM     23  H   UNL     1      25.971  20.680  18.339  0.00  0.00    +0.145 HD
ENDBRANCH   1  20
TORSDOF 4
ENDMDL
MODEL 5
REMARK VINA RESULT:      -6.1      4.578      7.321
REMARK  Name = ZINC000826139982
REMARK  4 active torsions:
REMARK  status: ('A' for Active; 'I' for Inactive)
REMARK    1  A    between atoms: C_2  and  C_4
REMARK    2  A    between atoms: C_8  and  C_10
REMARK    3  A    between atoms: C_14  and  S_15
REMARK    4  A    between atoms: S_15  and  C_16
REMARK                            x       y       z     vdW  Elec       q    Type
REMARK                         _______ _______ _______ _____ _____    ______ ____
ROOT
ATOM      1  C   UNL     1      32.463  15.864  12.895  0.00  0.00    +0.093 C 
ATOM      2  C   UNL     1      33.854  15.936  13.536  0.00  0.00    +0.033 C 
ATOM      3  C   UNL     1      33.651  16.653  14.864  0.00  0.00    +0.109 C 
ATOM      4  N   UNL     1      32.487  17.486  14.643  0.00  0.00    -0.297 N 
ATOM      5  C   UNL     1      32.278  18.650  15.372  0.00  0.00    +0.247 C 
ATOM      6  O   UNL     1      33.113  19.064  16.175  0.00  0.00    -0.270 OA
ATOM      7  C   UNL     1      31.599  16.829  13.698  0.00  0.00    +0.120 C 
ENDROOT
BRANCH   5   8
ATOM      8  C   UNL     1      31.052  19.487  15.151  0.00  0.00    +0.038 A 
ATOM      9  C   UNL     1      30.588  19.856  13.885  0.00  0.00    +0.013 A 
ATOM     10  C   UNL     1      29.517  20.737  13.741  0.00  0.00    +0.002 A 
ATOM     11  C   UNL     1      28.827  21.179  14.864  0.00  0.00    +0.015 A 
ATOM     12  C   UNL     1      29.184  20.714  16.134  0.00  0.00    +0.017 A 
ATOM     13  C   UNL     1      30.317  19.900  16.275  0.00  0.00    +0.028 A 
BRANCH  12  14
ATOM     14  S   UNL     1      28.241  21.179  17.571  0.00  0.00    -0.016 S 
BRANCH  14  15
ATOM     15  C   UNL     1      26.566  20.763  17.040  0.00  0.00    +0.448 C 
ATOM     16  F   UNL     1      26.097  21.540  16.035  0.00  0.00    -0.160 F 
ATOM     17  F   UNL     1      26.500  19.480  16.613  0.00  0.00    -0.160 F 
ATOM     18  F   UNL     1      25.695  20.885  18.072  0.00  0.00    -0.160 F 
ENDBRANCH  14  15
ENDBRANCH  12  14
ENDBRANCH   5   8
BRANCH   1  20
ATOM     19  N   UNL     1      32.591  13.513  13.496  0.00  0.00    -0.329 N 
ATOM     20  C   UNL     1      31.867  14.470  12.846  0.00  0.00    +0.215 C 
ATOM     21  O   UNL     1      30.855  14.164  12.233  0.00  0.00    -0.276 OA
ATOM     22  H   UNL     1      32.265  12.557  13.429  0.00  0.00    +0.145 HD
ATOM     23  H   UNL     1      33.470  13.697  13.957  0.00  0.00    +0.145 HD
ENDBRANCH   1  20
TORSDOF 4
ENDMDL
MODEL 6
REMARK VINA RESULT:      -6.1      5.019      6.594
REMARK  Name = ZINC000826139982
REMARK  4 active torsions:
REMARK  status: ('A' for Active; 'I' for Inactive)
REMARK    1  A    between atoms: C_2  and  C_4
REMARK    2  A    between atoms: C_8  and  C_10
REMARK    3  A    between atoms: C_14  and  S_15
REMARK    4  A    between atoms: S_15  and  C_16
REMARK                            x       y       z     vdW  Elec       q    Type
REMARK                         _______ _______ _______ _____ _____    ______ ____
ROOT
ATOM      1  C   UNL     1      29.260  20.518  14.912  0.00  0.00    +0.093 C 
ATOM      2  C   UNL     1      30.173  19.305  15.121  0.00  0.00    +0.033 C 
ATOM      3  C   UNL     1      31.587  19.817  14.880  0.00  0.00    +0.109 C 
ATOM      4  N   UNL     1      31.412  20.930  13.970  0.00  0.00    -0.297 N 
ATOM      5  C   UNL     1      32.425  21.331  13.108  0.00  0.00    +0.247 C 
ATOM      6  O   UNL     1      33.482  20.706  13.025  0.00  0.00    -0.270 OA
ATOM      7  C   UNL     1      30.131  21.568  14.233  0.00  0.00    +0.120 C 
ENDROOT
BRANCH   5   8
ATOM      8  C   UNL     1      32.237  22.504  12.191  0.00  0.00    +0.038 A 
ATOM      9  C   UNL     1      31.219  23.449  12.347  0.00  0.00    +0.013 A 
ATOM     10  C   UNL     1      31.015  24.448  11.395  0.00  0.00    +0.002 A 
ATOM     11  C   UNL     1      31.896  24.578  10.328  0.00  0.00    +0.015 A 
ATOM     12  C   UNL     1      33.004  23.732  10.225  0.00  0.00    +0.017 A 
ATOM     13  C   UNL     1      33.149  22.676  11.136  0.00  0.00    +0.028 A 
BRANCH  12  14
ATOM     14  S   UNL     1      34.204  23.957   8.929  0.00  0.00    -0.016 S 
BRANCH  14  15
ATOM     15  C   UNL     1      33.347  23.214   7.525  0.00  0.00    +0.448 C 
ATOM     16  F   UNL     1      34.159  22.886   6.493  0.00  0.00    -0.160 F 
ATOM     17  F   UNL     1      32.702  22.082   7.897  0.00  0.00    -0.160 F 
ATOM     18  F   UNL     1      32.410  24.063   7.035  0.00  0.00    -0.160 F 
ENDBRANCH  14  15
ENDBRANCH  12  14
ENDBRANCH   5   8
BRANCH   1  20
ATOM     19  N   UNL     1      27.322  21.448  16.044  0.00  0.00    -0.329 N 
ATOM     20  C   UNL     1      28.617  21.045  16.182  0.00  0.00    +0.215 C 
ATOM     21  O   UNL     1      29.192  21.177  17.252  0.00  0.00    -0.276 OA
ATOM     22  H   UNL     1      26.876  21.870  16.849  0.00  0.00    +0.145 HD
ATOM     23  H   UNL     1      26.822  21.428  15.167  0.00  0.00    +0.145 HD
ENDBRANCH   1  20
TORSDOF 4
ENDMDL
MODEL 7
REMARK VINA RESULT:      -6.1      5.186      7.288
REMARK  Name = ZINC000826139982
REMARK  4 active torsions:
REMARK  status: ('A' for Active; 'I' for Inactive)
REMARK    1  A    between atoms: C_2  and  C_4
REMARK    2  A    between atoms: C_8  and  C_10
REMARK    3  A    between atoms: C_14  and  S_15
REMARK    4  A    between atoms: S_15  and  C_16
REMARK                            x       y       z     vdW  Elec       q    Type
REMARK                         _______ _______ _______ _____ _____    ______ ____
ROOT
ATOM      1  C   UNL     1      32.244  22.770  13.000  0.00  0.00    +0.093 C 
ATOM      2  C   UNL     1      32.921  21.459  12.586  0.00  0.00    +0.033 C 
ATOM      3  C   UNL     1      32.115  20.357  13.261  0.00  0.00    +0.109 C 
ATOM      4  N   UNL     1      31.555  20.994  14.435  0.00  0.00    -0.297 N 
ATOM      5  C   UNL     1      31.211  20.263  15.565  0.00  0.00    +0.247 C 
ATOM      6  O   UNL     1      31.445  19.057  15.645  0.00  0.00    -0.270 OA
ATOM      7  C   UNL     1      31.315  22.400  14.149  0.00  0.00    +0.120 C 
ENDROOT
BRANCH   5   8
ATOM      8  C   UNL     1      30.607  20.934  16.762  0.00  0.00    +0.038 A 
ATOM      9  C   UNL     1      29.251  20.849  17.092  0.00  0.00    +0.013 A 
ATOM     10  C   UNL     1      28.719  21.593  18.145  0.00  0.00    +0.002 A 
ATOM     11  C   UNL     1      29.560  22.353  18.950  0.00  0.00    +0.015 A 
ATOM     12  C   UNL     1      30.940  22.345  18.727  0.00  0.00    +0.017 A 
ATOM     13  C   UNL     1      31.453  21.666  17.613  0.00  0.00    +0.028 A 
BRANCH  12  14
ATOM     14  S   UNL     1      32.043  23.221  19.817  0.00  0.00    -0.016 S 
BRANCH  14  15
ATOM     15  C   UNL     1      31.902  22.235  21.323  0.00  0.00    +0.448 C 
ATOM     16  F   UNL     1      30.711  22.361  21.956  0.00  0.00    -0.160 F 
ATOM     17  F   UNL     1      32.072  20.918  21.056  0.00  0.00    -0.160 F 
ATOM     18  F   UNL     1      32.861  22.588  22.215  0.00  0.00    -0.160 F 
ENDBRANCH  14  15
ENDBRANCH  12  14
ENDBRANCH   5   8
BRANCH   1  20
ATOM     19  N   UNL     1      30.346  24.085  12.246  0.00  0.00    -0.329 N 
ATOM     20  C   UNL     1      31.510  23.478  11.877  0.00  0.00    +0.215 C 
ATOM     21  O   UNL     1      31.859  23.478  10.706  0.00  0.00    -0.276 OA
ATOM     22  H   UNL     1      29.789  24.510  11.515  0.00  0.00    +0.145 HD
ATOM     23  H   UNL     1      29.974  24.055  13.184  0.00  0.00    +0.145 HD
ENDBRANCH   1  20
TORSDOF 4
ENDMDL
MODEL 8
REMARK VINA RESULT:      -6.1      2.272      2.930
REMARK  Name = ZINC000826139982
REMARK  4 active torsions:
REMARK  status: ('A' for Active; 'I' for Inactive)
REMARK    1  A    between atoms: C_2  and  C_4
REMARK    2  A    between atoms: C_8  and  C_10
REMARK    3  A    between atoms: C_14  and  S_15
REMARK    4  A    between atoms: S_15  and  C_16
REMARK                            x       y       z     vdW  Elec       q    Type
REMARK                         _______ _______ _______ _____ _____    ______ ____
ROOT
ATOM      1  C   UNL     1      32.355  21.760  20.681  0.00  0.00    +0.093 C 
ATOM      2  C   UNL     1      33.585  22.609  20.340  0.00  0.00    +0.033 C 
ATOM      3  C   UNL     1      33.339  23.129  18.930  0.00  0.00    +0.109 C 
ATOM      4  N   UNL     1      32.478  22.132  18.329  0.00  0.00    -0.297 N 
ATOM      5  C   UNL     1      32.443  21.937  16.953  0.00  0.00    +0.247 C 
ATOM      6  O   UNL     1      33.202  22.544  16.199  0.00  0.00    -0.270 OA
ATOM      7  C   UNL     1      31.633  21.545  19.356  0.00  0.00    +0.120 C 
ENDROOT
BRANCH   5   8
ATOM      8  C   UNL     1      31.524  20.919  16.344  0.00  0.00    +0.038 A 
ATOM      9  C   UNL     1      30.256  21.227  15.841  0.00  0.00    +0.013 A 
ATOM     10  C   UNL     1      29.395  20.224  15.399  0.00  0.00    +0.002 A 
ATOM     11  C   UNL     1      29.833  18.905  15.355  0.00  0.00    +0.015 A 
ATOM     12  C   UNL     1      31.145  18.589  15.721  0.00  0.00    +0.017 A 
ATOM     13  C   UNL     1      31.973  19.591  16.248  0.00  0.00    +0.028 A 
BRANCH  12  14
ATOM     14  S   UNL     1      31.759  16.924  15.562  0.00  0.00    -0.016 S 
BRANCH  14  15
ATOM     15  C   UNL     1      31.469  16.610  13.808  0.00  0.00    +0.448 C 
ATOM     16  F   UNL     1      30.193  16.264  13.513  0.00  0.00    -0.160 F 
ATOM     17  F   UNL     1      31.765  17.704  13.066  0.00  0.00    -0.160 F 
ATOM     18  F   UNL     1      32.262  15.603  13.367  0.00  0.00    -0.160 F 
ENDBRANCH  14  15
ENDBRANCH  12  14
ENDBRANCH   5   8
BRANCH   1  20
ATOM     19  N   UNL     1      30.427  23.128  21.242  0.00  0.00    -0.329 N 
ATOM     20  C   UNL     1      31.446  22.367  21.734  0.00  0.00    +0.215 C 
ATOM     21  O   UNL     1      31.610  22.265  22.940  0.00  0.00    -0.276 OA
ATOM     22  H   UNL     1      29.839  23.609  21.911  0.00  0.00    +0.145 HD
ATOM     23  H   UNL     1      30.288  23.305  20.257  0.00  0.00    +0.145 HD
ENDBRANCH   1  20
TORSDOF 4
ENDMDL
MODEL 9
REMARK VINA RESULT:      -6.0      1.686      3.235
REMARK  Name = ZINC000826139982
REMARK  4 active torsions:
REMARK  status: ('A' for Active; 'I' for Inactive)
REMARK    1  A    between atoms: C_2  and  C_4
REMARK    2  A    between atoms: C_8  and  C_10
REMARK    3  A    between atoms: C_14  and  S_15
REMARK    4  A    between atoms: S_15  and  C_16
REMARK                            x       y       z     vdW  Elec       q    Type
REMARK                         _______ _______ _______ _____ _____    ______ ____
ROOT
ATOM      1  C   UNL     1      27.296  20.929  17.616  0.00  0.00    +0.093 C 
ATOM      2  C   UNL     1      27.938  21.392  18.929  0.00  0.00    +0.033 C 
ATOM      3  C   UNL     1      29.296  21.960  18.537  0.00  0.00    +0.109 C 
ATOM      4  N   UNL     1      29.641  21.248  17.324  0.00  0.00    -0.297 N 
ATOM      5  C   UNL     1      30.964  21.070  16.938  0.00  0.00    +0.247 C 
ATOM      6  O   UNL     1      31.897  21.436  17.653  0.00  0.00    -0.270 OA
ATOM      7  C   UNL     1      28.426  20.927  16.593  0.00  0.00    +0.120 C 
ENDROOT
BRANCH   5   8
ATOM      8  C   UNL     1      31.305  20.355  15.664  0.00  0.00    +0.038 A 
ATOM      9  C   UNL     1      31.373  20.988  14.419  0.00  0.00    +0.013 A 
ATOM     10  C   UNL     1      31.572  20.254  13.250  0.00  0.00    +0.002 A 
ATOM     11  C   UNL     1      31.811  18.886  13.323  0.00  0.00    +0.015 A 
ATOM     12  C   UNL     1      31.886  18.253  14.567  0.00  0.00    +0.017 A 
ATOM     13  C   UNL     1      31.597  18.982  15.729  0.00  0.00    +0.028 A 
BRANCH  12  14
ATOM     14  S   UNL     1      32.304  16.525  14.684  0.00  0.00    -0.016 S 
BRANCH  14  15
ATOM     15  C   UNL     1      31.409  15.851  13.269  0.00  0.00    +0.448 C 
ATOM     16  F   UNL     1      31.503  14.506  13.147  0.00  0.00    -0.160 F 
ATOM     17  F   UNL     1      30.090  16.151  13.345  0.00  0.00    -0.160 F 
ATOM     18  F   UNL     1      31.873  16.386  12.113  0.00  0.00    -0.160 F 
ENDBRANCH  14  15
ENDBRANCH  12  14
ENDBRANCH   5   8
BRANCH   1  20
ATOM     19  N   UNL     1      25.542  22.525  18.142  0.00  0.00    -0.329 N 
ATOM     20  C   UNL     1      26.118  21.771  17.163  0.00  0.00    +0.215 C 
ATOM     21  O   UNL     1      25.645  21.761  16.036  0.00  0.00    -0.276 OA
ATOM     22  H   UNL     1      24.710  23.048  17.899  0.00  0.00    +0.145 HD
ATOM     23  H   UNL     1      25.847  22.516  19.105  0.00  0.00    +0.145 HD
ENDBRANCH   1  20
TORSDOF 4
ENDMDL
