MODEL 1
REMARK VINA RESULT:      -7.5      0.000      0.000
REMARK  Name = ZINC000543478179
REMARK  8 active torsions:
REMARK  status: ('A' for Active; 'I' for Inactive)
REMARK    1  A    between atoms: C_1  and  C_2
REMARK    2  A    between atoms: C_2  and  N_3
REMARK    3  A    between atoms: N_9  and  C_10
REMARK    4  A    between atoms: C_10  and  C_11
REMARK    5  A    between atoms: C_10  and  C_12
REMARK    6  A    between atoms: C_15  and  O_16
REMARK    7  A    between atoms: O_16  and  C_17
REMARK    8  A    between atoms: C_17  and  C_18
REMARK                            x       y       z     vdW  Elec       q    Type
REMARK                         _______ _______ _______ _____ _____    ______ ____
ROOT
ATOM      1  C   UNL     1      11.260   5.644   7.942  0.00  0.00    +0.102 C 
ATOM      2  C   UNL     1       9.845   6.074   7.548  0.00  0.00    +0.033 C 
ENDROOT
BRANCH   1   9
ATOM      3  N   UNL     1      15.560   2.515   6.796  0.00  0.00    -0.299 N 
ATOM      4  C   UNL     1      16.165   3.810   6.488  0.00  0.00    +0.127 C 
ATOM      5  C   UNL     1      15.204   4.717   5.715  0.00  0.00    +0.129 C 
ATOM      6  N   UNL     1      13.961   4.905   6.469  0.00  0.00    -0.275 N 
ATOM      7  C   UNL     1      13.435   6.160   6.585  0.00  0.00    +0.303 C 
ATOM      8  O   UNL     1      13.994   7.142   6.086  0.00  0.00    -0.253 OA
ATOM      9  N   UNL     1      12.291   6.418   7.257  0.00  0.00    -0.293 N 
ATOM     10  C   UNL     1      13.394   3.682   7.017  0.00  0.00    +0.205 C 
ATOM     11  C   UNL     1      14.195   2.381   6.952  0.00  0.00    +0.233 C 
ATOM     12  O   UNL     1      13.638   1.301   7.163  0.00  0.00    -0.274 OA
ATOM     13  H   UNL     1      12.119   7.415   7.222  0.00  0.00    +0.151 HD
BRANCH   3  15
ATOM     14  C   UNL     1      17.367   1.548   8.133  0.00  0.00    +0.024 C 
ATOM     15  C   UNL     1      16.407   1.351   6.974  0.00  0.00    +0.104 C 
ENDBRANCH   3  15
ENDBRANCH   1   9
BRANCH   1  16
ATOM     16  C   UNL     1      11.478   5.701   9.443  0.00  0.00    -0.024 A 
ATOM     17  C   UNL     1      10.473   6.139  10.315  0.00  0.00    +0.009 A 
ATOM     18  C   UNL     1      10.698   6.205  11.690  0.00  0.00    +0.049 A 
ATOM     19  C   UNL     1      11.952   5.872  12.222  0.00  0.00    +0.156 A 
ATOM     20  C   UNL     1      12.938   5.400  11.359  0.00  0.00    +0.165 A 
ATOM     21  F   UNL     1      14.138   5.032  11.834  0.00  0.00    -0.202 F 
ATOM     22  C   UNL     1      12.718   5.324   9.985  0.00  0.00    +0.047 A 
BRANCH  19  23
ATOM     23  O   UNL     1      12.284   5.984  13.543  0.00  0.00    -0.489 OA
BRANCH  23  24
ATOM     24  C   UNL     1      12.187   4.773  14.293  0.00  0.00    +0.232 C 
BRANCH  24  25
ATOM     25  C   UNL     1      13.470   4.541  15.027  0.00  0.00    +0.027 C 
ATOM     26  C   UNL     1      14.345   3.378  14.631  0.00  0.00    +0.007 C 
ATOM     27  C   UNL     1      13.616   3.354  15.946  0.00  0.00    +0.007 C 
ENDBRANCH  24  25
ENDBRANCH  23  24
ENDBRANCH  19  23
ENDBRANCH   1  16
TORSDOF 6
ENDMDL
MODEL 2
REMARK VINA RESULT:      -7.1     23.398     24.630
REMARK  Name = ZINC000543478179
REMARK  8 active torsions:
REMARK  status: ('A' for Active; 'I' for Inactive)
REMARK    1  A    between atoms: C_1  and  C_2
REMARK    2  A    between atoms: C_2  and  N_3
REMARK    3  A    between atoms: N_9  and  C_10
REMARK    4  A    between atoms: C_10  and  C_11
REMARK    5  A    between atoms: C_10  and  C_12
REMARK    6  A    between atoms: C_15  and  O_16
REMARK    7  A    between atoms: O_16  and  C_17
REMARK    8  A    between atoms: C_17  and  C_18
REMARK                            x       y       z     vdW  Elec       q    Type
REMARK                         _______ _______ _______ _____ _____    ______ ____
ROOT
ATOM      1  C   UNL     1      29.082  20.734  16.873  0.00  0.00    +0.102 C 
ATOM      2  C   UNL     1      27.716  20.838  17.554  0.00  0.00    +0.033 C 
ENDROOT
BRANCH   1   9
ATOM      3  N   UNL     1      32.835  23.415  13.988  0.00  0.00    -0.299 N 
ATOM      4  C   UNL     1      33.597  23.272  15.228  0.00  0.00    +0.127 C 
ATOM      5  C   UNL     1      32.732  23.541  16.462  0.00  0.00    +0.129 C 
ATOM      6  N   UNL     1      31.570  22.647  16.476  0.00  0.00    -0.275 N 
ATOM      7  C   UNL     1      31.232  22.012  17.637  0.00  0.00    +0.303 C 
ATOM      8  O   UNL     1      31.894  22.159  18.669  0.00  0.00    -0.253 OA
ATOM      9  N   UNL     1      30.173  21.178  17.736  0.00  0.00    -0.293 N 
ATOM     10  C   UNL     1      30.869  22.547  15.205  0.00  0.00    +0.205 C 
ATOM     11  C   UNL     1      31.475  23.180  13.953  0.00  0.00    +0.233 C 
ATOM     12  O   UNL     1      30.785  23.336  12.942  0.00  0.00    -0.274 OA
ATOM     13  H   UNL     1      30.140  20.816  18.681  0.00  0.00    +0.151 HD
BRANCH   3  15
ATOM     14  C   UNL     1      35.007  23.498  12.865  0.00  0.00    +0.024 C 
ATOM     15  C   UNL     1      33.519  23.779  12.762  0.00  0.00    +0.104 C 
ENDBRANCH   3  15
ENDBRANCH   1   9
BRANCH   1  16
ATOM     16  C   UNL     1      29.361  19.331  16.364  0.00  0.00    -0.024 A 
ATOM     17  C   UNL     1      28.792  18.204  16.968  0.00  0.00    +0.009 A 
ATOM     18  C   UNL     1      29.076  16.920  16.499  0.00  0.00    +0.049 A 
ATOM     19  C   UNL     1      29.971  16.734  15.437  0.00  0.00    +0.156 A 
ATOM     20  C   UNL     1      30.507  17.857  14.812  0.00  0.00    +0.165 A 
ATOM     21  F   UNL     1      31.336  17.721  13.765  0.00  0.00    -0.202 F 
ATOM     22  C   UNL     1      30.222  19.142  15.270  0.00  0.00    +0.047 A 
BRANCH  19  23
ATOM     23  O   UNL     1      30.367  15.513  14.968  0.00  0.00    -0.489 OA
BRANCH  23  24
ATOM     24  C   UNL     1      29.405  14.837  14.158  0.00  0.00    +0.232 C 
BRANCH  24  25
ATOM     25  C   UNL     1      29.604  15.220  12.726  0.00  0.00    +0.027 C 
ATOM     26  C   UNL     1      29.345  14.199  11.647  0.00  0.00    +0.007 C 
ATOM     27  C   UNL     1      30.753  14.644  11.937  0.00  0.00    +0.007 C 
ENDBRANCH  24  25
ENDBRANCH  23  24
ENDBRANCH  19  23
ENDBRANCH   1  16
TORSDOF 6
ENDMDL
MODEL 3
REMARK VINA RESULT:      -6.9     21.816     22.795
REMARK  Name = ZINC000543478179
REMARK  8 active torsions:
REMARK  status: ('A' for Active; 'I' for Inactive)
REMARK    1  A    between atoms: C_1  and  C_2
REMARK    2  A    between atoms: C_2  and  N_3
REMARK    3  A    between atoms: N_9  and  C_10
REMARK    4  A    between atoms: C_10  and  C_11
REMARK    5  A    between atoms: C_10  and  C_12
REMARK    6  A    between atoms: C_15  and  O_16
REMARK    7  A    between atoms: O_16  and  C_17
REMARK    8  A    between atoms: C_17  and  C_18
REMARK                            x       y       z     vdW  Elec       q    Type
REMARK                         _______ _______ _______ _____ _____    ______ ____
ROOT
ATOM      1  C   UNL     1      29.877  15.330  14.697  0.00  0.00    +0.102 C 
ATOM      2  C   UNL     1      28.665  14.476  15.074  0.00  0.00    +0.033 C 
ENDROOT
BRANCH   1   9
ATOM      3  N   UNL     1      35.189  15.668  13.572  0.00  0.00    -0.299 N 
ATOM      4  C   UNL     1      34.680  15.961  12.233  0.00  0.00    +0.127 C 
ATOM      5  C   UNL     1      33.513  15.045  11.855  0.00  0.00    +0.129 C 
ATOM      6  N   UNL     1      32.435  15.158  12.842  0.00  0.00    -0.275 N 
ATOM      7  C   UNL     1      31.145  15.283  12.410  0.00  0.00    +0.303 C 
ATOM      8  O   UNL     1      30.869  15.324  11.207  0.00  0.00    -0.253 OA
ATOM      9  N   UNL     1      30.095  15.385  13.254  0.00  0.00    -0.293 N 
ATOM     10  C   UNL     1      32.875  15.103  14.228  0.00  0.00    +0.205 C 
ATOM     11  C   UNL     1      34.369  15.140  14.550  0.00  0.00    +0.233 C 
ATOM     12  O   UNL     1      34.767  14.832  15.676  0.00  0.00    -0.274 OA
ATOM     13  H   UNL     1      29.252  15.490  12.702  0.00  0.00    +0.151 HD
BRANCH   3  15
ATOM     14  C   UNL     1      36.745  17.428  14.255  0.00  0.00    +0.024 C 
ATOM     15  C   UNL     1      36.572  15.963  13.896  0.00  0.00    +0.104 C 
ENDBRANCH   3  15
ENDBRANCH   1   9
BRANCH   1  16
ATOM     16  C   UNL     1      29.784  16.735  15.263  0.00  0.00    -0.024 A 
ATOM     17  C   UNL     1      29.116  17.001  16.464  0.00  0.00    +0.009 A 
ATOM     18  C   UNL     1      29.024  18.303  16.959  0.00  0.00    +0.049 A 
ATOM     19  C   UNL     1      29.564  19.377  16.238  0.00  0.00    +0.156 A 
ATOM     20  C   UNL     1      30.262  19.107  15.064  0.00  0.00    +0.165 A 
ATOM     21  F   UNL     1      30.830  20.104  14.366  0.00  0.00    -0.202 F 
ATOM     22  C   UNL     1      30.365  17.809  14.568  0.00  0.00    +0.047 A 
BRANCH  19  23
ATOM     23  O   UNL     1      29.450  20.688  16.606  0.00  0.00    -0.489 OA
BRANCH  23  24
ATOM     24  C   UNL     1      28.280  21.350  16.124  0.00  0.00    +0.232 C 
BRANCH  24  25
ATOM     25  C   UNL     1      27.255  21.403  17.212  0.00  0.00    +0.027 C 
ATOM     26  C   UNL     1      26.109  20.423  17.193  0.00  0.00    +0.007 C 
ATOM     27  C   UNL     1      25.855  21.879  16.916  0.00  0.00    +0.007 C 
ENDBRANCH  24  25
ENDBRANCH  23  24
ENDBRANCH  19  23
ENDBRANCH   1  16
TORSDOF 6
ENDMDL
MODEL 4
REMARK VINA RESULT:      -6.9     23.846     25.085
REMARK  Name = ZINC000543478179
REMARK  8 active torsions:
REMARK  status: ('A' for Active; 'I' for Inactive)
REMARK    1  A    between atoms: C_1  and  C_2
REMARK    2  A    between atoms: C_2  and  N_3
REMARK    3  A    between atoms: N_9  and  C_10
REMARK    4  A    between atoms: C_10  and  C_11
REMARK    5  A    between atoms: C_10  and  C_12
REMARK    6  A    between atoms: C_15  and  O_16
REMARK    7  A    between atoms: O_16  and  C_17
REMARK    8  A    between atoms: C_17  and  C_18
REMARK                            x       y       z     vdW  Elec       q    Type
REMARK                         _______ _______ _______ _____ _____    ______ ____
ROOT
ATOM      1  C   UNL     1      28.749  21.534  16.617  0.00  0.00    +0.102 C 
ATOM      2  C   UNL     1      27.231  21.646  16.775  0.00  0.00    +0.033 C 
ENDROOT
BRANCH   1   9
ATOM      3  N   UNL     1      33.622  23.558  15.297  0.00  0.00    -0.299 N 
ATOM      4  C   UNL     1      33.825  23.473  16.742  0.00  0.00    +0.127 C 
ATOM      5  C   UNL     1      32.591  23.943  17.518  0.00  0.00    +0.129 C 
ATOM      6  N   UNL     1      31.413  23.164  17.124  0.00  0.00    -0.275 N 
ATOM      7  C   UNL     1      30.578  22.683  18.091  0.00  0.00    +0.303 C 
ATOM      8  O   UNL     1      30.805  22.871  19.291  0.00  0.00    -0.253 OA
ATOM      9  N   UNL     1      29.469  21.963  17.813  0.00  0.00    -0.293 N 
ATOM     10  C   UNL     1      31.249  23.000  15.687  0.00  0.00    +0.205 C 
ATOM     11  C   UNL     1      32.363  23.446  14.742  0.00  0.00    +0.233 C 
ATOM     12  O   UNL     1      32.141  23.562  13.534  0.00  0.00    -0.274 OA
ATOM     13  H   UNL     1      29.030  21.701  18.687  0.00  0.00    +0.151 HD
BRANCH   3  15
ATOM     14  C   UNL     1      35.850  24.552  15.097  0.00  0.00    +0.024 C 
ATOM     15  C   UNL     1      34.766  23.733  14.421  0.00  0.00    +0.104 C 
ENDBRANCH   3  15
ENDBRANCH   1   9
BRANCH   1  16
ATOM     16  C   UNL     1      29.181  20.133  16.224  0.00  0.00    -0.024 A 
ATOM     17  C   UNL     1      29.996  19.900  15.110  0.00  0.00    +0.009 A 
ATOM     18  C   UNL     1      30.366  18.603  14.752  0.00  0.00    +0.049 A 
ATOM     19  C   UNL     1      29.894  17.503  15.480  0.00  0.00    +0.156 A 
ATOM     20  C   UNL     1      29.115  17.737  16.611  0.00  0.00    +0.165 A 
ATOM     21  F   UNL     1      28.677  16.712  17.359  0.00  0.00    -0.202 F 
ATOM     22  C   UNL     1      28.748  19.030  16.979  0.00  0.00    +0.047 A 
BRANCH  19  23
ATOM     23  O   UNL     1      30.139  16.199  15.154  0.00  0.00    -0.489 OA
BRANCH  23  24
ATOM     24  C   UNL     1      30.673  15.995  13.846  0.00  0.00    +0.232 C 
BRANCH  24  25
ATOM     25  C   UNL     1      29.979  14.838  13.201  0.00  0.00    +0.027 C 
ATOM     26  C   UNL     1      30.377  14.423  11.807  0.00  0.00    +0.007 C 
ATOM     27  C   UNL     1      29.037  15.063  12.045  0.00  0.00    +0.007 C 
ENDBRANCH  24  25
ENDBRANCH  23  24
ENDBRANCH  19  23
ENDBRANCH   1  16
TORSDOF 6
ENDMDL
MODEL 5
REMARK VINA RESULT:      -6.9     23.848     25.358
REMARK  Name = ZINC000543478179
REMARK  8 active torsions:
REMARK  status: ('A' for Active; 'I' for Inactive)
REMARK    1  A    between atoms: C_1  and  C_2
REMARK    2  A    between atoms: C_2  and  N_3
REMARK    3  A    between atoms: N_9  and  C_10
REMARK    4  A    between atoms: C_10  and  C_11
REMARK    5  A    between atoms: C_10  and  C_12
REMARK    6  A    between atoms: C_15  and  O_16
REMARK    7  A    between atoms: O_16  and  C_17
REMARK    8  A    between atoms: C_17  and  C_18
REMARK                            x       y       z     vdW  Elec       q    Type
REMARK                         _______ _______ _______ _____ _____    ______ ____
ROOT
ATOM      1  C   UNL     1      30.495  20.863  15.041  0.00  0.00    +0.102 C 
ATOM      2  C   UNL     1      29.840  21.535  13.832  0.00  0.00    +0.033 C 
ENDROOT
BRANCH   1   9
ATOM      3  N   UNL     1      33.372  23.339  18.937  0.00  0.00    -0.299 N 
ATOM      4  C   UNL     1      32.250  22.899  19.764  0.00  0.00    +0.127 C 
ATOM      5  C   UNL     1      30.907  23.110  19.060  0.00  0.00    +0.129 C 
ATOM      6  N   UNL     1      30.891  22.412  17.771  0.00  0.00    -0.275 N 
ATOM      7  C   UNL     1      29.797  21.670  17.428  0.00  0.00    +0.303 C 
ATOM      8  O   UNL     1      28.830  21.557  18.188  0.00  0.00    -0.253 OA
ATOM      9  N   UNL     1      29.700  21.002  16.258  0.00  0.00    -0.293 N 
ATOM     10  C   UNL     1      32.083  22.610  16.960  0.00  0.00    +0.205 C 
ATOM     11  C   UNL     1      33.295  23.324  17.559  0.00  0.00    +0.233 C 
ATOM     12  O   UNL     1      34.198  23.732  16.824  0.00  0.00    -0.274 OA
ATOM     13  H   UNL     1      28.814  20.512  16.242  0.00  0.00    +0.151 HD
BRANCH   3  15
ATOM     14  C   UNL     1      34.365  24.165  21.016  0.00  0.00    +0.024 C 
ATOM     15  C   UNL     1      34.604  23.773  19.569  0.00  0.00    +0.104 C 
ENDBRANCH   3  15
ENDBRANCH   1   9
BRANCH   1  16
ATOM     16  C   UNL     1      30.801  19.399  14.784  0.00  0.00    -0.024 A 
ATOM     17  C   UNL     1      31.902  19.001  14.016  0.00  0.00    +0.009 A 
ATOM     18  C   UNL     1      32.156  17.651  13.774  0.00  0.00    +0.049 A 
ATOM     19  C   UNL     1      31.286  16.666  14.262  0.00  0.00    +0.156 A 
ATOM     20  C   UNL     1      30.213  17.059  15.058  0.00  0.00    +0.165 A 
ATOM     21  F   UNL     1      29.381  16.143  15.578  0.00  0.00    -0.202 F 
ATOM     22  C   UNL     1      29.958  18.405  15.310  0.00  0.00    +0.047 A 
BRANCH  19  23
ATOM     23  O   UNL     1      31.413  15.329  14.005  0.00  0.00    -0.489 OA
BRANCH  23  24
ATOM     24  C   UNL     1      31.605  14.995  12.631  0.00  0.00    +0.232 C 
BRANCH  24  25
ATOM     25  C   UNL     1      30.303  15.112  11.905  0.00  0.00    +0.027 C 
ATOM     26  C   UNL     1      29.051  14.566  12.544  0.00  0.00    +0.007 C 
ATOM     27  C   UNL     1      29.635  13.885  11.337  0.00  0.00    +0.007 C 
ENDBRANCH  24  25
ENDBRANCH  23  24
ENDBRANCH  19  23
ENDBRANCH   1  16
TORSDOF 6
ENDMDL
MODEL 6
REMARK VINA RESULT:      -6.7      3.638      6.878
REMARK  Name = ZINC000543478179
REMARK  8 active torsions:
REMARK  status: ('A' for Active; 'I' for Inactive)
REMARK    1  A    between atoms: C_1  and  C_2
REMARK    2  A    between atoms: C_2  and  N_3
REMARK    3  A    between atoms: N_9  and  C_10
REMARK    4  A    between atoms: C_10  and  C_11
REMARK    5  A    between atoms: C_10  and  C_12
REMARK    6  A    between atoms: C_15  and  O_16
REMARK    7  A    between atoms: O_16  and  C_17
REMARK    8  A    between atoms: C_17  and  C_18
REMARK                            x       y       z     vdW  Elec       q    Type
REMARK                         _______ _______ _______ _____ _____    ______ ____
ROOT
ATOM      1  C   UNL     1      11.570   5.522   7.903  0.00  0.00    +0.102 C 
ATOM      2  C   UNL     1      10.892   4.802   9.071  0.00  0.00    +0.033 C 
ENDROOT
BRANCH   1   9
ATOM      3  N   UNL     1      16.759   4.030   8.565  0.00  0.00    -0.299 N 
ATOM      4  C   UNL     1      16.567   3.497   7.217  0.00  0.00    +0.127 C 
ATOM      5  C   UNL     1      15.212   2.799   7.070  0.00  0.00    +0.129 C 
ATOM      6  N   UNL     1      14.123   3.720   7.411  0.00  0.00    -0.275 N 
ATOM      7  C   UNL     1      13.029   3.788   6.597  0.00  0.00    +0.303 C 
ATOM      8  O   UNL     1      12.945   3.108   5.569  0.00  0.00    -0.253 OA
ATOM      9  N   UNL     1      11.981   4.604   6.843  0.00  0.00    -0.293 N 
ATOM     10  C   UNL     1      14.331   4.474   8.638  0.00  0.00    +0.205 C 
ATOM     11  C   UNL     1      15.686   4.416   9.342  0.00  0.00    +0.233 C 
ATOM     12  O   UNL     1      15.799   4.824  10.501  0.00  0.00    -0.274 OA
ATOM     13  H   UNL     1      11.308   4.495   6.094  0.00  0.00    +0.151 HD
BRANCH   3  15
ATOM     14  C   UNL     1      18.839   2.862   9.109  0.00  0.00    +0.024 C 
ATOM     15  C   UNL     1      18.103   4.189   9.089  0.00  0.00    +0.104 C 
ENDBRANCH   3  15
ENDBRANCH   1   9
BRANCH   1  16
ATOM     16  C   UNL     1      10.700   6.624   7.327  0.00  0.00    -0.024 A 
ATOM     17  C   UNL     1       9.305   6.596   7.445  0.00  0.00    +0.009 A 
ATOM     18  C   UNL     1       8.519   7.608   6.892  0.00  0.00    +0.049 A 
ATOM     19  C   UNL     1       9.112   8.653   6.170  0.00  0.00    +0.156 A 
ATOM     20  C   UNL     1      10.501   8.702   6.086  0.00  0.00    +0.165 A 
ATOM     21  F   UNL     1      11.108   9.709   5.439  0.00  0.00    -0.202 F 
ATOM     22  C   UNL     1      11.292   7.699   6.643  0.00  0.00    +0.047 A 
BRANCH  19  23
ATOM     23  O   UNL     1       8.416   9.639   5.529  0.00  0.00    -0.489 OA
BRANCH  23  24
ATOM     24  C   UNL     1       7.369   9.179   4.673  0.00  0.00    +0.232 C 
BRANCH  24  25
ATOM     25  C   UNL     1       7.965   8.581   3.438  0.00  0.00    +0.027 C 
ATOM     26  C   UNL     1       8.814   9.443   2.538  0.00  0.00    +0.007 C 
ATOM     27  C   UNL     1       7.458   8.985   2.077  0.00  0.00    +0.007 C 
ENDBRANCH  24  25
ENDBRANCH  23  24
ENDBRANCH  19  23
ENDBRANCH   1  16
TORSDOF 6
ENDMDL
MODEL 7
REMARK VINA RESULT:      -6.6      3.740      7.085
REMARK  Name = ZINC000543478179
REMARK  8 active torsions:
REMARK  status: ('A' for Active; 'I' for Inactive)
REMARK    1  A    between atoms: C_1  and  C_2
REMARK    2  A    between atoms: C_2  and  N_3
REMARK    3  A    between atoms: N_9  and  C_10
REMARK    4  A    between atoms: C_10  and  C_11
REMARK    5  A    between atoms: C_10  and  C_12
REMARK    6  A    between atoms: C_15  and  O_16
REMARK    7  A    between atoms: O_16  and  C_17
REMARK    8  A    between atoms: C_17  and  C_18
REMARK                            x       y       z     vdW  Elec       q    Type
REMARK                         _______ _______ _______ _____ _____    ______ ____
ROOT
ATOM      1  C   UNL     1      12.226   6.194   8.575  0.00  0.00    +0.102 C 
ATOM      2  C   UNL     1      11.832   6.316  10.049  0.00  0.00    +0.033 C 
ENDROOT
BRANCH   1   9
ATOM      3  N   UNL     1      17.290   4.244   8.954  0.00  0.00    -0.299 N 
ATOM      4  C   UNL     1      16.713   3.153   8.171  0.00  0.00    +0.127 C 
ATOM      5  C   UNL     1      15.322   2.762   8.680  0.00  0.00    +0.129 C 
ATOM      6  N   UNL     1      14.428   3.924   8.667  0.00  0.00    -0.275 N 
ATOM      7  C   UNL     1      13.165   3.788   8.166  0.00  0.00    +0.303 C 
ATOM      8  O   UNL     1      12.767   2.713   7.705  0.00  0.00    -0.253 OA
ATOM      9  N   UNL     1      12.278   4.806   8.123  0.00  0.00    -0.293 N 
ATOM     10  C   UNL     1      15.004   5.137   9.228  0.00  0.00    +0.205 C 
ATOM     11  C   UNL     1      16.489   5.175   9.585  0.00  0.00    +0.233 C 
ATOM     12  O   UNL     1      16.932   6.081  10.296  0.00  0.00    -0.274 OA
ATOM     13  H   UNL     1      11.426   4.469   7.692  0.00  0.00    +0.151 HD
BRANCH   3  15
ATOM     14  C   UNL     1      19.378   3.046   9.392  0.00  0.00    +0.024 C 
ATOM     15  C   UNL     1      18.732   4.376   9.049  0.00  0.00    +0.104 C 
ENDBRANCH   3  15
ENDBRANCH   1   9
BRANCH   1  16
ATOM     16  C   UNL     1      11.312   7.001   7.670  0.00  0.00    -0.024 A 
ATOM     17  C   UNL     1      11.806   8.020   6.848  0.00  0.00    +0.009 A 
ATOM     18  C   UNL     1      10.948   8.766   6.038  0.00  0.00    +0.049 A 
ATOM     19  C   UNL     1       9.566   8.533   6.065  0.00  0.00    +0.156 A 
ATOM     20  C   UNL     1       9.080   7.494   6.853  0.00  0.00    +0.165 A 
ATOM     21  F   UNL     1       7.767   7.213   6.875  0.00  0.00    -0.202 F 
ATOM     22  C   UNL     1       9.932   6.740   7.659  0.00  0.00    +0.047 A 
BRANCH  19  23
ATOM     23  O   UNL     1       8.647   9.267   5.368  0.00  0.00    -0.489 OA
BRANCH  23  24
ATOM     24  C   UNL     1       8.965   9.482   3.993  0.00  0.00    +0.232 C 
BRANCH  24  25
ATOM     25  C   UNL     1       7.729   9.322   3.166  0.00  0.00    +0.027 C 
ATOM     26  C   UNL     1       7.003   8.000   3.175  0.00  0.00    +0.007 C 
ATOM     27  C   UNL     1       7.741   8.442   1.941  0.00  0.00    +0.007 C 
ENDBRANCH  24  25
ENDBRANCH  23  24
ENDBRANCH  19  23
ENDBRANCH   1  16
TORSDOF 6
ENDMDL
MODEL 8
REMARK VINA RESULT:      -6.5     21.232     22.272
REMARK  Name = ZINC000543478179
REMARK  8 active torsions:
REMARK  status: ('A' for Active; 'I' for Inactive)
REMARK    1  A    between atoms: C_1  and  C_2
REMARK    2  A    between atoms: C_2  and  N_3
REMARK    3  A    between atoms: N_9  and  C_10
REMARK    4  A    between atoms: C_10  and  C_11
REMARK    5  A    between atoms: C_10  and  C_12
REMARK    6  A    between atoms: C_15  and  O_16
REMARK    7  A    between atoms: O_16  and  C_17
REMARK    8  A    between atoms: C_17  and  C_18
REMARK                            x       y       z     vdW  Elec       q    Type
REMARK                         _______ _______ _______ _____ _____    ______ ____
ROOT
ATOM      1  C   UNL     1      30.885  14.879  12.347  0.00  0.00    +0.102 C 
ATOM      2  C   UNL     1      29.760  14.211  11.552  0.00  0.00    +0.033 C 
ENDROOT
BRANCH   1   9
ATOM      3  N   UNL     1      36.083  13.279  12.320  0.00  0.00    -0.299 N 
ATOM      4  C   UNL     1      36.272  14.587  11.695  0.00  0.00    +0.127 C 
ATOM      5  C   UNL     1      35.187  14.883  10.656  0.00  0.00    +0.129 C 
ATOM      6  N   UNL     1      33.858  14.800  11.268  0.00  0.00    -0.275 N 
ATOM      7  C   UNL     1      32.942  15.779  11.006  0.00  0.00    +0.303 C 
ATOM      8  O   UNL     1      33.216  16.742  10.283  0.00  0.00    -0.253 OA
ATOM      9  N   UNL     1      31.694  15.775  11.525  0.00  0.00    -0.293 N 
ATOM     10  C   UNL     1      33.648  13.629  12.105  0.00  0.00    +0.205 C 
ATOM     11  C   UNL     1      34.828  12.717  12.441  0.00  0.00    +0.233 C 
ATOM     12  O   UNL     1      34.629  11.596  12.916  0.00  0.00    -0.274 OA
ATOM     13  H   UNL     1      31.214  16.608  11.207  0.00  0.00    +0.151 HD
BRANCH   3  15
ATOM     14  C   UNL     1      38.027  13.447  13.798  0.00  0.00    +0.024 C 
ATOM     15  C   UNL     1      37.229  12.566  12.854  0.00  0.00    +0.104 C 
ENDBRANCH   3  15
ENDBRANCH   1   9
BRANCH   1  16
ATOM     16  C   UNL     1      30.362  15.621  13.563  0.00  0.00    -0.024 A 
ATOM     17  C   UNL     1      30.872  16.870  13.938  0.00  0.00    +0.009 A 
ATOM     18  C   UNL     1      30.393  17.528  15.072  0.00  0.00    +0.049 A 
ATOM     19  C   UNL     1      29.418  16.930  15.882  0.00  0.00    +0.156 A 
ATOM     20  C   UNL     1      28.884  15.706  15.488  0.00  0.00    +0.165 A 
ATOM     21  F   UNL     1      27.919  15.119  16.214  0.00  0.00    -0.202 F 
ATOM     22  C   UNL     1      29.352  15.046  14.353  0.00  0.00    +0.047 A 
BRANCH  19  23
ATOM     23  O   UNL     1      28.951  17.464  17.050  0.00  0.00    -0.489 OA
BRANCH  23  24
ATOM     24  C   UNL     1      29.253  18.846  17.243  0.00  0.00    +0.232 C 
BRANCH  24  25
ATOM     25  C   UNL     1      28.020  19.661  17.013  0.00  0.00    +0.027 C 
ATOM     26  C   UNL     1      28.150  21.045  16.430  0.00  0.00    +0.007 C 
ATOM     27  C   UNL     1      27.738  20.872  17.866  0.00  0.00    +0.007 C 
ENDBRANCH  24  25
ENDBRANCH  23  24
ENDBRANCH  19  23
ENDBRANCH   1  16
TORSDOF 6
ENDMDL
MODEL 9
REMARK VINA RESULT:      -6.5      1.654      2.031
REMARK  Name = ZINC000543478179
REMARK  8 active torsions:
REMARK  status: ('A' for Active; 'I' for Inactive)
REMARK    1  A    between atoms: C_1  and  C_2
REMARK    2  A    between atoms: C_2  and  N_3
REMARK    3  A    between atoms: N_9  and  C_10
REMARK    4  A    between atoms: C_10  and  C_11
REMARK    5  A    between atoms: C_10  and  C_12
REMARK    6  A    between atoms: C_15  and  O_16
REMARK    7  A    between atoms: O_16  and  C_17
REMARK    8  A    between atoms: C_17  and  C_18
REMARK                            x       y       z     vdW  Elec       q    Type
REMARK                         _______ _______ _______ _____ _____    ______ ____
ROOT
ATOM      1  C   UNL     1      11.046   5.781   7.610  0.00  0.00    +0.102 C 
ATOM      2  C   UNL     1       9.548   6.065   7.736  0.00  0.00    +0.033 C 
ENDROOT
BRANCH   1   9
ATOM      3  N   UNL     1      15.191   3.617   4.831  0.00  0.00    -0.299 N 
ATOM      4  C   UNL     1      15.531   5.025   4.635  0.00  0.00    +0.127 C 
ATOM      5  C   UNL     1      14.294   5.871   4.321  0.00  0.00    +0.129 C 
ATOM      6  N   UNL     1      13.297   5.733   5.387  0.00  0.00    -0.275 N 
ATOM      7  C   UNL     1      12.682   6.851   5.873  0.00  0.00    +0.303 C 
ATOM      8  O   UNL     1      12.961   7.977   5.448  0.00  0.00    -0.253 OA
ATOM      9  N   UNL     1      11.749   6.811   6.849  0.00  0.00    -0.293 N 
ATOM     10  C   UNL     1      13.052   4.364   5.813  0.00  0.00    +0.205 C 
ATOM     11  C   UNL     1      13.949   3.238   5.298  0.00  0.00    +0.233 C 
ATOM     12  O   UNL     1      13.603   2.061   5.431  0.00  0.00    -0.274 OA
ATOM     13  H   UNL     1      11.458   7.760   7.052  0.00  0.00    +0.151 HD
BRANCH   3  15
ATOM     14  C   UNL     1      16.340   2.369   3.067  0.00  0.00    +0.024 C 
ATOM     15  C   UNL     1      16.184   2.594   4.560  0.00  0.00    +0.104 C 
ENDBRANCH   3  15
ENDBRANCH   1   9
BRANCH   1  16
ATOM     16  C   UNL     1      11.708   5.593   8.963  0.00  0.00    -0.024 A 
ATOM     17  C   UNL     1      12.646   4.579   9.188  0.00  0.00    +0.009 A 
ATOM     18  C   UNL     1      13.228   4.408  10.445  0.00  0.00    +0.049 A 
ATOM     19  C   UNL     1      12.853   5.227  11.519  0.00  0.00    +0.156 A 
ATOM     20  C   UNL     1      11.949   6.260  11.285  0.00  0.00    +0.165 A 
ATOM     21  F   UNL     1      11.595   7.091  12.278  0.00  0.00    -0.202 F 
ATOM     22  C   UNL     1      11.369   6.441  10.031  0.00  0.00    +0.047 A 
BRANCH  19  23
ATOM     23  O   UNL     1      13.311   5.079  12.798  0.00  0.00    -0.489 OA
BRANCH  23  24
ATOM     24  C   UNL     1      12.325   4.672  13.747  0.00  0.00    +0.232 C 
BRANCH  24  25
ATOM     25  C   UNL     1      12.922   4.686  15.119  0.00  0.00    +0.027 C 
ATOM     26  C   UNL     1      14.304   4.118  15.327  0.00  0.00    +0.007 C 
ATOM     27  C   UNL     1      13.106   3.398  15.882  0.00  0.00    +0.007 C 
ENDBRANCH  24  25
ENDBRANCH  23  24
ENDBRANCH  19  23
ENDBRANCH   1  16
TORSDOF 6
ENDMDL
