MODEL 1
REMARK VINA RESULT:      -7.1      0.000      0.000
REMARK  Name = ZINC000583127796
REMARK  2 active torsions:
REMARK  status: ('A' for Active; 'I' for Inactive)
REMARK    1  A    between atoms: C_2  and  C_4
REMARK    2  A    between atoms: C_7  and  C_8
REMARK                            x       y       z     vdW  Elec       q    Type
REMARK                         _______ _______ _______ _____ _____    ______ ____
ROOT
ATOM      1  C   UNL     1      32.362  22.300  15.220  0.00  0.00    +0.247 C 
ATOM      2  O   UNL     1      33.323  21.608  15.562  0.00  0.00    -0.270 OA
ATOM      3  N   UNL     1      32.425  23.222  14.163  0.00  0.00    -0.297 N 
ATOM      4  C   UNL     1      31.341  24.085  13.690  0.00  0.00    +0.108 C 
ATOM      5  C   UNL     1      31.078  23.930  12.203  0.00  0.00    +0.020 C 
ATOM      6  C   UNL     1      32.356  24.043  11.392  0.00  0.00    +0.011 C 
ATOM      7  C   UNL     1      33.482  23.109  11.900  0.00  0.00    -0.004 C 
ATOM      8  C   UNL     1      34.742  23.440  11.072  0.00  0.00    +0.020 C 
ATOM      9  C   UNL     1      35.674  22.247  11.052  0.00  0.00    +0.070 C 
ATOM     10  S   UNL     1      34.575  20.834  10.874  0.00  0.00    -0.160 S 
ATOM     11  C   UNL     1      33.138  21.623  11.652  0.00  0.00    +0.077 C 
ATOM     12  C   UNL     1      33.691  23.359  13.417  0.00  0.00    +0.115 C 
ENDROOT
BRANCH   1  16
ATOM     13  C   UNL     1      28.489  21.880  16.995  0.00  0.00    +0.037 A 
ATOM     14  C   UNL     1      29.487  22.567  17.690  0.00  0.00    +0.014 A 
ATOM     15  C   UNL     1      30.786  22.609  17.179  0.00  0.00    +0.014 A 
ATOM     16  C   UNL     1      31.064  22.066  15.923  0.00  0.00    +0.037 A 
ATOM     17  C   UNL     1      30.088  21.295  15.275  0.00  0.00    +0.014 A 
ATOM     18  C   UNL     1      28.804  21.193  15.819  0.00  0.00    +0.014 A 
BRANCH  13  20
ATOM     19  N   UNL     1      26.882  22.227  18.787  0.00  0.00    -0.325 N 
ATOM     20  C   UNL     1      27.084  21.863  17.484  0.00  0.00    +0.242 C 
ATOM     21  O   UNL     1      26.152  21.590  16.747  0.00  0.00    -0.270 OA
ATOM     22  H   UNL     1      25.916  22.332  19.073  0.00  0.00    +0.145 HD
ATOM     23  H   UNL     1      27.580  22.723  19.324  0.00  0.00    +0.145 HD
ENDBRANCH  13  20
ENDBRANCH   1  16
TORSDOF 2
ENDMDL
MODEL 2
REMARK VINA RESULT:      -6.7      5.082      6.467
REMARK  Name = ZINC000583127796
REMARK  2 active torsions:
REMARK  status: ('A' for Active; 'I' for Inactive)
REMARK    1  A    between atoms: C_2  and  C_4
REMARK    2  A    between atoms: C_7  and  C_8
REMARK                            x       y       z     vdW  Elec       q    Type
REMARK                         _______ _______ _______ _____ _____    ______ ____
ROOT
ATOM      1  C   UNL     1      32.090  23.895  18.745  0.00  0.00    +0.247 C 
ATOM      2  O   UNL     1      32.120  25.125  18.817  0.00  0.00    -0.270 OA
ATOM      3  N   UNL     1      33.236  23.095  18.875  0.00  0.00    -0.297 N 
ATOM      4  C   UNL     1      33.296  21.634  18.800  0.00  0.00    +0.108 C 
ATOM      5  C   UNL     1      33.956  21.014  20.018  0.00  0.00    +0.020 C 
ATOM      6  C   UNL     1      35.287  21.671  20.331  0.00  0.00    +0.011 C 
ATOM      7  C   UNL     1      35.197  23.214  20.422  0.00  0.00    -0.004 C 
ATOM      8  C   UNL     1      36.638  23.736  20.603  0.00  0.00    +0.020 C 
ATOM      9  C   UNL     1      36.617  25.089  21.280  0.00  0.00    +0.070 C 
ATOM     10  S   UNL     1      35.333  24.935  22.531  0.00  0.00    -0.160 S 
ATOM     11  C   UNL     1      34.382  23.660  21.657  0.00  0.00    +0.077 C 
ATOM     12  C   UNL     1      34.533  23.752  19.127  0.00  0.00    +0.115 C 
ENDROOT
BRANCH   1  16
ATOM     13  C   UNL     1      28.159  22.335  18.081  0.00  0.00    +0.037 A 
ATOM     14  C   UNL     1      28.464  22.913  19.316  0.00  0.00    +0.014 A 
ATOM     15  C   UNL     1      29.772  23.317  19.589  0.00  0.00    +0.014 A 
ATOM     16  C   UNL     1      30.749  23.251  18.594  0.00  0.00    +0.037 A 
ATOM     17  C   UNL     1      30.466  22.584  17.394  0.00  0.00    +0.014 A 
ATOM     18  C   UNL     1      29.172  22.115  17.144  0.00  0.00    +0.014 A 
BRANCH  13  20
ATOM     19  N   UNL     1      25.800  22.238  18.663  0.00  0.00    -0.325 N 
ATOM     20  C   UNL     1      26.764  21.946  17.738  0.00  0.00    +0.242 C 
ATOM     21  O   UNL     1      26.485  21.441  16.664  0.00  0.00    -0.270 OA
ATOM     22  H   UNL     1      24.843  22.082  18.370  0.00  0.00    +0.145 HD
ATOM     23  H   UNL     1      25.952  22.897  19.414  0.00  0.00    +0.145 HD
ENDBRANCH  13  20
ENDBRANCH   1  16
TORSDOF 2
ENDMDL
MODEL 3
REMARK VINA RESULT:      -6.6      3.417      4.461
REMARK  Name = ZINC000583127796
REMARK  2 active torsions:
REMARK  status: ('A' for Active; 'I' for Inactive)
REMARK    1  A    between atoms: C_2  and  C_4
REMARK    2  A    between atoms: C_7  and  C_8
REMARK                            x       y       z     vdW  Elec       q    Type
REMARK                         _______ _______ _______ _____ _____    ______ ____
ROOT
ATOM      1  C   UNL     1      31.477  20.315  14.116  0.00  0.00    +0.247 C 
ATOM      2  O   UNL     1      32.029  21.069  13.312  0.00  0.00    -0.270 OA
ATOM      3  N   UNL     1      31.433  18.922  13.948  0.00  0.00    -0.297 N 
ATOM      4  C   UNL     1      30.801  17.952  14.845  0.00  0.00    +0.108 C 
ATOM      5  C   UNL     1      31.754  16.857  15.286  0.00  0.00    +0.020 C 
ATOM      6  C   UNL     1      32.472  16.229  14.106  0.00  0.00    +0.011 C 
ATOM      7  C   UNL     1      33.147  17.271  13.181  0.00  0.00    -0.004 C 
ATOM      8  C   UNL     1      33.706  16.496  11.968  0.00  0.00    +0.020 C 
ATOM      9  C   UNL     1      34.849  17.266  11.345  0.00  0.00    +0.070 C 
ATOM     10  S   UNL     1      35.759  17.919  12.753  0.00  0.00    -0.160 S 
ATOM     11  C   UNL     1      34.339  17.960  13.882  0.00  0.00    +0.077 C 
ATOM     12  C   UNL     1      32.091  18.330  12.767  0.00  0.00    +0.115 C 
ENDROOT
BRANCH   1  16
ATOM     13  C   UNL     1      29.779  22.386  17.456  0.00  0.00    +0.037 A 
ATOM     14  C   UNL     1      31.163  22.203  17.399  0.00  0.00    +0.014 A 
ATOM     15  C   UNL     1      31.719  21.427  16.379  0.00  0.00    +0.014 A 
ATOM     16  C   UNL     1      30.911  20.931  15.355  0.00  0.00    +0.037 A 
ATOM     17  C   UNL     1      29.517  21.032  15.467  0.00  0.00    +0.014 A 
ATOM     18  C   UNL     1      28.952  21.751  16.526  0.00  0.00    +0.014 A 
BRANCH  13  20
ATOM     19  N   UNL     1      27.898  22.920  18.901  0.00  0.00    -0.325 N 
ATOM     20  C   UNL     1      29.161  23.252  18.496  0.00  0.00    +0.242 C 
ATOM     21  O   UNL     1      29.769  24.181  19.001  0.00  0.00    -0.270 OA
ATOM     22  H   UNL     1      27.536  23.438  19.693  0.00  0.00    +0.145 HD
ATOM     23  H   UNL     1      27.492  22.012  18.717  0.00  0.00    +0.145 HD
ENDBRANCH  13  20
ENDBRANCH   1  16
TORSDOF 2
ENDMDL
MODEL 4
REMARK VINA RESULT:      -6.5      4.989      5.952
REMARK  Name = ZINC000583127796
REMARK  2 active torsions:
REMARK  status: ('A' for Active; 'I' for Inactive)
REMARK    1  A    between atoms: C_2  and  C_4
REMARK    2  A    between atoms: C_7  and  C_8
REMARK                            x       y       z     vdW  Elec       q    Type
REMARK                         _______ _______ _______ _____ _____    ______ ____
ROOT
ATOM      1  C   UNL     1      32.996  17.762  15.451  0.00  0.00    +0.247 C 
ATOM      2  O   UNL     1      33.022  17.001  16.421  0.00  0.00    -0.270 OA
ATOM      3  N   UNL     1      33.626  17.464  14.233  0.00  0.00    -0.297 N 
ATOM      4  C   UNL     1      33.651  18.303  13.033  0.00  0.00    +0.108 C 
ATOM      5  C   UNL     1      33.157  17.573  11.799  0.00  0.00    +0.020 C 
ATOM      6  C   UNL     1      33.845  16.231  11.627  0.00  0.00    +0.011 C 
ATOM      7  C   UNL     1      33.791  15.354  12.902  0.00  0.00    -0.004 C 
ATOM      8  C   UNL     1      34.644  14.099  12.616  0.00  0.00    +0.020 C 
ATOM      9  C   UNL     1      34.192  12.956  13.498  0.00  0.00    +0.070 C 
ATOM     10  S   UNL     1      32.398  13.091  13.510  0.00  0.00    -0.160 S 
ATOM     11  C   UNL     1      32.352  14.879  13.201  0.00  0.00    +0.077 C 
ATOM     12  C   UNL     1      34.337  16.178  14.098  0.00  0.00    +0.115 C 
ENDROOT
BRANCH   1  16
ATOM     13  C   UNL     1      30.596  21.231  16.178  0.00  0.00    +0.037 A 
ATOM     14  C   UNL     1      30.091  20.210  15.368  0.00  0.00    +0.014 A 
ATOM     15  C   UNL     1      30.907  19.130  15.025  0.00  0.00    +0.014 A 
ATOM     16  C   UNL     1      32.182  19.009  15.580  0.00  0.00    +0.037 A 
ATOM     17  C   UNL     1      32.719  20.078  16.311  0.00  0.00    +0.014 A 
ATOM     18  C   UNL     1      31.928  21.195  16.599  0.00  0.00    +0.014 A 
BRANCH  13  20
ATOM     19  N   UNL     1      29.578  23.390  15.715  0.00  0.00    -0.325 N 
ATOM     20  C   UNL     1      29.735  22.367  16.608  0.00  0.00    +0.242 C 
ATOM     21  O   UNL     1      29.156  22.362  17.681  0.00  0.00    -0.270 OA
ATOM     22  H   UNL     1      28.896  24.096  15.966  0.00  0.00    +0.145 HD
ATOM     23  H   UNL     1      29.803  23.292  14.734  0.00  0.00    +0.145 HD
ENDBRANCH  13  20
ENDBRANCH   1  16
TORSDOF 2
ENDMDL
MODEL 5
REMARK VINA RESULT:      -6.5      4.029      5.173
REMARK  Name = ZINC000583127796
REMARK  2 active torsions:
REMARK  status: ('A' for Active; 'I' for Inactive)
REMARK    1  A    between atoms: C_2  and  C_4
REMARK    2  A    between atoms: C_7  and  C_8
REMARK                            x       y       z     vdW  Elec       q    Type
REMARK                         _______ _______ _______ _____ _____    ______ ____
ROOT
ATOM      1  C   UNL     1      32.211  22.826  16.948  0.00  0.00    +0.247 C 
ATOM      2  O   UNL     1      32.433  23.407  15.884  0.00  0.00    -0.270 OA
ATOM      3  N   UNL     1      33.212  22.560  17.895  0.00  0.00    -0.297 N 
ATOM      4  C   UNL     1      33.042  21.876  19.179  0.00  0.00    +0.108 C 
ATOM      5  C   UNL     1      33.562  22.692  20.348  0.00  0.00    +0.020 C 
ATOM      6  C   UNL     1      34.972  23.196  20.099  0.00  0.00    +0.011 C 
ATOM      7  C   UNL     1      35.124  23.929  18.744  0.00  0.00    -0.004 C 
ATOM      8  C   UNL     1      36.624  24.252  18.577  0.00  0.00    +0.020 C 
ATOM      9  C   UNL     1      36.799  25.434  17.649  0.00  0.00    +0.070 C 
ATOM     10  S   UNL     1      35.473  26.558  18.115  0.00  0.00    -0.160 S 
ATOM     11  C   UNL     1      34.357  25.270  18.739  0.00  0.00    +0.077 C 
ATOM     12  C   UNL     1      34.589  23.009  17.615  0.00  0.00    +0.115 C 
ENDROOT
BRANCH   1  16
ATOM     13  C   UNL     1      28.040  22.084  17.567  0.00  0.00    +0.037 A 
ATOM     14  C   UNL     1      28.768  22.751  18.556  0.00  0.00    +0.014 A 
ATOM     15  C   UNL     1      30.150  22.894  18.422  0.00  0.00    +0.014 A 
ATOM     16  C   UNL     1      30.789  22.475  17.253  0.00  0.00    +0.037 A 
ATOM     17  C   UNL     1      30.076  21.722  16.311  0.00  0.00    +0.014 A 
ATOM     18  C   UNL     1      28.702  21.517  16.475  0.00  0.00    +0.014 A 
BRANCH  13  20
ATOM     19  N   UNL     1      25.974  22.391  18.813  0.00  0.00    -0.325 N 
ATOM     20  C   UNL     1      26.559  21.965  17.653  0.00  0.00    +0.242 C 
ATOM     21  O   UNL     1      25.894  21.556  16.716  0.00  0.00    -0.270 OA
ATOM     22  H   UNL     1      24.962  22.420  18.814  0.00  0.00    +0.145 HD
ATOM     23  H   UNL     1      26.455  22.985  19.475  0.00  0.00    +0.145 HD
ENDBRANCH  13  20
ENDBRANCH   1  16
TORSDOF 2
ENDMDL
MODEL 6
REMARK VINA RESULT:      -6.4      4.716      5.635
REMARK  Name = ZINC000583127796
REMARK  2 active torsions:
REMARK  status: ('A' for Active; 'I' for Inactive)
REMARK    1  A    between atoms: C_2  and  C_4
REMARK    2  A    between atoms: C_7  and  C_8
REMARK                            x       y       z     vdW  Elec       q    Type
REMARK                         _______ _______ _______ _____ _____    ______ ____
ROOT
ATOM      1  C   UNL     1      32.373  23.389  19.813  0.00  0.00    +0.247 C 
ATOM      2  O   UNL     1      32.821  22.473  20.505  0.00  0.00    -0.270 OA
ATOM      3  N   UNL     1      33.080  24.577  19.570  0.00  0.00    -0.297 N 
ATOM      4  C   UNL     1      32.629  25.715  18.768  0.00  0.00    +0.108 C 
ATOM      5  C   UNL     1      33.618  26.092  17.680  0.00  0.00    +0.020 C 
ATOM      6  C   UNL     1      35.025  26.242  18.228  0.00  0.00    +0.011 C 
ATOM      7  C   UNL     1      35.487  25.020  19.058  0.00  0.00    -0.004 C 
ATOM      8  C   UNL     1      36.864  25.382  19.656  0.00  0.00    +0.020 C 
ATOM      9  C   UNL     1      37.644  24.121  19.956  0.00  0.00    +0.070 C 
ATOM     10  S   UNL     1      37.296  23.044  18.557  0.00  0.00    -0.160 S 
ATOM     11  C   UNL     1      35.680  23.772  18.168  0.00  0.00    +0.077 C 
ATOM     12  C   UNL     1      34.427  24.731  20.154  0.00  0.00    +0.115 C 
ENDROOT
BRANCH   1  16
ATOM     13  C   UNL     1      28.556  22.433  18.126  0.00  0.00    +0.037 A 
ATOM     14  C   UNL     1      29.707  22.250  17.356  0.00  0.00    +0.014 A 
ATOM     15  C   UNL     1      30.945  22.669  17.847  0.00  0.00    +0.014 A 
ATOM     16  C   UNL     1      31.052  23.164  19.148  0.00  0.00    +0.037 A 
ATOM     17  C   UNL     1      29.888  23.436  19.880  0.00  0.00    +0.014 A 
ATOM     18  C   UNL     1      28.638  23.081  19.361  0.00  0.00    +0.014 A 
BRANCH  13  20
ATOM     19  N   UNL     1      26.165  22.172  18.481  0.00  0.00    -0.325 N 
ATOM     20  C   UNL     1      27.230  21.947  17.655  0.00  0.00    +0.242 C 
ATOM     21  O   UNL     1      27.092  21.423  16.563  0.00  0.00    -0.270 OA
ATOM     22  H   UNL     1      25.253  21.950  18.099  0.00  0.00    +0.145 HD
ATOM     23  H   UNL     1      26.198  22.842  19.238  0.00  0.00    +0.145 HD
ENDBRANCH  13  20
ENDBRANCH   1  16
TORSDOF 2
ENDMDL
MODEL 7
REMARK VINA RESULT:      -6.3      3.471      5.331
REMARK  Name = ZINC000583127796
REMARK  2 active torsions:
REMARK  status: ('A' for Active; 'I' for Inactive)
REMARK    1  A    between atoms: C_2  and  C_4
REMARK    2  A    between atoms: C_7  and  C_8
REMARK                            x       y       z     vdW  Elec       q    Type
REMARK                         _______ _______ _______ _____ _____    ______ ____
ROOT
ATOM      1  C   UNL     1      33.827  23.955   9.907  0.00  0.00    +0.247 C 
ATOM      2  O   UNL     1      34.636  24.882   9.989  0.00  0.00    -0.270 OA
ATOM      3  N   UNL     1      33.762  23.096   8.800  0.00  0.00    -0.297 N 
ATOM      4  C   UNL     1      32.837  21.976   8.615  0.00  0.00    +0.108 C 
ATOM      5  C   UNL     1      33.552  20.672   8.311  0.00  0.00    +0.020 C 
ATOM      6  C   UNL     1      34.559  20.833   7.186  0.00  0.00    +0.011 C 
ATOM      7  C   UNL     1      35.536  22.013   7.410  0.00  0.00    -0.004 C 
ATOM      8  C   UNL     1      36.393  22.131   6.132  0.00  0.00    +0.020 C 
ATOM      9  C   UNL     1      37.711  22.802   6.453  0.00  0.00    +0.070 C 
ATOM     10  S   UNL     1      38.187  22.100   8.040  0.00  0.00    -0.160 S 
ATOM     11  C   UNL     1      36.496  21.735   8.589  0.00  0.00    +0.077 C 
ATOM     12  C   UNL     1      34.712  23.298   7.690  0.00  0.00    +0.115 C 
ENDROOT
BRANCH   1  16
ATOM     13  C   UNL     1      31.195  22.929  13.125  0.00  0.00    +0.037 A 
ATOM     14  C   UNL     1      30.851  23.980  12.270  0.00  0.00    +0.014 A 
ATOM     15  C   UNL     1      31.753  24.403  11.292  0.00  0.00    +0.014 A 
ATOM     16  C   UNL     1      32.947  23.708  11.091  0.00  0.00    +0.037 A 
ATOM     17  C   UNL     1      33.333  22.721  12.009  0.00  0.00    +0.014 A 
ATOM     18  C   UNL     1      32.460  22.341  13.034  0.00  0.00    +0.014 A 
BRANCH  13  20
ATOM     19  N   UNL     1      30.102  23.153  15.285  0.00  0.00    -0.325 N 
ATOM     20  C   UNL     1      30.235  22.418  14.140  0.00  0.00    +0.242 C 
ATOM     21  O   UNL     1      29.560  21.422  13.938  0.00  0.00    -0.270 OA
ATOM     22  H   UNL     1      29.360  22.866  15.912  0.00  0.00    +0.145 HD
ATOM     23  H   UNL     1      30.423  24.109  15.355  0.00  0.00    +0.145 HD
ENDBRANCH  13  20
ENDBRANCH   1  16
TORSDOF 2
ENDMDL
MODEL 8
REMARK VINA RESULT:      -6.2     23.073     25.161
REMARK  Name = ZINC000583127796
REMARK  2 active torsions:
REMARK  status: ('A' for Active; 'I' for Inactive)
REMARK    1  A    between atoms: C_2  and  C_4
REMARK    2  A    between atoms: C_7  and  C_8
REMARK                            x       y       z     vdW  Elec       q    Type
REMARK                         _______ _______ _______ _____ _____    ______ ____
ROOT
ATOM      1  C   UNL     1      20.361   4.602  28.506  0.00  0.00    +0.247 C 
ATOM      2  O   UNL     1      20.349   4.337  27.302  0.00  0.00    -0.270 OA
ATOM      3  N   UNL     1      21.504   4.455  29.307  0.00  0.00    -0.297 N 
ATOM      4  C   UNL     1      21.611   4.740  30.739  0.00  0.00    +0.108 C 
ATOM      5  C   UNL     1      22.743   5.698  31.061  0.00  0.00    +0.020 C 
ATOM      6  C   UNL     1      24.047   5.262  30.419  0.00  0.00    +0.011 C 
ATOM      7  C   UNL     1      23.914   4.982  28.903  0.00  0.00    -0.004 C 
ATOM      8  C   UNL     1      25.273   4.419  28.432  0.00  0.00    +0.020 C 
ATOM      9  C   UNL     1      25.452   4.674  26.951  0.00  0.00    +0.070 C 
ATOM     10  S   UNL     1      24.800   6.332  26.707  0.00  0.00    -0.160 S 
ATOM     11  C   UNL     1      23.649   6.281  28.110  0.00  0.00    +0.077 C 
ATOM     12  C   UNL     1      22.752   3.978  28.680  0.00  0.00    +0.115 C 
ENDROOT
BRANCH   1  16
ATOM     13  C   UNL     1      17.006   6.402  30.463  0.00  0.00    +0.037 A 
ATOM     14  C   UNL     1      17.159   5.014  30.510  0.00  0.00    +0.014 A 
ATOM     15  C   UNL     1      18.179   4.403  29.778  0.00  0.00    +0.014 A 
ATOM     16  C   UNL     1      19.113   5.181  29.093  0.00  0.00    +0.037 A 
ATOM     17  C   UNL     1      18.901   6.561  28.967  0.00  0.00    +0.014 A 
ATOM     18  C   UNL     1      17.839   7.169  29.643  0.00  0.00    +0.014 A 
BRANCH  13  20
ATOM     19  N   UNL     1      15.524   8.298  30.813  0.00  0.00    -0.325 N 
ATOM     20  C   UNL     1      15.964   7.089  31.275  0.00  0.00    +0.242 C 
ATOM     21  O   UNL     1      15.489   6.575  32.274  0.00  0.00    -0.270 OA
ATOM     22  H   UNL     1      14.732   8.697  31.303  0.00  0.00    +0.145 HD
ATOM     23  H   UNL     1      15.683   8.605  29.863  0.00  0.00    +0.145 HD
ENDBRANCH  13  20
ENDBRANCH   1  16
TORSDOF 2
ENDMDL
MODEL 9
REMARK VINA RESULT:      -6.0      8.009      9.190
REMARK  Name = ZINC000583127796
REMARK  2 active torsions:
REMARK  status: ('A' for Active; 'I' for Inactive)
REMARK    1  A    between atoms: C_2  and  C_4
REMARK    2  A    between atoms: C_7  and  C_8
REMARK                            x       y       z     vdW  Elec       q    Type
REMARK                         _______ _______ _______ _____ _____    ______ ____
ROOT
ATOM      1  C   UNL     1      33.860  14.938  13.401  0.00  0.00    +0.247 C 
ATOM      2  O   UNL     1      34.934  15.068  12.811  0.00  0.00    -0.270 OA
ATOM      3  N   UNL     1      33.244  15.985  14.104  0.00  0.00    -0.297 N 
ATOM      4  C   UNL     1      31.977  15.923  14.833  0.00  0.00    +0.108 C 
ATOM      5  C   UNL     1      30.993  16.989  14.389  0.00  0.00    +0.020 C 
ATOM      6  C   UNL     1      31.629  18.367  14.373  0.00  0.00    +0.011 C 
ATOM      7  C   UNL     1      32.959  18.414  13.582  0.00  0.00    -0.004 C 
ATOM      8  C   UNL     1      33.545  19.829  13.776  0.00  0.00    +0.020 C 
ATOM      9  C   UNL     1      34.465  20.170  12.625  0.00  0.00    +0.070 C 
ATOM     10  S   UNL     1      33.622  19.513  11.178  0.00  0.00    -0.160 S 
ATOM     11  C   UNL     1      32.723  18.212  12.069  0.00  0.00    +0.077 C 
ATOM     12  C   UNL     1      33.901  17.306  14.124  0.00  0.00    +0.115 C 
ENDROOT
BRANCH   1  16
ATOM     13  C   UNL     1      32.197  11.024  12.908  0.00  0.00    +0.037 A 
ATOM     14  C   UNL     1      31.806  12.045  12.038  0.00  0.00    +0.014 A 
ATOM     15  C   UNL     1      32.247  13.352  12.260  0.00  0.00    +0.014 A 
ATOM     16  C   UNL     1      33.166  13.619  13.277  0.00  0.00    +0.037 A 
ATOM     17  C   UNL     1      33.478  12.615  14.204  0.00  0.00    +0.014 A 
ATOM     18  C   UNL     1      32.983  11.320  14.025  0.00  0.00    +0.014 A 
BRANCH  13  20
ATOM     19  N   UNL     1      30.599   9.418  12.024  0.00  0.00    -0.325 N 
ATOM     20  C   UNL     1      31.790   9.613  12.667  0.00  0.00    +0.242 C 
ATOM     21  O   UNL     1      32.507   8.677  12.979  0.00  0.00    -0.270 OA
ATOM     22  H   UNL     1      30.391   8.463  11.757  0.00  0.00    +0.145 HD
ATOM     23  H   UNL     1      30.135  10.154  11.510  0.00  0.00    +0.145 HD
ENDBRANCH  13  20
ENDBRANCH   1  16
TORSDOF 2
ENDMDL
