MODEL 1
REMARK VINA RESULT:      -6.8      0.000      0.000
REMARK  Name = ZINC000329563636
REMARK  3 active torsions:
REMARK  status: ('A' for Active; 'I' for Inactive)
REMARK    1  A    between atoms: C_1  and  C_2
REMARK    2  A    between atoms: C_2  and  N_3
REMARK    3  A    between atoms: N_9  and  C_10
REMARK                            x       y       z     vdW  Elec       q    Type
REMARK                         _______ _______ _______ _____ _____    ______ ____
ROOT
ATOM      1  C   UNL     1      31.484  23.816  13.364  0.00  0.00    +0.112 C 
ATOM      2  C   UNL     1      30.207  23.006  13.613  0.00  0.00    +0.075 C 
ATOM      3  C   UNL     1      30.180  22.234  14.940  0.00  0.00    +0.113 C 
ATOM      4  C   UNL     1      29.723  23.065  16.167  0.00  0.00    +0.048 C 
ATOM      5  C   UNL     1      28.367  22.505  16.582  0.00  0.00    +0.004 C 
ATOM      6  C   UNL     1      28.435  21.045  16.179  0.00  0.00    +0.004 C 
ATOM      7  C   UNL     1      29.126  21.101  14.826  0.00  0.00    +0.048 C 
ATOM      8  O   UNL     1      31.445  21.604  15.221  0.00  0.00    -0.485 OA
ATOM      9  C   UNL     1      32.489  22.491  15.249  0.00  0.00    +0.126 A 
ATOM     10  C   UNL     1      33.509  22.251  16.169  0.00  0.00    +0.046 A 
ATOM     11  C   UNL     1      34.579  23.142  16.274  0.00  0.00    +0.004 A 
ATOM     12  C   UNL     1      34.639  24.258  15.442  0.00  0.00    +0.001 A 
ATOM     13  C   UNL     1      33.633  24.476  14.500  0.00  0.00    +0.009 A 
ATOM     14  C   UNL     1      32.547  23.592  14.398  0.00  0.00    +0.015 A 
ENDROOT
BRANCH   1  21
ATOM     15  N   UNL     1      34.566  23.728   7.850  0.00  0.00    -0.299 N 
ATOM     16  C   UNL     1      33.981  25.013   8.231  0.00  0.00    +0.127 C 
ATOM     17  C   UNL     1      32.533  24.858   8.685  0.00  0.00    +0.129 C 
ATOM     18  N   UNL     1      32.492  23.939   9.812  0.00  0.00    -0.275 N 
ATOM     19  C   UNL     1      32.014  24.390  11.023  0.00  0.00    +0.303 C 
ATOM     20  O   UNL     1      31.622  25.544  11.189  0.00  0.00    -0.253 OA
ATOM     21  N   UNL     1      32.027  23.487  12.044  0.00  0.00    -0.292 N 
ATOM     22  C   UNL     1      33.057  22.615   9.533  0.00  0.00    +0.205 C 
ATOM     23  C   UNL     1      34.209  22.552   8.507  0.00  0.00    +0.233 C 
ATOM     24  O   UNL     1      34.758  21.474   8.267  0.00  0.00    -0.274 OA
ATOM     25  H   UNL     1      32.004  22.507  11.812  0.00  0.00    +0.151 HD
BRANCH  15  27
ATOM     26  C   UNL     1      35.456  23.727   5.536  0.00  0.00    +0.024 C 
ATOM     27  C   UNL     1      35.769  23.738   7.025  0.00  0.00    +0.104 C 
ENDBRANCH  15  27
ENDBRANCH   1  21
TORSDOF 2
ENDMDL
MODEL 2
REMARK VINA RESULT:      -6.8      5.711      8.824
REMARK  Name = ZINC000329563636
REMARK  3 active torsions:
REMARK  status: ('A' for Active; 'I' for Inactive)
REMARK    1  A    between atoms: C_1  and  C_2
REMARK    2  A    between atoms: C_2  and  N_3
REMARK    3  A    between atoms: N_9  and  C_10
REMARK                            x       y       z     vdW  Elec       q    Type
REMARK                         _______ _______ _______ _____ _____    ______ ____
ROOT
ATOM      1  C   UNL     1      34.349  23.075  18.304  0.00  0.00    +0.112 C 
ATOM      2  C   UNL     1      34.917  24.337  18.963  0.00  0.00    +0.075 C 
ATOM      3  C   UNL     1      35.832  24.081  20.169  0.00  0.00    +0.113 C 
ATOM      4  C   UNL     1      37.310  23.776  19.810  0.00  0.00    +0.048 C 
ATOM      5  C   UNL     1      38.124  24.972  20.291  0.00  0.00    +0.004 C 
ATOM      6  C   UNL     1      37.343  25.488  21.484  0.00  0.00    +0.004 C 
ATOM      7  C   UNL     1      35.901  25.379  21.017  0.00  0.00    +0.048 C 
ATOM      8  O   UNL     1      35.315  23.045  21.026  0.00  0.00    -0.485 OA
ATOM      9  C   UNL     1      35.110  21.860  20.370  0.00  0.00    +0.126 A 
ATOM     10  C   UNL     1      35.353  20.685  21.078  0.00  0.00    +0.046 A 
ATOM     11  C   UNL     1      35.202  19.447  20.450  0.00  0.00    +0.004 A 
ATOM     12  C   UNL     1      34.784  19.387  19.123  0.00  0.00    +0.001 A 
ATOM     13  C   UNL     1      34.510  20.565  18.427  0.00  0.00    +0.009 A 
ATOM     14  C   UNL     1      34.673  21.814  19.048  0.00  0.00    +0.015 A 
ENDROOT
BRANCH   1  21
ATOM     15  N   UNL     1      28.222  22.285  16.983  0.00  0.00    -0.299 N 
ATOM     16  C   UNL     1      29.149  22.024  15.882  0.00  0.00    +0.127 C 
ATOM     17  C   UNL     1      30.171  23.146  15.731  0.00  0.00    +0.129 C 
ATOM     18  N   UNL     1      30.907  23.280  16.980  0.00  0.00    -0.275 N 
ATOM     19  C   UNL     1      32.270  23.082  16.975  0.00  0.00    +0.303 C 
ATOM     20  O   UNL     1      32.891  22.792  15.953  0.00  0.00    -0.253 OA
ATOM     21  N   UNL     1      32.895  23.195  18.181  0.00  0.00    -0.292 N 
ATOM     22  C   UNL     1      30.065  23.544  18.151  0.00  0.00    +0.205 C 
ATOM     23  C   UNL     1      28.642  22.947  18.135  0.00  0.00    +0.233 C 
ATOM     24  O   UNL     1      27.905  23.093  19.114  0.00  0.00    -0.274 OA
ATOM     25  H   UNL     1      32.457  23.760  18.891  0.00  0.00    +0.151 HD
BRANCH  15  27
ATOM     26  C   UNL     1      27.154  20.083  17.377  0.00  0.00    +0.024 C 
ATOM     27  C   UNL     1      26.964  21.548  17.011  0.00  0.00    +0.104 C 
ENDBRANCH  15  27
ENDBRANCH   1  21
TORSDOF 2
ENDMDL
MODEL 3
REMARK VINA RESULT:      -6.6      5.298      8.234
REMARK  Name = ZINC000329563636
REMARK  3 active torsions:
REMARK  status: ('A' for Active; 'I' for Inactive)
REMARK    1  A    between atoms: C_1  and  C_2
REMARK    2  A    between atoms: C_2  and  N_3
REMARK    3  A    between atoms: N_9  and  C_10
REMARK                            x       y       z     vdW  Elec       q    Type
REMARK                         _______ _______ _______ _____ _____    ______ ____
ROOT
ATOM      1  C   UNL     1      33.724  23.540  16.771  0.00  0.00    +0.112 C 
ATOM      2  C   UNL     1      34.044  25.021  16.540  0.00  0.00    +0.075 C 
ATOM      3  C   UNL     1      35.049  25.628  17.530  0.00  0.00    +0.113 C 
ATOM      4  C   UNL     1      36.539  25.396  17.167  0.00  0.00    +0.048 C 
ATOM      5  C   UNL     1      37.104  26.760  16.787  0.00  0.00    +0.004 C 
ATOM      6  C   UNL     1      36.290  27.736  17.614  0.00  0.00    +0.004 C 
ATOM      7  C   UNL     1      34.883  27.170  17.514  0.00  0.00    +0.048 C 
ATOM      8  O   UNL     1      34.802  25.193  18.881  0.00  0.00    -0.485 OA
ATOM      9  C   UNL     1      34.821  23.829  19.015  0.00  0.00    +0.126 A 
ATOM     10  C   UNL     1      35.339  23.309  20.200  0.00  0.00    +0.046 A 
ATOM     11  C   UNL     1      35.423  21.927  20.378  0.00  0.00    +0.004 A 
ATOM     12  C   UNL     1      34.965  21.068  19.381  0.00  0.00    +0.001 A 
ATOM     13  C   UNL     1      34.417  21.593  18.211  0.00  0.00    +0.009 A 
ATOM     14  C   UNL     1      34.341  22.982  18.019  0.00  0.00    +0.015 A 
ENDROOT
BRANCH   1  21
ATOM     15  N   UNL     1      27.828  21.273  16.725  0.00  0.00    -0.299 N 
ATOM     16  C   UNL     1      28.702  20.796  15.653  0.00  0.00    +0.127 C 
ATOM     17  C   UNL     1      29.444  21.945  14.980  0.00  0.00    +0.129 C 
ATOM     18  N   UNL     1      30.227  22.649  15.985  0.00  0.00    -0.275 N 
ATOM     19  C   UNL     1      31.596  22.703  15.844  0.00  0.00    +0.303 C 
ATOM     20  O   UNL     1      32.184  22.175  14.901  0.00  0.00    -0.253 OA
ATOM     21  N   UNL     1      32.274  23.352  16.833  0.00  0.00    -0.292 N 
ATOM     22  C   UNL     1      29.442  23.170  17.108  0.00  0.00    +0.205 C 
ATOM     23  C   UNL     1      28.184  22.369  17.508  0.00  0.00    +0.233 C 
ATOM     24  O   UNL     1      27.511  22.730  18.477  0.00  0.00    -0.274 OA
ATOM     25  H   UNL     1      31.781  24.051  17.366  0.00  0.00    +0.151 HD
BRANCH  15  27
ATOM     26  C   UNL     1      27.221  18.944  17.318  0.00  0.00    +0.024 C 
ATOM     27  C   UNL     1      26.764  20.390  17.189  0.00  0.00    +0.104 C 
ENDBRANCH  15  27
ENDBRANCH   1  21
TORSDOF 2
ENDMDL
MODEL 4
REMARK VINA RESULT:      -6.5      3.852      8.516
REMARK  Name = ZINC000329563636
REMARK  3 active torsions:
REMARK  status: ('A' for Active; 'I' for Inactive)
REMARK    1  A    between atoms: C_1  and  C_2
REMARK    2  A    between atoms: C_2  and  N_3
REMARK    3  A    between atoms: N_9  and  C_10
REMARK                            x       y       z     vdW  Elec       q    Type
REMARK                         _______ _______ _______ _____ _____    ______ ____
ROOT
ATOM      1  C   UNL     1      32.004  23.723  15.552  0.00  0.00    +0.112 C 
ATOM      2  C   UNL     1      32.867  23.962  14.308  0.00  0.00    +0.075 C 
ATOM      3  C   UNL     1      32.327  23.332  13.016  0.00  0.00    +0.113 C 
ATOM      4  C   UNL     1      31.268  24.184  12.270  0.00  0.00    +0.048 C 
ATOM      5  C   UNL     1      31.928  24.652  10.978  0.00  0.00    +0.004 C 
ATOM      6  C   UNL     1      32.911  23.545  10.649  0.00  0.00    +0.004 C 
ATOM      7  C   UNL     1      33.499  23.202  12.007  0.00  0.00    +0.048 C 
ATOM      8  O   UNL     1      31.815  22.003  13.239  0.00  0.00    -0.485 OA
ATOM      9  C   UNL     1      30.832  21.962  14.193  0.00  0.00    +0.126 A 
ATOM     10  C   UNL     1      29.794  21.051  14.004  0.00  0.00    +0.046 A 
ATOM     11  C   UNL     1      28.742  20.992  14.920  0.00  0.00    +0.004 A 
ATOM     12  C   UNL     1      28.743  21.826  16.036  0.00  0.00    +0.001 A 
ATOM     13  C   UNL     1      29.801  22.714  16.238  0.00  0.00    +0.009 A 
ATOM     14  C   UNL     1      30.856  22.788  15.314  0.00  0.00    +0.015 A 
ENDROOT
BRANCH   1  21
ATOM     15  N   UNL     1      34.713  22.340  21.089  0.00  0.00    -0.299 N 
ATOM     16  C   UNL     1      34.421  23.754  20.859  0.00  0.00    +0.127 C 
ATOM     17  C   UNL     1      34.898  24.209  19.484  0.00  0.00    +0.129 C 
ATOM     18  N   UNL     1      34.246  23.396  18.469  0.00  0.00    -0.275 N 
ATOM     19  C   UNL     1      33.437  24.012  17.540  0.00  0.00    +0.303 C 
ATOM     20  O   UNL     1      33.242  25.226  17.537  0.00  0.00    -0.253 OA
ATOM     21  N   UNL     1      32.834  23.191  16.634  0.00  0.00    -0.292 N 
ATOM     22  C   UNL     1      34.476  21.955  18.610  0.00  0.00    +0.205 C 
ATOM     23  C   UNL     1      34.672  21.418  20.044  0.00  0.00    +0.233 C 
ATOM     24  O   UNL     1      34.820  20.207  20.230  0.00  0.00    -0.274 OA
ATOM     25  H   UNL     1      33.269  22.304  16.434  0.00  0.00    +0.151 HD
BRANCH  15  27
ATOM     26  C   UNL     1      33.307  21.851  23.072  0.00  0.00    +0.024 C 
ATOM     27  C   UNL     1      34.702  21.850  22.463  0.00  0.00    +0.104 C 
ENDBRANCH  15  27
ENDBRANCH   1  21
TORSDOF 2
ENDMDL
MODEL 5
REMARK VINA RESULT:      -6.3      1.986      4.264
REMARK  Name = ZINC000329563636
REMARK  3 active torsions:
REMARK  status: ('A' for Active; 'I' for Inactive)
REMARK    1  A    between atoms: C_1  and  C_2
REMARK    2  A    between atoms: C_2  and  N_3
REMARK    3  A    between atoms: N_9  and  C_10
REMARK                            x       y       z     vdW  Elec       q    Type
REMARK                         _______ _______ _______ _____ _____    ______ ____
ROOT
ATOM      1  C   UNL     1      32.691  22.397  15.348  0.00  0.00    +0.112 C 
ATOM      2  C   UNL     1      33.602  23.114  16.352  0.00  0.00    +0.075 C 
ATOM      3  C   UNL     1      32.914  23.547  17.654  0.00  0.00    +0.113 C 
ATOM      4  C   UNL     1      32.825  22.443  18.741  0.00  0.00    +0.048 C 
ATOM      5  C   UNL     1      33.754  22.877  19.869  0.00  0.00    +0.004 C 
ATOM      6  C   UNL     1      33.725  24.391  19.804  0.00  0.00    +0.004 C 
ATOM      7  C   UNL     1      33.766  24.666  18.310  0.00  0.00    +0.048 C 
ATOM      8  O   UNL     1      31.606  24.101  17.414  0.00  0.00    -0.485 OA
ATOM      9  C   UNL     1      30.776  23.241  16.743  0.00  0.00    +0.126 A 
ATOM     10  C   UNL     1      29.424  23.262  17.080  0.00  0.00    +0.046 A 
ATOM     11  C   UNL     1      28.536  22.380  16.461  0.00  0.00    +0.004 A 
ATOM     12  C   UNL     1      28.999  21.496  15.488  0.00  0.00    +0.001 A 
ATOM     13  C   UNL     1      30.348  21.502  15.130  0.00  0.00    +0.009 A 
ATOM     14  C   UNL     1      31.249  22.376  15.758  0.00  0.00    +0.015 A 
ENDROOT
BRANCH   1  21
ATOM     15  N   UNL     1      33.013  23.717   9.179  0.00  0.00    -0.299 N 
ATOM     16  C   UNL     1      33.763  22.541   9.618  0.00  0.00    +0.127 C 
ATOM     17  C   UNL     1      34.606  22.841  10.853  0.00  0.00    +0.129 C 
ATOM     18  N   UNL     1      33.728  23.297  11.920  0.00  0.00    -0.275 N 
ATOM     19  C   UNL     1      33.665  22.571  13.088  0.00  0.00    +0.303 C 
ATOM     20  O   UNL     1      34.323  21.546  13.264  0.00  0.00    -0.253 OA
ATOM     21  N   UNL     1      32.804  23.037  14.036  0.00  0.00    -0.292 N 
ATOM     22  C   UNL     1      32.927  24.478  11.580  0.00  0.00    +0.205 C 
ATOM     23  C   UNL     1      32.519  24.640  10.099  0.00  0.00    +0.233 C 
ATOM     24  O   UNL     1      31.804  25.586   9.761  0.00  0.00    -0.274 OA
ATOM     25  H   UNL     1      32.568  24.016  14.023  0.00  0.00    +0.151 HD
BRANCH  15  27
ATOM     26  C   UNL     1      33.402  24.476   6.851  0.00  0.00    +0.024 C 
ATOM     27  C   UNL     1      32.492  23.731   7.817  0.00  0.00    +0.104 C 
ENDBRANCH  15  27
ENDBRANCH   1  21
TORSDOF 2
ENDMDL
MODEL 6
REMARK VINA RESULT:      -6.3      4.301      8.342
REMARK  Name = ZINC000329563636
REMARK  3 active torsions:
REMARK  status: ('A' for Active; 'I' for Inactive)
REMARK    1  A    between atoms: C_1  and  C_2
REMARK    2  A    between atoms: C_2  and  N_3
REMARK    3  A    between atoms: N_9  and  C_10
REMARK                            x       y       z     vdW  Elec       q    Type
REMARK                         _______ _______ _______ _____ _____    ______ ____
ROOT
ATOM      1  C   UNL     1      32.885  20.362  13.334  0.00  0.00    +0.112 C 
ATOM      2  C   UNL     1      34.132  20.040  12.503  0.00  0.00    +0.075 C 
ATOM      3  C   UNL     1      34.155  18.632  11.890  0.00  0.00    +0.113 C 
ATOM      4  C   UNL     1      33.397  18.496  10.544  0.00  0.00    +0.048 C 
ATOM      5  C   UNL     1      34.459  18.254   9.478  0.00  0.00    +0.004 C 
ATOM      6  C   UNL     1      35.564  17.528  10.220  0.00  0.00    +0.004 C 
ATOM      7  C   UNL     1      35.624  18.271  11.545  0.00  0.00    +0.048 C 
ATOM      8  O   UNL     1      33.684  17.634  12.818  0.00  0.00    -0.485 OA
ATOM      9  C   UNL     1      32.421  17.891  13.284  0.00  0.00    +0.126 A 
ATOM     10  C   UNL     1      31.590  16.797  13.517  0.00  0.00    +0.046 A 
ATOM     11  C   UNL     1      30.279  16.997  13.953  0.00  0.00    +0.004 A 
ATOM     12  C   UNL     1      29.810  18.289  14.177  0.00  0.00    +0.001 A 
ATOM     13  C   UNL     1      30.656  19.380  13.974  0.00  0.00    +0.009 A 
ATOM     14  C   UNL     1      31.972  19.187  13.523  0.00  0.00    +0.015 A 
ENDROOT
BRANCH   1  21
ATOM     15  N   UNL     1      33.136  22.962  19.086  0.00  0.00    -0.299 N 
ATOM     16  C   UNL     1      32.372  23.705  18.084  0.00  0.00    +0.127 C 
ATOM     17  C   UNL     1      33.147  23.846  16.779  0.00  0.00    +0.129 C 
ATOM     18  N   UNL     1      33.464  22.518  16.277  0.00  0.00    -0.275 N 
ATOM     19  C   UNL     1      32.975  22.135  15.047  0.00  0.00    +0.303 C 
ATOM     20  O   UNL     1      32.275  22.875  14.357  0.00  0.00    -0.253 OA
ATOM     21  N   UNL     1      33.285  20.869  14.648  0.00  0.00    -0.292 N 
ATOM     22  C   UNL     1      34.232  21.687  17.209  0.00  0.00    +0.205 C 
ATOM     23  C   UNL     1      33.987  21.923  18.715  0.00  0.00    +0.233 C 
ATOM     24  O   UNL     1      34.567  21.220  19.548  0.00  0.00    -0.274 OA
ATOM     25  H   UNL     1      34.112  20.440  15.032  0.00  0.00    +0.151 HD
BRANCH  15  27
ATOM     26  C   UNL     1      31.373  22.465  20.757  0.00  0.00    +0.024 C 
ATOM     27  C   UNL     1      32.736  23.083  20.484  0.00  0.00    +0.104 C 
ENDBRANCH  15  27
ENDBRANCH   1  21
TORSDOF 2
ENDMDL
MODEL 7
REMARK VINA RESULT:      -6.3      5.396      7.485
REMARK  Name = ZINC000329563636
REMARK  3 active torsions:
REMARK  status: ('A' for Active; 'I' for Inactive)
REMARK    1  A    between atoms: C_1  and  C_2
REMARK    2  A    between atoms: C_2  and  N_3
REMARK    3  A    between atoms: N_9  and  C_10
REMARK                            x       y       z     vdW  Elec       q    Type
REMARK                         _______ _______ _______ _____ _____    ______ ____
ROOT
ATOM      1  C   UNL     1      34.702  22.480  17.179  0.00  0.00    +0.112 C 
ATOM      2  C   UNL     1      34.814  23.936  16.715  0.00  0.00    +0.075 C 
ATOM      3  C   UNL     1      34.597  24.985  17.815  0.00  0.00    +0.113 C 
ATOM      4  C   UNL     1      35.854  25.307  18.665  0.00  0.00    +0.048 C 
ATOM      5  C   UNL     1      36.256  26.734  18.310  0.00  0.00    +0.004 C 
ATOM      6  C   UNL     1      34.944  27.404  17.951  0.00  0.00    +0.004 C 
ATOM      7  C   UNL     1      34.229  26.333  17.143  0.00  0.00    +0.048 C 
ATOM      8  O   UNL     1      33.500  24.634  18.682  0.00  0.00    -0.485 OA
ATOM      9  C   UNL     1      33.654  23.405  19.269  0.00  0.00    +0.126 A 
ATOM     10  C   UNL     1      33.182  23.254  20.571  0.00  0.00    +0.046 A 
ATOM     11  C   UNL     1      33.347  22.038  21.237  0.00  0.00    +0.004 A 
ATOM     12  C   UNL     1      33.961  20.968  20.589  0.00  0.00    +0.001 A 
ATOM     13  C   UNL     1      34.402  21.114  19.273  0.00  0.00    +0.009 A 
ATOM     14  C   UNL     1      34.252  22.338  18.602  0.00  0.00    +0.015 A 
ENDROOT
BRANCH   1  21
ATOM     15  N   UNL     1      30.989  18.197  14.389  0.00  0.00    -0.299 N 
ATOM     16  C   UNL     1      32.310  17.723  14.799  0.00  0.00    +0.127 C 
ATOM     17  C   UNL     1      33.413  18.679  14.356  0.00  0.00    +0.129 C 
ATOM     18  N   UNL     1      33.154  19.991  14.931  0.00  0.00    -0.275 N 
ATOM     19  C   UNL     1      34.085  20.539  15.785  0.00  0.00    +0.303 C 
ATOM     20  O   UNL     1      35.128  19.960  16.084  0.00  0.00    -0.253 OA
ATOM     21  N   UNL     1      33.770  21.757  16.311  0.00  0.00    -0.292 N 
ATOM     22  C   UNL     1      31.849  20.558  14.579  0.00  0.00    +0.205 C 
ATOM     23  C   UNL     1      30.696  19.559  14.345  0.00  0.00    +0.233 C 
ATOM     24  O   UNL     1      29.563  19.979  14.095  0.00  0.00    -0.274 OA
ATOM     25  H   UNL     1      33.129  22.342  15.801  0.00  0.00    +0.151 HD
BRANCH  15  27
ATOM     26  C   UNL     1      29.292  17.002  15.744  0.00  0.00    +0.024 C 
ATOM     27  C   UNL     1      29.891  17.237  14.365  0.00  0.00    +0.104 C 
ENDBRANCH  15  27
ENDBRANCH   1  21
TORSDOF 2
ENDMDL
MODEL 8
REMARK VINA RESULT:      -6.2      6.750      9.436
REMARK  Name = ZINC000329563636
REMARK  3 active torsions:
REMARK  status: ('A' for Active; 'I' for Inactive)
REMARK    1  A    between atoms: C_1  and  C_2
REMARK    2  A    between atoms: C_2  and  N_3
REMARK    3  A    between atoms: N_9  and  C_10
REMARK                            x       y       z     vdW  Elec       q    Type
REMARK                         _______ _______ _______ _____ _____    ______ ____
ROOT
ATOM      1  C   UNL     1      34.581  22.020  19.465  0.00  0.00    +0.112 C 
ATOM      2  C   UNL     1      35.141  22.541  20.793  0.00  0.00    +0.075 C 
ATOM      3  C   UNL     1      35.992  21.531  21.577  0.00  0.00    +0.113 C 
ATOM      4  C   UNL     1      37.479  21.457  21.142  0.00  0.00    +0.048 C 
ATOM      5  C   UNL     1      38.291  22.030  22.298  0.00  0.00    +0.004 C 
ATOM      6  C   UNL     1      37.464  21.699  23.525  0.00  0.00    +0.004 C 
ATOM      7  C   UNL     1      36.045  21.982  23.060  0.00  0.00    +0.048 C 
ATOM      8  O   UNL     1      35.412  20.212  21.559  0.00  0.00    -0.485 OA
ATOM      9  C   UNL     1      35.216  19.732  20.290  0.00  0.00    +0.126 A 
ATOM     10  C   UNL     1      35.400  18.365  20.088  0.00  0.00    +0.046 A 
ATOM     11  C   UNL     1      35.255  17.823  18.809  0.00  0.00    +0.004 A 
ATOM     12  C   UNL     1      34.902  18.645  17.741  0.00  0.00    +0.001 A 
ATOM     13  C   UNL     1      34.686  20.007  17.955  0.00  0.00    +0.009 A 
ATOM     14  C   UNL     1      34.843  20.561  19.236  0.00  0.00    +0.015 A 
ENDROOT
BRANCH   1  21
ATOM     15  N   UNL     1      28.526  22.624  17.769  0.00  0.00    -0.299 N 
ATOM     16  C   UNL     1      29.508  23.137  16.815  0.00  0.00    +0.127 C 
ATOM     17  C   UNL     1      30.551  24.013  17.500  0.00  0.00    +0.129 C 
ATOM     18  N   UNL     1      31.219  23.229  18.528  0.00  0.00    -0.275 N 
ATOM     19  C   UNL     1      32.577  23.024  18.432  0.00  0.00    +0.303 C 
ATOM     20  O   UNL     1      33.249  23.478  17.507  0.00  0.00    -0.253 OA
ATOM     21  N   UNL     1      33.137  22.258  19.411  0.00  0.00    -0.292 N 
ATOM     22  C   UNL     1      30.319  22.665  19.539  0.00  0.00    +0.205 C 
ATOM     23  C   UNL     1      28.891  22.305  19.075  0.00  0.00    +0.233 C 
ATOM     24  O   UNL     1      28.104  21.781  19.868  0.00  0.00    -0.274 OA
ATOM     25  H   UNL     1      32.669  22.210  20.301  0.00  0.00    +0.151 HD
BRANCH  15  27
ATOM     26  C   UNL     1      27.333  20.658  16.840  0.00  0.00    +0.024 C 
ATOM     27  C   UNL     1      27.258  22.123  17.248  0.00  0.00    +0.104 C 
ENDBRANCH  15  27
ENDBRANCH   1  21
TORSDOF 2
ENDMDL
MODEL 9
REMARK VINA RESULT:      -6.1      3.828      8.429
REMARK  Name = ZINC000329563636
REMARK  3 active torsions:
REMARK  status: ('A' for Active; 'I' for Inactive)
REMARK    1  A    between atoms: C_1  and  C_2
REMARK    2  A    between atoms: C_2  and  N_3
REMARK    3  A    between atoms: N_9  and  C_10
REMARK                            x       y       z     vdW  Elec       q    Type
REMARK                         _______ _______ _______ _____ _____    ______ ____
ROOT
ATOM      1  C   UNL     1      31.927  23.267  14.640  0.00  0.00    +0.112 C 
ATOM      2  C   UNL     1      32.662  24.245  13.716  0.00  0.00    +0.075 C 
ATOM      3  C   UNL     1      32.985  23.697  12.319  0.00  0.00    +0.113 C 
ATOM      4  C   UNL     1      31.830  23.815  11.291  0.00  0.00    +0.048 C 
ATOM      5  C   UNL     1      32.278  24.846  10.260  0.00  0.00    +0.004 C 
ATOM      6  C   UNL     1      33.788  24.709  10.240  0.00  0.00    +0.004 C 
ATOM      7  C   UNL     1      34.132  24.547  11.712  0.00  0.00    +0.048 C 
ATOM      8  O   UNL     1      33.454  22.335  12.372  0.00  0.00    -0.485 OA
ATOM      9  C   UNL     1      32.567  21.488  12.983  0.00  0.00    +0.126 A 
ATOM     10  C   UNL     1      32.475  20.189  12.485  0.00  0.00    +0.046 A 
ATOM     11  C   UNL     1      31.560  19.292  13.039  0.00  0.00    +0.004 A 
ATOM     12  C   UNL     1      30.756  19.688  14.106  0.00  0.00    +0.001 A 
ATOM     13  C   UNL     1      30.875  20.979  14.622  0.00  0.00    +0.009 A 
ATOM     14  C   UNL     1      31.783  21.891  14.062  0.00  0.00    +0.015 A 
ENDROOT
BRANCH   1  21
ATOM     15  N   UNL     1      33.734  22.043  20.568  0.00  0.00    -0.299 N 
ATOM     16  C   UNL     1      32.331  22.416  20.395  0.00  0.00    +0.127 C 
ATOM     17  C   UNL     1      32.184  23.659  19.524  0.00  0.00    +0.129 C 
ATOM     18  N   UNL     1      32.792  23.398  18.228  0.00  0.00    -0.275 N 
ATOM     19  C   UNL     1      32.006  23.457  17.099  0.00  0.00    +0.303 C 
ATOM     20  O   UNL     1      30.805  23.719  17.144  0.00  0.00    -0.253 OA
ATOM     21  N   UNL     1      32.630  23.174  15.920  0.00  0.00    -0.292 N 
ATOM     22  C   UNL     1      34.206  23.013  18.291  0.00  0.00    +0.205 C 
ATOM     23  C   UNL     1      34.661  22.239  19.546  0.00  0.00    +0.233 C 
ATOM     24  O   UNL     1      35.827  21.845  19.633  0.00  0.00    -0.274 OA
ATOM     25  H   UNL     1      33.626  23.317  15.865  0.00  0.00    +0.151 HD
BRANCH  15  27
ATOM     26  C   UNL     1      33.429  21.573  22.983  0.00  0.00    +0.024 C 
ATOM     27  C   UNL     1      34.078  21.154  21.672  0.00  0.00    +0.104 C 
ENDBRANCH  15  27
ENDBRANCH   1  21
TORSDOF 2
ENDMDL
