MODEL 1
REMARK VINA RESULT:      -7.2      0.000      0.000
REMARK  Name = ZINC000435351830
REMARK  5 active torsions:
REMARK  status: ('A' for Active; 'I' for Inactive)
REMARK    1  A    between atoms: C_2  and  C_3
REMARK    2  A    between atoms: C_7  and  C_8
REMARK    3  A    between atoms: C_8  and  C_9
REMARK    4  A    between atoms: N_11  and  C_12
REMARK    5  A    between atoms: C_12  and  C_13
REMARK                            x       y       z     vdW  Elec       q    Type
REMARK                         _______ _______ _______ _____ _____    ______ ____
ROOT
ATOM      1  C   UNL     1      28.346  22.046  17.509  0.00  0.00    +0.224 C 
ATOM      2  O   UNL     1      28.209  20.981  18.100  0.00  0.00    -0.275 OA
ATOM      3  N   UNL     1      27.390  23.025  17.441  0.00  0.00    -0.309 N 
ATOM      4  H   UNL     1      27.591  23.892  16.963  0.00  0.00    +0.149 HD
ENDROOT
BRANCH   1   5
ATOM      5  C   UNL     1      29.607  22.338  16.735  0.00  0.00    +0.072 C 
ATOM      6  C   UNL     1      30.019  23.792  16.539  0.00  0.00    +0.022 C 
ATOM      7  C   UNL     1      30.774  22.952  17.516  0.00  0.00    +0.022 C 
BRANCH   5  12
ATOM      8  C   UNL     1      30.722  18.958  15.301  0.00  0.00    +0.052 A 
ATOM      9  C   UNL     1      30.952  19.265  13.959  0.00  0.00    +0.019 A 
ATOM     10  C   UNL     1      30.694  20.552  13.489  0.00  0.00    +0.002 A 
ATOM     11  C   UNL     1      30.232  21.541  14.362  0.00  0.00    +0.005 A 
ATOM     12  C   UNL     1      30.023  21.269  15.725  0.00  0.00    -0.031 A 
ATOM     13  C   UNL     1      30.248  19.950  16.164  0.00  0.00    +0.023 A 
BRANCH   8  15
ATOM     14  N   UNL     1      31.213  16.586  16.225  0.00  0.00    -0.191 NA
ATOM     15  C   UNL     1      31.000  17.649  15.806  0.00  0.00    +0.099 C 
ENDBRANCH   8  15
ENDBRANCH   5  12
ENDBRANCH   1   5
BRANCH   3  16
ATOM     16  C   UNL     1      26.070  22.836  18.001  0.00  0.00    +0.159 C 
BRANCH  16  17
ATOM     17  C   UNL     1      25.113  23.958  17.666  0.00  0.00    +0.058 A 
ATOM     18  C   UNL     1      24.824  24.943  18.614  0.00  0.00    +0.028 A 
ATOM     19  C   UNL     1      23.918  25.952  18.290  0.00  0.00    +0.042 A 
ATOM     20  C   UNL     1      23.338  25.948  17.034  0.00  0.00    +0.141 A 
ATOM     21  F   UNL     1      22.459  26.898  16.691  0.00  0.00    -0.204 F 
ATOM     22  C   UNL     1      23.680  24.948  16.142  0.00  0.00    +0.149 A 
ATOM     23  N   UNL     1      24.558  23.955  16.424  0.00  0.00    -0.255 NA
ENDBRANCH  16  17
ENDBRANCH   3  16
TORSDOF 5
ENDMDL
MODEL 2
REMARK VINA RESULT:      -7.1      3.607      6.080
REMARK  Name = ZINC000435351830
REMARK  5 active torsions:
REMARK  status: ('A' for Active; 'I' for Inactive)
REMARK    1  A    between atoms: C_2  and  C_3
REMARK    2  A    between atoms: C_7  and  C_8
REMARK    3  A    between atoms: C_8  and  C_9
REMARK    4  A    between atoms: N_11  and  C_12
REMARK    5  A    between atoms: C_12  and  C_13
REMARK                            x       y       z     vdW  Elec       q    Type
REMARK                         _______ _______ _______ _____ _____    ______ ____
ROOT
ATOM      1  C   UNL     1      32.097  18.366  15.142  0.00  0.00    +0.224 C 
ATOM      2  O   UNL     1      32.326  18.858  14.043  0.00  0.00    -0.275 OA
ATOM      3  N   UNL     1      31.765  19.086  16.260  0.00  0.00    -0.309 N 
ATOM      4  H   UNL     1      31.555  18.605  17.123  0.00  0.00    +0.149 HD
ENDROOT
BRANCH   1   5
ATOM      5  C   UNL     1      32.227  16.881  15.361  0.00  0.00    +0.072 C 
ATOM      6  C   UNL     1      33.593  16.234  15.161  0.00  0.00    +0.022 C 
ATOM      7  C   UNL     1      33.082  16.427  16.551  0.00  0.00    +0.022 C 
BRANCH   5  12
ATOM      8  C   UNL     1      29.469  14.838  13.648  0.00  0.00    +0.052 A 
ATOM      9  C   UNL     1      28.527  14.695  14.666  0.00  0.00    +0.019 A 
ATOM     10  C   UNL     1      28.795  15.207  15.935  0.00  0.00    +0.002 A 
ATOM     11  C   UNL     1      29.993  15.884  16.182  0.00  0.00    +0.005 A 
ATOM     12  C   UNL     1      30.947  16.070  15.165  0.00  0.00    -0.031 A 
ATOM     13  C   UNL     1      30.670  15.505  13.906  0.00  0.00    +0.023 A 
BRANCH   8  15
ATOM     14  N   UNL     1      28.972  13.940  11.266  0.00  0.00    -0.191 NA
ATOM     15  C   UNL     1      29.202  14.338  12.333  0.00  0.00    +0.099 C 
ENDBRANCH   8  15
ENDBRANCH   5  12
ENDBRANCH   1   5
BRANCH   3  16
ATOM     16  C   UNL     1      31.747  20.533  16.254  0.00  0.00    +0.159 C 
BRANCH  16  17
ATOM     17  C   UNL     1      30.410  21.115  16.654  0.00  0.00    +0.058 A 
ATOM     18  C   UNL     1      29.359  20.273  17.025  0.00  0.00    +0.028 A 
ATOM     19  C   UNL     1      28.128  20.833  17.365  0.00  0.00    +0.042 A 
ATOM     20  C   UNL     1      27.990  22.209  17.330  0.00  0.00    +0.141 A 
ATOM     21  F   UNL     1      26.820  22.781  17.644  0.00  0.00    -0.204 F 
ATOM     22  C   UNL     1      29.077  22.982  16.965  0.00  0.00    +0.149 A 
ATOM     23  N   UNL     1      30.287  22.470  16.631  0.00  0.00    -0.255 NA
ENDBRANCH  16  17
ENDBRANCH   3  16
TORSDOF 5
ENDMDL
MODEL 3
REMARK VINA RESULT:      -7.0      3.974      6.092
REMARK  Name = ZINC000435351830
REMARK  5 active torsions:
REMARK  status: ('A' for Active; 'I' for Inactive)
REMARK    1  A    between atoms: C_2  and  C_3
REMARK    2  A    between atoms: C_7  and  C_8
REMARK    3  A    between atoms: C_8  and  C_9
REMARK    4  A    between atoms: N_11  and  C_12
REMARK    5  A    between atoms: C_12  and  C_13
REMARK                            x       y       z     vdW  Elec       q    Type
REMARK                         _______ _______ _______ _____ _____    ______ ____
ROOT
ATOM      1  C   UNL     1      30.528  19.011  15.704  0.00  0.00    +0.224 C 
ATOM      2  O   UNL     1      29.697  19.164  16.592  0.00  0.00    -0.275 OA
ATOM      3  N   UNL     1      30.868  19.971  14.786  0.00  0.00    -0.309 N 
ATOM      4  H   UNL     1      31.589  19.781  14.104  0.00  0.00    +0.149 HD
ENDROOT
BRANCH   1   5
ATOM      5  C   UNL     1      31.217  17.683  15.515  0.00  0.00    +0.072 C 
ATOM      6  C   UNL     1      32.649  17.675  14.993  0.00  0.00    +0.022 C 
ATOM      7  C   UNL     1      32.405  17.381  16.436  0.00  0.00    +0.022 C 
BRANCH   5  12
ATOM      8  C   UNL     1      29.295  14.914  13.683  0.00  0.00    +0.052 A 
ATOM      9  C   UNL     1      28.490  14.390  14.695  0.00  0.00    +0.019 A 
ATOM     10  C   UNL     1      28.599  14.885  15.994  0.00  0.00    +0.002 A 
ATOM     11  C   UNL     1      29.493  15.922  16.279  0.00  0.00    +0.005 A 
ATOM     12  C   UNL     1      30.293  16.491  15.272  0.00  0.00    -0.031 A 
ATOM     13  C   UNL     1      30.195  15.942  13.980  0.00  0.00    +0.023 A 
BRANCH   8  15
ATOM     14  N   UNL     1      29.098  14.030  11.253  0.00  0.00    -0.191 NA
ATOM     15  C   UNL     1      29.182  14.433  12.340  0.00  0.00    +0.099 C 
ENDBRANCH   8  15
ENDBRANCH   5  12
ENDBRANCH   1   5
BRANCH   3  16
ATOM     16  C   UNL     1      30.189  21.247  14.736  0.00  0.00    +0.159 C 
BRANCH  16  17
ATOM     17  C   UNL     1      30.485  22.128  15.929  0.00  0.00    +0.058 A 
ATOM     18  C   UNL     1      31.806  22.423  16.275  0.00  0.00    +0.028 A 
ATOM     19  C   UNL     1      32.055  23.216  17.394  0.00  0.00    +0.042 A 
ATOM     20  C   UNL     1      30.980  23.692  18.124  0.00  0.00    +0.141 A 
ATOM     21  F   UNL     1      31.181  24.452  19.209  0.00  0.00    -0.204 F 
ATOM     22  C   UNL     1      29.698  23.370  17.717  0.00  0.00    +0.149 A 
ATOM     23  N   UNL     1      29.423  22.604  16.633  0.00  0.00    -0.255 NA
ENDBRANCH  16  17
ENDBRANCH   3  16
TORSDOF 5
ENDMDL
MODEL 4
REMARK VINA RESULT:      -6.9      3.846      8.093
REMARK  Name = ZINC000435351830
REMARK  5 active torsions:
REMARK  status: ('A' for Active; 'I' for Inactive)
REMARK    1  A    between atoms: C_2  and  C_3
REMARK    2  A    between atoms: C_7  and  C_8
REMARK    3  A    between atoms: C_8  and  C_9
REMARK    4  A    between atoms: N_11  and  C_12
REMARK    5  A    between atoms: C_12  and  C_13
REMARK                            x       y       z     vdW  Elec       q    Type
REMARK                         _______ _______ _______ _____ _____    ______ ____
ROOT
ATOM      1  C   UNL     1      30.637  18.855  15.648  0.00  0.00    +0.224 C 
ATOM      2  O   UNL     1      29.893  18.558  16.577  0.00  0.00    -0.275 OA
ATOM      3  N   UNL     1      31.443  17.967  14.986  0.00  0.00    -0.309 N 
ATOM      4  H   UNL     1      32.003  18.282  14.206  0.00  0.00    +0.149 HD
ENDROOT
BRANCH   1   5
ATOM      5  C   UNL     1      30.763  20.287  15.193  0.00  0.00    +0.072 C 
ATOM      6  C   UNL     1      31.750  20.610  14.078  0.00  0.00    +0.022 C 
ATOM      7  C   UNL     1      30.289  20.607  13.770  0.00  0.00    +0.022 C 
BRANCH   5  12
ATOM      8  C   UNL     1      28.629  22.585  17.404  0.00  0.00    +0.052 A 
ATOM      9  C   UNL     1      29.592  23.388  18.015  0.00  0.00    +0.019 A 
ATOM     10  C   UNL     1      30.945  23.160  17.766  0.00  0.00    +0.002 A 
ATOM     11  C   UNL     1      31.337  22.147  16.886  0.00  0.00    +0.005 A 
ATOM     12  C   UNL     1      30.387  21.343  16.231  0.00  0.00    -0.031 A 
ATOM     13  C   UNL     1      29.031  21.566  16.535  0.00  0.00    +0.023 A 
BRANCH   8  15
ATOM     14  N   UNL     1      26.105  23.020  17.806  0.00  0.00    -0.191 NA
ATOM     15  C   UNL     1      27.236  22.818  17.631  0.00  0.00    +0.099 C 
ENDBRANCH   8  15
ENDBRANCH   5  12
ENDBRANCH   1   5
BRANCH   3  16
ATOM     16  C   UNL     1      31.553  16.586  15.400  0.00  0.00    +0.159 C 
BRANCH  16  17
ATOM     17  C   UNL     1      30.369  15.742  14.984  0.00  0.00    +0.058 A 
ATOM     18  C   UNL     1      30.145  15.462  13.634  0.00  0.00    +0.028 A 
ATOM     19  C   UNL     1      29.033  14.703  13.272  0.00  0.00    +0.042 A 
ATOM     20  C   UNL     1      28.187  14.246  14.268  0.00  0.00    +0.141 A 
ATOM     21  F   UNL     1      27.105  13.521  13.957  0.00  0.00    -0.204 F 
ATOM     22  C   UNL     1      28.477  14.552  15.585  0.00  0.00    +0.149 A 
ATOM     23  N   UNL     1      29.551  15.284  15.970  0.00  0.00    -0.255 NA
ENDBRANCH  16  17
ENDBRANCH   3  16
TORSDOF 5
ENDMDL
MODEL 5
REMARK VINA RESULT:      -6.8      4.737      8.436
REMARK  Name = ZINC000435351830
REMARK  5 active torsions:
REMARK  status: ('A' for Active; 'I' for Inactive)
REMARK    1  A    between atoms: C_2  and  C_3
REMARK    2  A    between atoms: C_7  and  C_8
REMARK    3  A    between atoms: C_8  and  C_9
REMARK    4  A    between atoms: N_11  and  C_12
REMARK    5  A    between atoms: C_12  and  C_13
REMARK                            x       y       z     vdW  Elec       q    Type
REMARK                         _______ _______ _______ _____ _____    ______ ____
ROOT
ATOM      1  C   UNL     1      31.050  18.327  16.136  0.00  0.00    +0.224 C 
ATOM      2  O   UNL     1      32.009  17.984  16.818  0.00  0.00    -0.275 OA
ATOM      3  N   UNL     1      30.057  17.482  15.713  0.00  0.00    -0.309 N 
ATOM      4  H   UNL     1      29.279  17.847  15.182  0.00  0.00    +0.149 HD
ENDROOT
BRANCH   1   5
ATOM      5  C   UNL     1      30.924  19.747  15.645  0.00  0.00    +0.072 C 
ATOM      6  C   UNL     1      32.092  20.358  14.880  0.00  0.00    +0.022 C 
ATOM      7  C   UNL     1      30.867  19.954  14.127  0.00  0.00    +0.022 C 
BRANCH   5  12
ATOM      8  C   UNL     1      29.615  22.648  17.786  0.00  0.00    +0.052 A 
ATOM      9  C   UNL     1      28.300  22.259  18.046  0.00  0.00    +0.019 A 
ATOM     10  C   UNL     1      27.803  21.083  17.484  0.00  0.00    +0.002 A 
ATOM     11  C   UNL     1      28.624  20.282  16.686  0.00  0.00    +0.005 A 
ATOM     12  C   UNL     1      29.962  20.634  16.435  0.00  0.00    -0.031 A 
ATOM     13  C   UNL     1      30.425  21.848  16.977  0.00  0.00    +0.023 A 
BRANCH   8  15
ATOM     14  N   UNL     1      30.595  24.808  18.836  0.00  0.00    -0.191 NA
ATOM     15  C   UNL     1      30.149  23.840  18.371  0.00  0.00    +0.099 C 
ENDBRANCH   8  15
ENDBRANCH   5  12
ENDBRANCH   1   5
BRANCH   3  16
ATOM     16  C   UNL     1      30.111  16.059  15.970  0.00  0.00    +0.159 C 
BRANCH  16  17
ATOM     17  C   UNL     1      29.559  15.226  14.835  0.00  0.00    +0.058 A 
ATOM     18  C   UNL     1      28.280  14.671  14.926  0.00  0.00    +0.028 A 
ATOM     19  C   UNL     1      27.804  13.886  13.878  0.00  0.00    +0.042 A 
ATOM     20  C   UNL     1      28.615  13.685  12.775  0.00  0.00    +0.141 A 
ATOM     21  F   UNL     1      28.193  12.931  11.752  0.00  0.00    -0.204 F 
ATOM     22  C   UNL     1      29.865  14.275  12.747  0.00  0.00    +0.149 A 
ATOM     23  N   UNL     1      30.356  15.046  13.747  0.00  0.00    -0.255 NA
ENDBRANCH  16  17
ENDBRANCH   3  16
TORSDOF 5
ENDMDL
MODEL 6
REMARK VINA RESULT:      -6.8      5.367      8.448
REMARK  Name = ZINC000435351830
REMARK  5 active torsions:
REMARK  status: ('A' for Active; 'I' for Inactive)
REMARK    1  A    between atoms: C_2  and  C_3
REMARK    2  A    between atoms: C_7  and  C_8
REMARK    3  A    between atoms: C_8  and  C_9
REMARK    4  A    between atoms: N_11  and  C_12
REMARK    5  A    between atoms: C_12  and  C_13
REMARK                            x       y       z     vdW  Elec       q    Type
REMARK                         _______ _______ _______ _____ _____    ______ ____
ROOT
ATOM      1  C   UNL     1      32.375  16.703  16.087  0.00  0.00    +0.224 C 
ATOM      2  O   UNL     1      32.682  15.673  16.676  0.00  0.00    -0.275 OA
ATOM      3  N   UNL     1      31.884  16.749  14.808  0.00  0.00    -0.309 N 
ATOM      4  H   UNL     1      31.620  17.636  14.403  0.00  0.00    +0.149 HD
ENDROOT
BRANCH   1   5
ATOM      5  C   UNL     1      32.581  18.049  16.735  0.00  0.00    +0.072 C 
ATOM      6  C   UNL     1      33.448  18.128  17.986  0.00  0.00    +0.022 C 
ATOM      7  C   UNL     1      33.999  18.630  16.692  0.00  0.00    +0.022 C 
BRANCH   5  12
ATOM      8  C   UNL     1      30.581  20.885  15.100  0.00  0.00    +0.052 A 
ATOM      9  C   UNL     1      29.566  21.109  16.030  0.00  0.00    +0.019 A 
ATOM     10  C   UNL     1      29.481  20.309  17.169  0.00  0.00    +0.002 A 
ATOM     11  C   UNL     1      30.424  19.302  17.393  0.00  0.00    +0.005 A 
ATOM     12  C   UNL     1      31.476  19.075  16.489  0.00  0.00    -0.031 A 
ATOM     13  C   UNL     1      31.512  19.867  15.325  0.00  0.00    +0.023 A 
BRANCH   8  15
ATOM     14  N   UNL     1      30.788  22.367  12.982  0.00  0.00    -0.191 NA
ATOM     15  C   UNL     1      30.696  21.709  13.936  0.00  0.00    +0.099 C 
ENDBRANCH   8  15
ENDBRANCH   5  12
ENDBRANCH   1   5
BRANCH   3  16
ATOM     16  C   UNL     1      31.772  15.558  13.995  0.00  0.00    +0.159 C 
BRANCH  16  17
ATOM     17  C   UNL     1      30.352  15.053  13.870  0.00  0.00    +0.058 A 
ATOM     18  C   UNL     1      29.839  14.698  12.620  0.00  0.00    +0.028 A 
ATOM     19  C   UNL     1      28.519  14.259  12.527  0.00  0.00    +0.042 A 
ATOM     20  C   UNL     1      27.759  14.184  13.681  0.00  0.00    +0.141 A 
ATOM     21  F   UNL     1      26.485  13.774  13.628  0.00  0.00    -0.204 F 
ATOM     22  C   UNL     1      28.336  14.540  14.887  0.00  0.00    +0.149 A 
ATOM     23  N   UNL     1      29.616  14.967  15.012  0.00  0.00    -0.255 NA
ENDBRANCH  16  17
ENDBRANCH   3  16
TORSDOF 5
ENDMDL
MODEL 7
REMARK VINA RESULT:      -6.8      4.889      8.432
REMARK  Name = ZINC000435351830
REMARK  5 active torsions:
REMARK  status: ('A' for Active; 'I' for Inactive)
REMARK    1  A    between atoms: C_2  and  C_3
REMARK    2  A    between atoms: C_7  and  C_8
REMARK    3  A    between atoms: C_8  and  C_9
REMARK    4  A    between atoms: N_11  and  C_12
REMARK    5  A    between atoms: C_12  and  C_13
REMARK                            x       y       z     vdW  Elec       q    Type
REMARK                         _______ _______ _______ _____ _____    ______ ____
ROOT
ATOM      1  C   UNL     1      32.458  16.534  16.033  0.00  0.00    +0.224 C 
ATOM      2  O   UNL     1      32.631  15.548  16.741  0.00  0.00    -0.275 OA
ATOM      3  N   UNL     1      32.043  16.488  14.728  0.00  0.00    -0.309 N 
ATOM      4  H   UNL     1      31.889  17.347  14.219  0.00  0.00    +0.149 HD
ENDROOT
BRANCH   1   5
ATOM      5  C   UNL     1      32.761  17.916  16.553  0.00  0.00    +0.072 C 
ATOM      6  C   UNL     1      33.439  18.048  17.912  0.00  0.00    +0.022 C 
ATOM      7  C   UNL     1      34.240  18.302  16.677  0.00  0.00    +0.022 C 
BRANCH   5  12
ATOM      8  C   UNL     1      29.898  20.459  16.332  0.00  0.00    +0.052 A 
ATOM      9  C   UNL     1      30.059  20.979  15.048  0.00  0.00    +0.019 A 
ATOM     10  C   UNL     1      31.129  20.557  14.258  0.00  0.00    +0.002 A 
ATOM     11  C   UNL     1      32.023  19.597  14.741  0.00  0.00    +0.005 A 
ATOM     12  C   UNL     1      31.866  19.032  16.018  0.00  0.00    -0.031 A 
ATOM     13  C   UNL     1      30.804  19.508  16.811  0.00  0.00    +0.023 A 
BRANCH   8  15
ATOM     14  N   UNL     1      27.894  21.204  17.800  0.00  0.00    -0.191 NA
ATOM     15  C   UNL     1      28.794  20.864  17.148  0.00  0.00    +0.099 C 
ENDBRANCH   8  15
ENDBRANCH   5  12
ENDBRANCH   1   5
BRANCH   3  16
ATOM     16  C   UNL     1      31.856  15.233  14.034  0.00  0.00    +0.159 C 
BRANCH  16  17
ATOM     17  C   UNL     1      30.403  14.842  13.887  0.00  0.00    +0.058 A 
ATOM     18  C   UNL     1      29.897  14.470  12.639  0.00  0.00    +0.028 A 
ATOM     19  C   UNL     1      28.547  14.139  12.524  0.00  0.00    +0.042 A 
ATOM     20  C   UNL     1      27.752  14.184  13.655  0.00  0.00    +0.141 A 
ATOM     21  F   UNL     1      26.450  13.880  13.581  0.00  0.00    -0.204 F 
ATOM     22  C   UNL     1      28.323  14.550  14.861  0.00  0.00    +0.149 A 
ATOM     23  N   UNL     1      29.631  14.874  15.007  0.00  0.00    -0.255 NA
ENDBRANCH  16  17
ENDBRANCH   3  16
TORSDOF 5
ENDMDL
MODEL 8
REMARK VINA RESULT:      -6.5      3.881      6.246
REMARK  Name = ZINC000435351830
REMARK  5 active torsions:
REMARK  status: ('A' for Active; 'I' for Inactive)
REMARK    1  A    between atoms: C_2  and  C_3
REMARK    2  A    between atoms: C_7  and  C_8
REMARK    3  A    between atoms: C_8  and  C_9
REMARK    4  A    between atoms: N_11  and  C_12
REMARK    5  A    between atoms: C_12  and  C_13
REMARK                            x       y       z     vdW  Elec       q    Type
REMARK                         _______ _______ _______ _____ _____    ______ ____
ROOT
ATOM      1  C   UNL     1      32.207  18.396  14.671  0.00  0.00    +0.224 C 
ATOM      2  O   UNL     1      33.237  19.046  14.811  0.00  0.00    -0.275 OA
ATOM      3  N   UNL     1      30.992  18.931  14.334  0.00  0.00    -0.309 N 
ATOM      4  H   UNL     1      30.194  18.324  14.203  0.00  0.00    +0.149 HD
ENDROOT
BRANCH   1   5
ATOM      5  C   UNL     1      32.195  16.911  14.931  0.00  0.00    +0.072 C 
ATOM      6  C   UNL     1      33.308  16.313  15.784  0.00  0.00    +0.022 C 
ATOM      7  C   UNL     1      31.945  16.460  16.375  0.00  0.00    +0.022 C 
BRANCH   5  12
ATOM      8  C   UNL     1      29.505  14.766  13.233  0.00  0.00    +0.052 A 
ATOM      9  C   UNL     1      30.143  14.358  12.062  0.00  0.00    +0.019 A 
ATOM     10  C   UNL     1      31.429  14.817  11.778  0.00  0.00    +0.002 A 
ATOM     11  C   UNL     1      32.089  15.663  12.675  0.00  0.00    +0.005 A 
ATOM     12  C   UNL     1      31.481  16.064  13.878  0.00  0.00    -0.031 A 
ATOM     13  C   UNL     1      30.167  15.622  14.119  0.00  0.00    +0.023 A 
BRANCH   8  15
ATOM     14  N   UNL     1      27.129  13.892  13.798  0.00  0.00    -0.191 NA
ATOM     15  C   UNL     1      28.194  14.288  13.552  0.00  0.00    +0.099 C 
ENDBRANCH   8  15
ENDBRANCH   5  12
ENDBRANCH   1   5
BRANCH   3  16
ATOM     16  C   UNL     1      30.802  20.359  14.200  0.00  0.00    +0.159 C 
BRANCH  16  17
ATOM     17  C   UNL     1      30.105  20.982  15.388  0.00  0.00    +0.058 A 
ATOM     18  C   UNL     1      29.550  20.173  16.383  0.00  0.00    +0.028 A 
ATOM     19  C   UNL     1      28.890  20.770  17.455  0.00  0.00    +0.042 A 
ATOM     20  C   UNL     1      28.809  22.151  17.502  0.00  0.00    +0.141 A 
ATOM     21  F   UNL     1      28.176  22.759  18.513  0.00  0.00    -0.204 F 
ATOM     22  C   UNL     1      29.391  22.890  16.488  0.00  0.00    +0.149 A 
ATOM     23  N   UNL     1      30.043  22.341  15.434  0.00  0.00    -0.255 NA
ENDBRANCH  16  17
ENDBRANCH   3  16
TORSDOF 5
ENDMDL
MODEL 9
REMARK VINA RESULT:      -6.5      4.845      8.080
REMARK  Name = ZINC000435351830
REMARK  5 active torsions:
REMARK  status: ('A' for Active; 'I' for Inactive)
REMARK    1  A    between atoms: C_2  and  C_3
REMARK    2  A    between atoms: C_7  and  C_8
REMARK    3  A    between atoms: C_8  and  C_9
REMARK    4  A    between atoms: N_11  and  C_12
REMARK    5  A    between atoms: C_12  and  C_13
REMARK                            x       y       z     vdW  Elec       q    Type
REMARK                         _______ _______ _______ _____ _____    ______ ____
ROOT
ATOM      1  C   UNL     1      30.666  19.180  15.979  0.00  0.00    +0.224 C 
ATOM      2  O   UNL     1      30.087  18.999  17.045  0.00  0.00    -0.275 OA
ATOM      3  N   UNL     1      31.279  18.195  15.251  0.00  0.00    -0.309 N 
ATOM      4  H   UNL     1      31.705  18.417  14.363  0.00  0.00    +0.149 HD
ENDROOT
BRANCH   1   5
ATOM      5  C   UNL     1      30.798  20.568  15.404  0.00  0.00    +0.072 C 
ATOM      6  C   UNL     1      31.711  20.771  14.200  0.00  0.00    +0.022 C 
ATOM      7  C   UNL     1      30.232  20.792  13.996  0.00  0.00    +0.022 C 
BRANCH   5  12
ATOM      8  C   UNL     1      31.424  23.474  17.829  0.00  0.00    +0.052 A 
ATOM      9  C   UNL     1      30.141  23.746  18.306  0.00  0.00    +0.019 A 
ATOM     10  C   UNL     1      29.051  23.033  17.808  0.00  0.00    +0.002 A 
ATOM     11  C   UNL     1      29.243  22.031  16.852  0.00  0.00    +0.005 A 
ATOM     12  C   UNL     1      30.528  21.713  16.377  0.00  0.00    -0.031 A 
ATOM     13  C   UNL     1      31.605  22.479  16.864  0.00  0.00    +0.023 A 
BRANCH   8  15
ATOM     14  N   UNL     1      33.482  24.741  18.768  0.00  0.00    -0.191 NA
ATOM     15  C   UNL     1      32.557  24.180  18.344  0.00  0.00    +0.099 C 
ENDBRANCH   8  15
ENDBRANCH   5  12
ENDBRANCH   1   5
BRANCH   3  16
ATOM     16  C   UNL     1      31.373  16.837  15.741  0.00  0.00    +0.159 C 
BRANCH  16  17
ATOM     17  C   UNL     1      30.297  15.928  15.192  0.00  0.00    +0.058 A 
ATOM     18  C   UNL     1      30.227  15.668  13.821  0.00  0.00    +0.028 A 
ATOM     19  C   UNL     1      29.210  14.847  13.336  0.00  0.00    +0.042 A 
ATOM     20  C   UNL     1      28.302  14.311  14.233  0.00  0.00    +0.141 A 
ATOM     21  F   UNL     1      27.308  13.524  13.802  0.00  0.00    -0.204 F 
ATOM     22  C   UNL     1      28.439  14.601  15.578  0.00  0.00    +0.149 A 
ATOM     23  N   UNL     1      29.418  15.393  16.082  0.00  0.00    -0.255 NA
ENDBRANCH  16  17
ENDBRANCH   3  16
TORSDOF 5
ENDMDL
