MODEL 1
REMARK VINA RESULT:      -8.7      0.000      0.000
REMARK  Name = ZINC000870248439
REMARK  2 active torsions:
REMARK  status: ('A' for Active; 'I' for Inactive)
REMARK    1  A    between atoms: C_2  and  C_4
REMARK    2  A    between atoms: C_7  and  C_8
REMARK                            x       y       z     vdW  Elec       q    Type
REMARK                         _______ _______ _______ _____ _____    ______ ____
ROOT
ATOM      1  C   UNL     1      12.453   5.995  10.773  0.00  0.00    +0.247 C 
ATOM      2  O   UNL     1      11.779   7.023  10.833  0.00  0.00    -0.270 OA
ATOM      3  N   UNL     1      12.970   5.485   9.574  0.00  0.00    -0.297 N 
ATOM      4  C   UNL     1      13.747   4.251   9.439  0.00  0.00    +0.108 C 
ATOM      5  C   UNL     1      14.867   4.355   8.410  0.00  0.00    +0.026 C 
ATOM      6  C   UNL     1      14.406   4.913   7.047  0.00  0.00    -0.025 C 
ATOM      7  C   UNL     1      15.676   5.163   6.195  0.00  0.00    +0.017 C 
ATOM      8  C   UNL     1      15.416   5.686   4.789  0.00  0.00    +0.069 C 
ATOM      9  S   UNL     1      14.416   4.540   3.801  0.00  0.00    -0.161 S 
ATOM     10  C   UNL     1      13.031   4.291   4.944  0.00  0.00    +0.069 C 
ATOM     11  C   UNL     1      13.505   3.873   6.332  0.00  0.00    +0.017 C 
ATOM     12  C   UNL     1      13.667   6.248   7.327  0.00  0.00    +0.026 C 
ATOM     13  C   UNL     1      12.520   6.098   8.326  0.00  0.00    +0.108 C 
ENDROOT
BRANCH   1  17
ATOM     14  C   UNL     1      13.489   4.296  14.550  0.00  0.00    +0.037 A 
ATOM     15  C   UNL     1      14.204   3.916  13.409  0.00  0.00    +0.014 A 
ATOM     16  C   UNL     1      13.812   4.390  12.158  0.00  0.00    +0.014 A 
ATOM     17  C   UNL     1      12.770   5.318  12.055  0.00  0.00    +0.037 A 
ATOM     18  C   UNL     1      11.999   5.627  13.183  0.00  0.00    +0.014 A 
ATOM     19  C   UNL     1      12.353   5.107  14.431  0.00  0.00    +0.014 A 
BRANCH  14  21
ATOM     20  N   UNL     1      13.004   3.142  16.634  0.00  0.00    -0.325 N 
ATOM     21  C   UNL     1      13.914   3.851  15.901  0.00  0.00    +0.242 C 
ATOM     22  O   UNL     1      15.043   4.061  16.320  0.00  0.00    -0.270 OA
ATOM     23  H   UNL     1      13.344   2.740  17.498  0.00  0.00    +0.145 HD
ATOM     24  H   UNL     1      12.178   2.732  16.220  0.00  0.00    +0.145 HD
ENDBRANCH  14  21
ENDBRANCH   1  17
TORSDOF 2
ENDMDL
MODEL 2
REMARK VINA RESULT:      -7.9      1.625      2.422
REMARK  Name = ZINC000870248439
REMARK  2 active torsions:
REMARK  status: ('A' for Active; 'I' for Inactive)
REMARK    1  A    between atoms: C_2  and  C_4
REMARK    2  A    between atoms: C_7  and  C_8
REMARK                            x       y       z     vdW  Elec       q    Type
REMARK                         _______ _______ _______ _____ _____    ______ ____
ROOT
ATOM      1  C   UNL     1      11.966   4.651   8.680  0.00  0.00    +0.247 C 
ATOM      2  O   UNL     1      10.777   4.524   8.390  0.00  0.00    -0.270 OA
ATOM      3  N   UNL     1      12.990   4.690   7.724  0.00  0.00    -0.297 N 
ATOM      4  C   UNL     1      14.421   4.804   8.013  0.00  0.00    +0.108 C 
ATOM      5  C   UNL     1      15.171   5.676   7.013  0.00  0.00    +0.026 C 
ATOM      6  C   UNL     1      14.895   5.305   5.540  0.00  0.00    -0.025 C 
ATOM      7  C   UNL     1      15.541   6.403   4.658  0.00  0.00    +0.017 C 
ATOM      8  C   UNL     1      15.403   6.187   3.157  0.00  0.00    +0.069 C 
ATOM      9  S   UNL     1      16.175   4.639   2.609  0.00  0.00    -0.161 S 
ATOM     10  C   UNL     1      15.386   3.486   3.765  0.00  0.00    +0.069 C 
ATOM     11  C   UNL     1      15.545   3.935   5.214  0.00  0.00    +0.017 C 
ATOM     12  C   UNL     1      13.356   5.293   5.353  0.00  0.00    +0.026 C 
ATOM     13  C   UNL     1      12.641   4.372   6.342  0.00  0.00    +0.108 C 
ENDROOT
BRANCH   1  17
ATOM     14  C   UNL     1      12.813   4.888  12.858  0.00  0.00    +0.037 A 
ATOM     15  C   UNL     1      11.730   5.604  12.338  0.00  0.00    +0.014 A 
ATOM     16  C   UNL     1      11.503   5.611  10.961  0.00  0.00    +0.014 A 
ATOM     17  C   UNL     1      12.296   4.828  10.116  0.00  0.00    +0.037 A 
ATOM     18  C   UNL     1      13.432   4.186  10.626  0.00  0.00    +0.014 A 
ATOM     19  C   UNL     1      13.697   4.225  11.997  0.00  0.00    +0.014 A 
BRANCH  14  21
ATOM     20  N   UNL     1      11.974   5.043  15.134  0.00  0.00    -0.325 N 
ATOM     21  C   UNL     1      13.050   4.817  14.322  0.00  0.00    +0.242 C 
ATOM     22  O   UNL     1      14.142   4.518  14.781  0.00  0.00    -0.270 OA
ATOM     23  H   UNL     1      12.118   4.872  16.121  0.00  0.00    +0.145 HD
ATOM     24  H   UNL     1      11.024   5.028  14.790  0.00  0.00    +0.145 HD
ENDBRANCH  14  21
ENDBRANCH   1  17
TORSDOF 2
ENDMDL
MODEL 3
REMARK VINA RESULT:      -7.7     24.702     25.638
REMARK  Name = ZINC000870248439
REMARK  2 active torsions:
REMARK  status: ('A' for Active; 'I' for Inactive)
REMARK    1  A    between atoms: C_2  and  C_4
REMARK    2  A    between atoms: C_7  and  C_8
REMARK                            x       y       z     vdW  Elec       q    Type
REMARK                         _______ _______ _______ _____ _____    ______ ____
ROOT
ATOM      1  C   UNL     1      29.698  21.121  17.328  0.00  0.00    +0.247 C 
ATOM      2  O   UNL     1      28.629  21.711  17.479  0.00  0.00    -0.270 OA
ATOM      3  N   UNL     1      30.919  21.610  17.812  0.00  0.00    -0.297 N 
ATOM      4  C   UNL     1      32.224  20.970  17.632  0.00  0.00    +0.108 C 
ATOM      5  C   UNL     1      33.131  21.097  18.850  0.00  0.00    +0.026 C 
ATOM      6  C   UNL     1      33.252  22.540  19.385  0.00  0.00    -0.025 C 
ATOM      7  C   UNL     1      34.013  22.473  20.732  0.00  0.00    +0.017 C 
ATOM      8  C   UNL     1      34.263  23.819  21.399  0.00  0.00    +0.069 C 
ATOM      9  S   UNL     1      35.254  24.930  20.363  0.00  0.00    -0.161 S 
ATOM     10  C   UNL     1      34.292  24.845  18.829  0.00  0.00    +0.069 C 
ATOM     11  C   UNL     1      34.058  23.406  18.382  0.00  0.00    +0.017 C 
ATOM     12  C   UNL     1      31.809  23.068  19.601  0.00  0.00    +0.026 C 
ATOM     13  C   UNL     1      30.942  22.970  18.345  0.00  0.00    +0.108 C 
ENDROOT
BRANCH   1  17
ATOM     14  C   UNL     1      29.795  17.241  15.549  0.00  0.00    +0.037 A 
ATOM     15  C   UNL     1      30.283  18.337  14.828  0.00  0.00    +0.014 A 
ATOM     16  C   UNL     1      30.167  19.621  15.361  0.00  0.00    +0.014 A 
ATOM     17  C   UNL     1      29.654  19.802  16.650  0.00  0.00    +0.037 A 
ATOM     18  C   UNL     1      29.084  18.718  17.330  0.00  0.00    +0.014 A 
ATOM     19  C   UNL     1      29.145  17.438  16.774  0.00  0.00    +0.014 A 
BRANCH  14  21
ATOM     20  N   UNL     1      28.939  14.980  15.303  0.00  0.00    -0.325 N 
ATOM     21  C   UNL     1      29.951  15.858  15.033  0.00  0.00    +0.242 C 
ATOM     22  O   UNL     1      30.912  15.532  14.353  0.00  0.00    -0.270 OA
ATOM     23  H   UNL     1      28.997  14.079  14.844  0.00  0.00    +0.145 HD
ATOM     24  H   UNL     1      28.030  15.283  15.624  0.00  0.00    +0.145 HD
ENDBRANCH  14  21
ENDBRANCH   1  17
TORSDOF 2
ENDMDL
MODEL 4
REMARK VINA RESULT:      -7.5      4.468      5.814
REMARK  Name = ZINC000870248439
REMARK  2 active torsions:
REMARK  status: ('A' for Active; 'I' for Inactive)
REMARK    1  A    between atoms: C_2  and  C_4
REMARK    2  A    between atoms: C_7  and  C_8
REMARK                            x       y       z     vdW  Elec       q    Type
REMARK                         _______ _______ _______ _____ _____    ______ ____
ROOT
ATOM      1  C   UNL     1      13.261   6.358   7.714  0.00  0.00    +0.247 C 
ATOM      2  O   UNL     1      14.041   7.210   8.137  0.00  0.00    -0.270 OA
ATOM      3  N   UNL     1      13.681   5.190   7.062  0.00  0.00    -0.297 N 
ATOM      4  C   UNL     1      12.798   4.160   6.508  0.00  0.00    +0.108 C 
ATOM      5  C   UNL     1      13.334   2.746   6.690  0.00  0.00    +0.026 C 
ATOM      6  C   UNL     1      14.798   2.574   6.233  0.00  0.00    -0.025 C 
ATOM      7  C   UNL     1      15.262   1.165   6.680  0.00  0.00    +0.017 C 
ATOM      8  C   UNL     1      16.685   0.798   6.281  0.00  0.00    +0.069 C 
ATOM      9  S   UNL     1      16.923   0.814   4.483  0.00  0.00    -0.161 S 
ATOM     10  C   UNL     1      16.277   2.467   4.111  0.00  0.00    +0.069 C 
ATOM     11  C   UNL     1      14.881   2.676   4.688  0.00  0.00    +0.017 C 
ATOM     12  C   UNL     1      15.630   3.672   6.947  0.00  0.00    +0.026 C 
ATOM     13  C   UNL     1      15.092   5.082   6.703  0.00  0.00    +0.108 C 
ENDROOT
BRANCH   1  17
ATOM     14  C   UNL     1       9.063   6.693   8.412  0.00  0.00    +0.037 A 
ATOM     15  C   UNL     1       9.598   7.179   7.214  0.00  0.00    +0.014 A 
ATOM     16  C   UNL     1      10.979   7.163   7.018  0.00  0.00    +0.014 A 
ATOM     17  C   UNL     1      11.816   6.575   7.972  0.00  0.00    +0.037 A 
ATOM     18  C   UNL     1      11.289   6.172   9.206  0.00  0.00    +0.014 A 
ATOM     19  C   UNL     1       9.912   6.242   9.430  0.00  0.00    +0.014 A 
BRANCH  14  21
ATOM     20  N   UNL     1       6.963   5.470   8.344  0.00  0.00    -0.325 N 
ATOM     21  C   UNL     1       7.595   6.648   8.630  0.00  0.00    +0.242 C 
ATOM     22  O   UNL     1       6.986   7.600   9.093  0.00  0.00    -0.270 OA
ATOM     23  H   UNL     1       5.989   5.412   8.611  0.00  0.00    +0.145 HD
ATOM     24  H   UNL     1       7.466   4.603   8.218  0.00  0.00    +0.145 HD
ENDBRANCH  14  21
ENDBRANCH   1  17
TORSDOF 2
ENDMDL
MODEL 5
REMARK VINA RESULT:      -7.4      3.974      7.053
REMARK  Name = ZINC000870248439
REMARK  2 active torsions:
REMARK  status: ('A' for Active; 'I' for Inactive)
REMARK    1  A    between atoms: C_2  and  C_4
REMARK    2  A    between atoms: C_7  and  C_8
REMARK                            x       y       z     vdW  Elec       q    Type
REMARK                         _______ _______ _______ _____ _____    ______ ____
ROOT
ATOM      1  C   UNL     1      12.324   6.348   8.942  0.00  0.00    +0.247 C 
ATOM      2  O   UNL     1      12.232   6.761  10.098  0.00  0.00    -0.270 OA
ATOM      3  N   UNL     1      13.274   5.402   8.538  0.00  0.00    -0.297 N 
ATOM      4  C   UNL     1      13.451   4.902   7.172  0.00  0.00    +0.108 C 
ATOM      5  C   UNL     1      13.799   3.420   7.113  0.00  0.00    +0.026 C 
ATOM      6  C   UNL     1      14.966   3.020   8.042  0.00  0.00    -0.025 C 
ATOM      7  C   UNL     1      15.052   1.473   8.037  0.00  0.00    +0.017 C 
ATOM      8  C   UNL     1      16.180   0.888   8.878  0.00  0.00    +0.069 C 
ATOM      9  S   UNL     1      17.814   1.445   8.323  0.00  0.00    -0.161 S 
ATOM     10  C   UNL     1      17.531   3.236   8.308  0.00  0.00    +0.069 C 
ATOM     11  C   UNL     1      16.294   3.610   7.500  0.00  0.00    +0.017 C 
ATOM     12  C   UNL     1      14.618   3.541   9.461  0.00  0.00    +0.026 C 
ATOM     13  C   UNL     1      14.321   5.041   9.490  0.00  0.00    +0.108 C 
ENDROOT
BRANCH   1  17
ATOM     14  C   UNL     1       9.421   8.030   6.301  0.00  0.00    +0.037 A 
ATOM     15  C   UNL     1       9.068   6.935   7.097  0.00  0.00    +0.014 A 
ATOM     16  C   UNL     1      10.036   6.317   7.890  0.00  0.00    +0.014 A 
ATOM     17  C   UNL     1      11.327   6.851   7.964  0.00  0.00    +0.037 A 
ATOM     18  C   UNL     1      11.701   7.889   7.101  0.00  0.00    +0.014 A 
ATOM     19  C   UNL     1      10.749   8.472   6.260  0.00  0.00    +0.014 A 
BRANCH  14  21
ATOM     20  N   UNL     1       8.441  10.107   5.504  0.00  0.00    -0.325 N 
ATOM     21  C   UNL     1       8.403   8.741   5.487  0.00  0.00    +0.242 C 
ATOM     22  O   UNL     1       7.602   8.136   4.791  0.00  0.00    -0.270 OA
ATOM     23  H   UNL     1       7.825  10.578   4.853  0.00  0.00    +0.145 HD
ATOM     24  H   UNL     1       9.239  10.622   5.849  0.00  0.00    +0.145 HD
ENDBRANCH  14  21
ENDBRANCH   1  17
TORSDOF 2
ENDMDL
MODEL 6
REMARK VINA RESULT:      -7.4      4.323      8.806
REMARK  Name = ZINC000870248439
REMARK  2 active torsions:
REMARK  status: ('A' for Active; 'I' for Inactive)
REMARK    1  A    between atoms: C_2  and  C_4
REMARK    2  A    between atoms: C_7  and  C_8
REMARK                            x       y       z     vdW  Elec       q    Type
REMARK                         _______ _______ _______ _____ _____    ______ ____
ROOT
ATOM      1  C   UNL     1      13.473   3.695   5.784  0.00  0.00    +0.247 C 
ATOM      2  O   UNL     1      12.890   2.648   5.504  0.00  0.00    -0.270 OA
ATOM      3  N   UNL     1      13.389   4.308   7.042  0.00  0.00    -0.297 N 
ATOM      4  C   UNL     1      14.031   5.569   7.419  0.00  0.00    +0.108 C 
ATOM      5  C   UNL     1      14.555   5.573   8.850  0.00  0.00    +0.026 C 
ATOM      6  C   UNL     1      13.515   5.107   9.892  0.00  0.00    -0.025 C 
ATOM      7  C   UNL     1      14.252   4.956  11.247  0.00  0.00    +0.017 C 
ATOM      8  C   UNL     1      13.371   4.534  12.415  0.00  0.00    +0.069 C 
ATOM      9  S   UNL     1      12.041   5.724  12.742  0.00  0.00    -0.161 S 
ATOM     10  C   UNL     1      11.336   5.849  11.076  0.00  0.00    +0.069 C 
ATOM     11  C   UNL     1      12.398   6.174  10.031  0.00  0.00    +0.017 C 
ATOM     12  C   UNL     1      12.972   3.736   9.412  0.00  0.00    +0.026 C 
ATOM     13  C   UNL     1      12.412   3.779   7.990  0.00  0.00    +0.108 C 
ENDROOT
BRANCH   1  17
ATOM     14  C   UNL     1      15.790   5.304   2.579  0.00  0.00    +0.037 A 
ATOM     15  C   UNL     1      16.198   4.112   3.187  0.00  0.00    +0.014 A 
ATOM     16  C   UNL     1      15.505   3.630   4.298  0.00  0.00    +0.014 A 
ATOM     17  C   UNL     1      14.349   4.282   4.740  0.00  0.00    +0.037 A 
ATOM     18  C   UNL     1      13.994   5.520   4.188  0.00  0.00    +0.014 A 
ATOM     19  C   UNL     1      14.723   6.037   3.113  0.00  0.00    +0.014 A 
BRANCH  14  21
ATOM     20  N   UNL     1      17.642   6.500   1.555  0.00  0.00    -0.325 N 
ATOM     21  C   UNL     1      16.475   5.815   1.365  0.00  0.00    +0.242 C 
ATOM     22  O   UNL     1      16.046   5.589   0.244  0.00  0.00    -0.270 OA
ATOM     23  H   UNL     1      18.161   6.736   0.719  0.00  0.00    +0.145 HD
ATOM     24  H   UNL     1      18.149   6.473   2.429  0.00  0.00    +0.145 HD
ENDBRANCH  14  21
ENDBRANCH   1  17
TORSDOF 2
ENDMDL
MODEL 7
REMARK VINA RESULT:      -7.3      4.530      6.119
REMARK  Name = ZINC000870248439
REMARK  2 active torsions:
REMARK  status: ('A' for Active; 'I' for Inactive)
REMARK    1  A    between atoms: C_2  and  C_4
REMARK    2  A    between atoms: C_7  and  C_8
REMARK                            x       y       z     vdW  Elec       q    Type
REMARK                         _______ _______ _______ _____ _____    ______ ____
ROOT
ATOM      1  C   UNL     1      12.592   6.748   8.066  0.00  0.00    +0.247 C 
ATOM      2  O   UNL     1      13.231   7.755   8.368  0.00  0.00    -0.270 OA
ATOM      3  N   UNL     1      13.193   5.520   7.761  0.00  0.00    -0.297 N 
ATOM      4  C   UNL     1      12.486   4.301   7.361  0.00  0.00    +0.108 C 
ATOM      5  C   UNL     1      13.103   3.031   7.933  0.00  0.00    +0.026 C 
ATOM      6  C   UNL     1      14.627   2.928   7.708  0.00  0.00    -0.025 C 
ATOM      7  C   UNL     1      15.135   1.713   8.525  0.00  0.00    +0.017 C 
ATOM      8  C   UNL     1      16.626   1.428   8.397  0.00  0.00    +0.069 C 
ATOM      9  S   UNL     1      17.116   1.073   6.687  0.00  0.00    -0.161 S 
ATOM     10  C   UNL     1      16.397   2.519   5.864  0.00  0.00    +0.069 C 
ATOM     11  C   UNL     1      14.921   2.693   6.203  0.00  0.00    +0.017 C 
ATOM     12  C   UNL     1      15.256   4.242   8.239  0.00  0.00    +0.026 C 
ATOM     13  C   UNL     1      14.646   5.494   7.609  0.00  0.00    +0.108 C 
ENDROOT
BRANCH   1  17
ATOM     14  C   UNL     1       8.322   6.760   8.095  0.00  0.00    +0.037 A 
ATOM     15  C   UNL     1       9.000   7.265   6.980  0.00  0.00    +0.014 A 
ATOM     16  C   UNL     1      10.392   7.356   7.001  0.00  0.00    +0.014 A 
ATOM     17  C   UNL     1      11.112   6.854   8.091  0.00  0.00    +0.037 A 
ATOM     18  C   UNL     1      10.430   6.432   9.239  0.00  0.00    +0.014 A 
ATOM     19  C   UNL     1       9.033   6.396   9.245  0.00  0.00    +0.014 A 
BRANCH  14  21
ATOM     20  N   UNL     1       6.328   5.578   8.826  0.00  0.00    -0.325 N 
ATOM     21  C   UNL     1       6.846   6.602   8.083  0.00  0.00    +0.242 C 
ATOM     22  O   UNL     1       6.122   7.382   7.483  0.00  0.00    -0.270 OA
ATOM     23  H   UNL     1       5.320   5.555   8.909  0.00  0.00    +0.145 HD
ATOM     24  H   UNL     1       6.867   5.092   9.529  0.00  0.00    +0.145 HD
ENDBRANCH  14  21
ENDBRANCH   1  17
TORSDOF 2
ENDMDL
MODEL 8
REMARK VINA RESULT:      -7.2     21.752     22.474
REMARK  Name = ZINC000870248439
REMARK  2 active torsions:
REMARK  status: ('A' for Active; 'I' for Inactive)
REMARK    1  A    between atoms: C_2  and  C_4
REMARK    2  A    between atoms: C_7  and  C_8
REMARK                            x       y       z     vdW  Elec       q    Type
REMARK                         _______ _______ _______ _____ _____    ______ ____
ROOT
ATOM      1  C   UNL     1      30.512  16.004  13.737  0.00  0.00    +0.247 C 
ATOM      2  O   UNL     1      29.582  15.387  13.218  0.00  0.00    -0.270 OA
ATOM      3  N   UNL     1      31.854  15.813  13.380  0.00  0.00    -0.297 N 
ATOM      4  C   UNL     1      33.001  16.492  13.988  0.00  0.00    +0.108 C 
ATOM      5  C   UNL     1      34.094  16.842  12.986  0.00  0.00    +0.026 C 
ATOM      6  C   UNL     1      34.517  15.657  12.091  0.00  0.00    -0.025 C 
ATOM      7  C   UNL     1      35.459  16.216  10.995  0.00  0.00    +0.017 C 
ATOM      8  C   UNL     1      36.012  15.177  10.030  0.00  0.00    +0.069 C 
ATOM      9  S   UNL     1      36.990  13.903  10.873  0.00  0.00    -0.161 S 
ATOM     10  C   UNL     1      35.800  13.409  12.149  0.00  0.00    +0.069 C 
ATOM     11  C   UNL     1      35.281  14.606  12.938  0.00  0.00    +0.017 C 
ATOM     12  C   UNL     1      33.224  15.082  11.456  0.00  0.00    +0.026 C 
ATOM     13  C   UNL     1      32.168  14.697  12.492  0.00  0.00    +0.108 C 
ENDROOT
BRANCH   1  17
ATOM     14  C   UNL     1      29.222  18.951  16.544  0.00  0.00    +0.037 A 
ATOM     15  C   UNL     1      29.960  19.349  15.424  0.00  0.00    +0.014 A 
ATOM     16  C   UNL     1      30.469  18.385  14.553  0.00  0.00    +0.014 A 
ATOM     17  C   UNL     1      30.161  17.034  14.746  0.00  0.00    +0.037 A 
ATOM     18  C   UNL     1      29.500  16.630  15.913  0.00  0.00    +0.014 A 
ATOM     19  C   UNL     1      29.040  17.590  16.819  0.00  0.00    +0.014 A 
BRANCH  14  21
ATOM     20  N   UNL     1      27.274  19.875  17.666  0.00  0.00    -0.325 N 
ATOM     21  C   UNL     1      28.623  19.954  17.460  0.00  0.00    +0.242 C 
ATOM     22  O   UNL     1      29.308  20.778  18.045  0.00  0.00    -0.270 OA
ATOM     23  H   UNL     1      26.897  20.482  18.383  0.00  0.00    +0.145 HD
ATOM     24  H   UNL     1      26.734  19.059  17.414  0.00  0.00    +0.145 HD
ENDBRANCH  14  21
ENDBRANCH   1  17
TORSDOF 2
ENDMDL
MODEL 9
REMARK VINA RESULT:      -7.2      4.805      6.226
REMARK  Name = ZINC000870248439
REMARK  2 active torsions:
REMARK  status: ('A' for Active; 'I' for Inactive)
REMARK    1  A    between atoms: C_2  and  C_4
REMARK    2  A    between atoms: C_7  and  C_8
REMARK                            x       y       z     vdW  Elec       q    Type
REMARK                         _______ _______ _______ _____ _____    ______ ____
ROOT
ATOM      1  C   UNL     1       9.267   6.225   7.762  0.00  0.00    +0.247 C 
ATOM      2  O   UNL     1       8.170   5.723   8.005  0.00  0.00    -0.270 OA
ATOM      3  N   UNL     1       9.437   7.316   6.899  0.00  0.00    -0.297 N 
ATOM      4  C   UNL     1      10.719   7.931   6.546  0.00  0.00    +0.108 C 
ATOM      5  C   UNL     1      10.644   9.447   6.411  0.00  0.00    +0.026 C 
ATOM      6  C   UNL     1       9.490   9.931   5.506  0.00  0.00    -0.025 C 
ATOM      7  C   UNL     1       9.408  11.472   5.644  0.00  0.00    +0.017 C 
ATOM      8  C   UNL     1       8.341  12.140   4.788  0.00  0.00    +0.069 C 
ATOM      9  S   UNL     1       8.594  11.847   3.016  0.00  0.00    -0.161 S 
ATOM     10  C   UNL     1       8.743  10.040   3.030  0.00  0.00    +0.069 C 
ATOM     11  C   UNL     1       9.790   9.563   4.030  0.00  0.00    +0.017 C 
ATOM     12  C   UNL     1       8.190   9.268   6.032  0.00  0.00    +0.026 C 
ATOM     13  C   UNL     1       8.285   7.744   6.110  0.00  0.00    +0.108 C 
ENDROOT
BRANCH   1  17
ATOM     14  C   UNL     1      12.787   4.866   9.760  0.00  0.00    +0.037 A 
ATOM     15  C   UNL     1      12.457   4.327   8.511  0.00  0.00    +0.014 A 
ATOM     16  C   UNL     1      11.260   4.692   7.895  0.00  0.00    +0.014 A 
ATOM     17  C   UNL     1      10.440   5.666   8.477  0.00  0.00    +0.037 A 
ATOM     18  C   UNL     1      10.726   6.136   9.765  0.00  0.00    +0.014 A 
ATOM     19  C   UNL     1      11.895   5.727  10.412  0.00  0.00    +0.014 A 
BRANCH  14  21
ATOM     20  N   UNL     1      14.215   3.272  10.910  0.00  0.00    -0.325 N 
ATOM     21  C   UNL     1      14.077   4.538  10.416  0.00  0.00    +0.242 C 
ATOM     22  O   UNL     1      14.994   5.344  10.465  0.00  0.00    -0.270 OA
ATOM     23  H   UNL     1      15.138   3.022  11.244  0.00  0.00    +0.145 HD
ATOM     24  H   UNL     1      13.592   2.519  10.654  0.00  0.00    +0.145 HD
ENDBRANCH  14  21
ENDBRANCH   1  17
TORSDOF 2
ENDMDL
