MODEL 1
REMARK VINA RESULT:      -6.4      0.000      0.000
REMARK  Name = ZINC000826139982
REMARK  4 active torsions:
REMARK  status: ('A' for Active; 'I' for Inactive)
REMARK    1  A    between atoms: C_2  and  C_4
REMARK    2  A    between atoms: C_8  and  C_10
REMARK    3  A    between atoms: C_14  and  S_15
REMARK    4  A    between atoms: S_15  and  C_16
REMARK                            x       y       z     vdW  Elec       q    Type
REMARK                         _______ _______ _______ _____ _____    ______ ____
ROOT
ATOM      1  C   UNL     1      30.594  24.270  19.115  0.00  0.00    +0.093 C 
ATOM      2  C   UNL     1      29.083  24.389  19.348  0.00  0.00    +0.033 C 
ATOM      3  C   UNL     1      28.465  23.215  18.601  0.00  0.00    +0.109 C 
ATOM      4  N   UNL     1      29.404  22.939  17.534  0.00  0.00    -0.297 N 
ATOM      5  C   UNL     1      29.002  22.331  16.350  0.00  0.00    +0.247 C 
ATOM      6  O   UNL     1      27.818  22.080  16.128  0.00  0.00    -0.270 OA
ATOM      7  C   UNL     1      30.749  23.262  17.983  0.00  0.00    +0.120 C 
ENDROOT
BRANCH   5   8
ATOM      8  C   UNL     1      29.992  22.026  15.266  0.00  0.00    +0.038 A 
ATOM      9  C   UNL     1      30.429  22.970  14.332  0.00  0.00    +0.013 A 
ATOM     10  C   UNL     1      31.255  22.602  13.271  0.00  0.00    +0.002 A 
ATOM     11  C   UNL     1      31.742  21.303  13.190  0.00  0.00    +0.015 A 
ATOM     12  C   UNL     1      31.433  20.375  14.189  0.00  0.00    +0.017 A 
ATOM     13  C   UNL     1      30.530  20.729  15.202  0.00  0.00    +0.028 A 
BRANCH  12  14
ATOM     14  S   UNL     1      32.140  18.740  14.163  0.00  0.00    -0.016 S 
BRANCH  14  15
ATOM     15  C   UNL     1      30.712  17.749  13.676  0.00  0.00    +0.448 C 
ATOM     16  F   UNL     1      31.032  16.560  13.112  0.00  0.00    -0.160 F 
ATOM     17  F   UNL     1      29.923  17.482  14.744  0.00  0.00    -0.160 F 
ATOM     18  F   UNL     1      29.951  18.420  12.776  0.00  0.00    -0.160 F 
ENDBRANCH  14  15
ENDBRANCH  12  14
ENDBRANCH   5   8
BRANCH   1  20
ATOM     19  N   UNL     1      30.707  23.967  21.522  0.00  0.00    -0.329 N 
ATOM     20  C   UNL     1      31.388  23.873  20.345  0.00  0.00    +0.215 C 
ATOM     21  O   UNL     1      32.566  23.549  20.340  0.00  0.00    -0.276 OA
ATOM     22  H   UNL     1      31.220  23.778  22.375  0.00  0.00    +0.145 HD
ATOM     23  H   UNL     1      29.755  24.298  21.591  0.00  0.00    +0.145 HD
ENDBRANCH   1  20
TORSDOF 4
ENDMDL
MODEL 2
REMARK VINA RESULT:      -6.4      4.756      7.129
REMARK  Name = ZINC000826139982
REMARK  4 active torsions:
REMARK  status: ('A' for Active; 'I' for Inactive)
REMARK    1  A    between atoms: C_2  and  C_4
REMARK    2  A    between atoms: C_8  and  C_10
REMARK    3  A    between atoms: C_14  and  S_15
REMARK    4  A    between atoms: S_15  and  C_16
REMARK                            x       y       z     vdW  Elec       q    Type
REMARK                         _______ _______ _______ _____ _____    ______ ____
ROOT
ATOM      1  C   UNL     1      32.687  24.269  12.905  0.00  0.00    +0.093 C 
ATOM      2  C   UNL     1      33.377  22.953  12.530  0.00  0.00    +0.033 C 
ATOM      3  C   UNL     1      32.480  21.854  13.084  0.00  0.00    +0.109 C 
ATOM      4  N   UNL     1      31.810  22.475  14.208  0.00  0.00    -0.297 N 
ATOM      5  C   UNL     1      31.331  21.723  15.274  0.00  0.00    +0.247 C 
ATOM      6  O   UNL     1      31.529  20.510  15.345  0.00  0.00    -0.270 OA
ATOM      7  C   UNL     1      31.631  23.892  13.937  0.00  0.00    +0.120 C 
ENDROOT
BRANCH   5   8
ATOM      8  C   UNL     1      30.615  22.378  16.418  0.00  0.00    +0.038 A 
ATOM      9  C   UNL     1      29.223  22.411  16.539  0.00  0.00    +0.013 A 
ATOM     10  C   UNL     1      28.607  23.139  17.556  0.00  0.00    +0.002 A 
ATOM     11  C   UNL     1      29.382  23.759  18.531  0.00  0.00    +0.015 A 
ATOM     12  C   UNL     1      30.773  23.625  18.511  0.00  0.00    +0.017 A 
ATOM     13  C   UNL     1      31.386  22.966  17.435  0.00  0.00    +0.028 A 
BRANCH  12  14
ATOM     14  S   UNL     1      31.772  24.315  19.814  0.00  0.00    -0.016 S 
BRANCH  14  15
ATOM     15  C   UNL     1      31.183  23.379  21.241  0.00  0.00    +0.448 C 
ATOM     16  F   UNL     1      29.971  23.774  21.697  0.00  0.00    -0.160 F 
ATOM     17  F   UNL     1      31.086  22.061  20.947  0.00  0.00    -0.160 F 
ATOM     18  F   UNL     1      32.050  23.494  22.277  0.00  0.00    -0.160 F 
ENDBRANCH  14  15
ENDBRANCH  12  14
ENDBRANCH   5   8
BRANCH   1  20
ATOM     19  N   UNL     1      32.710  26.202  11.434  0.00  0.00    -0.329 N 
ATOM     20  C   UNL     1      32.093  25.023  11.730  0.00  0.00    +0.215 C 
ATOM     21  O   UNL     1      31.102  24.674  11.107  0.00  0.00    -0.276 OA
ATOM     22  H   UNL     1      32.303  26.770  10.701  0.00  0.00    +0.145 HD
ATOM     23  H   UNL     1      33.488  26.572  11.961  0.00  0.00    +0.145 HD
ENDBRANCH   1  20
TORSDOF 4
ENDMDL
MODEL 3
REMARK VINA RESULT:      -6.4      2.039      2.643
REMARK  Name = ZINC000826139982
REMARK  4 active torsions:
REMARK  status: ('A' for Active; 'I' for Inactive)
REMARK    1  A    between atoms: C_2  and  C_4
REMARK    2  A    between atoms: C_8  and  C_10
REMARK    3  A    between atoms: C_14  and  S_15
REMARK    4  A    between atoms: S_15  and  C_16
REMARK                            x       y       z     vdW  Elec       q    Type
REMARK                         _______ _______ _______ _____ _____    ______ ____
ROOT
ATOM      1  C   UNL     1      31.638  22.964  20.186  0.00  0.00    +0.093 C 
ATOM      2  C   UNL     1      33.003  23.638  20.006  0.00  0.00    +0.033 C 
ATOM      3  C   UNL     1      32.972  24.247  18.611  0.00  0.00    +0.109 C 
ATOM      4  N   UNL     1      32.042  23.413  17.879  0.00  0.00    -0.297 N 
ATOM      5  C   UNL     1      32.115  23.283  16.497  0.00  0.00    +0.247 C 
ATOM      6  O   UNL     1      33.022  23.804  15.850  0.00  0.00    -0.270 OA
ATOM      7  C   UNL     1      31.027  22.912  18.791  0.00  0.00    +0.120 C 
ENDROOT
BRANCH   5   8
ATOM      8  C   UNL     1      31.126  22.436  15.751  0.00  0.00    +0.038 A 
ATOM      9  C   UNL     1      29.755  22.706  15.710  0.00  0.00    +0.013 A 
ATOM     10  C   UNL     1      28.866  21.818  15.106  0.00  0.00    +0.002 A 
ATOM     11  C   UNL     1      29.351  20.699  14.438  0.00  0.00    +0.015 A 
ATOM     12  C   UNL     1      30.728  20.480  14.344  0.00  0.00    +0.017 A 
ATOM     13  C   UNL     1      31.608  21.329  15.031  0.00  0.00    +0.028 A 
BRANCH  12  14
ATOM     14  S   UNL     1      31.371  19.115  13.398  0.00  0.00    -0.016 S 
BRANCH  14  15
ATOM     15  C   UNL     1      31.175  17.755  14.568  0.00  0.00    +0.448 C 
ATOM     16  F   UNL     1      31.660  18.017  15.804  0.00  0.00    -0.160 F 
ATOM     17  F   UNL     1      29.868  17.429  14.715  0.00  0.00    -0.160 F 
ATOM     18  F   UNL     1      31.814  16.646  14.120  0.00  0.00    -0.160 F 
ENDBRANCH  14  15
ENDBRANCH  12  14
ENDBRANCH   5   8
BRANCH   1  20
ATOM     19  N   UNL     1      31.341  24.080  22.323  0.00  0.00    -0.329 N 
ATOM     20  C   UNL     1      30.725  23.652  21.183  0.00  0.00    +0.215 C 
ATOM     21  O   UNL     1      29.517  23.781  21.051  0.00  0.00    -0.276 OA
ATOM     22  H   UNL     1      30.756  24.482  23.045  0.00  0.00    +0.145 HD
ATOM     23  H   UNL     1      32.321  23.935  22.515  0.00  0.00    +0.145 HD
ENDBRANCH   1  20
TORSDOF 4
ENDMDL
MODEL 4
REMARK VINA RESULT:      -6.3      4.437      6.623
REMARK  Name = ZINC000826139982
REMARK  4 active torsions:
REMARK  status: ('A' for Active; 'I' for Inactive)
REMARK    1  A    between atoms: C_2  and  C_4
REMARK    2  A    between atoms: C_8  and  C_10
REMARK    3  A    between atoms: C_14  and  S_15
REMARK    4  A    between atoms: S_15  and  C_16
REMARK                            x       y       z     vdW  Elec       q    Type
REMARK                         _______ _______ _______ _____ _____    ______ ____
ROOT
ATOM      1  C   UNL     1      32.221  18.873  14.488  0.00  0.00    +0.093 C 
ATOM      2  C   UNL     1      32.166  19.295  13.016  0.00  0.00    +0.033 C 
ATOM      3  C   UNL     1      32.044  20.813  13.035  0.00  0.00    +0.109 C 
ATOM      4  N   UNL     1      31.395  21.101  14.297  0.00  0.00    -0.297 N 
ATOM      5  C   UNL     1      30.642  22.255  14.480  0.00  0.00    +0.247 C 
ATOM      6  O   UNL     1      30.428  23.036  13.554  0.00  0.00    -0.270 OA
ATOM      7  C   UNL     1      31.786  20.101  15.277  0.00  0.00    +0.120 C 
ENDROOT
BRANCH   5   8
ATOM      8  C   UNL     1      29.999  22.552  15.803  0.00  0.00    +0.038 A 
ATOM      9  C   UNL     1      28.690  22.179  16.125  0.00  0.00    +0.013 A 
ATOM     10  C   UNL     1      28.101  22.589  17.320  0.00  0.00    +0.002 A 
ATOM     11  C   UNL     1      28.850  23.290  18.258  0.00  0.00    +0.015 A 
ATOM     12  C   UNL     1      30.202  23.555  18.020  0.00  0.00    +0.017 A 
ATOM     13  C   UNL     1      30.761  23.218  16.778  0.00  0.00    +0.028 A 
BRANCH  12  14
ATOM     14  S   UNL     1      31.206  24.351  19.257  0.00  0.00    -0.016 S 
BRANCH  14  15
ATOM     15  C   UNL     1      31.709  22.938  20.262  0.00  0.00    +0.448 C 
ATOM     16  F   UNL     1      30.727  22.448  21.056  0.00  0.00    -0.160 F 
ATOM     17  F   UNL     1      32.132  21.916  19.480  0.00  0.00    -0.160 F 
ATOM     18  F   UNL     1      32.742  23.273  21.073  0.00  0.00    -0.160 F 
ENDBRANCH  14  15
ENDBRANCH  12  14
ENDBRANCH   5   8
BRANCH   1  20
ATOM     19  N   UNL     1      33.800  18.438  16.283  0.00  0.00    -0.329 N 
ATOM     20  C   UNL     1      33.573  18.353  14.941  0.00  0.00    +0.215 C 
ATOM     21  O   UNL     1      34.448  17.940  14.194  0.00  0.00    -0.276 OA
ATOM     22  H   UNL     1      34.716  18.167  16.619  0.00  0.00    +0.145 HD
ATOM     23  H   UNL     1      33.141  18.837  16.936  0.00  0.00    +0.145 HD
ENDBRANCH   1  20
TORSDOF 4
ENDMDL
MODEL 5
REMARK VINA RESULT:      -6.3      4.662      6.958
REMARK  Name = ZINC000826139982
REMARK  4 active torsions:
REMARK  status: ('A' for Active; 'I' for Inactive)
REMARK    1  A    between atoms: C_2  and  C_4
REMARK    2  A    between atoms: C_8  and  C_10
REMARK    3  A    between atoms: C_14  and  S_15
REMARK    4  A    between atoms: S_15  and  C_16
REMARK                            x       y       z     vdW  Elec       q    Type
REMARK                         _______ _______ _______ _____ _____    ______ ____
ROOT
ATOM      1  C   UNL     1      30.064  22.049  15.619  0.00  0.00    +0.093 C 
ATOM      2  C   UNL     1      28.575  21.739  15.804  0.00  0.00    +0.033 C 
ATOM      3  C   UNL     1      28.082  22.727  16.852  0.00  0.00    +0.109 C 
ATOM      4  N   UNL     1      29.260  23.025  17.641  0.00  0.00    -0.297 N 
ATOM      5  C   UNL     1      29.163  23.442  18.963  0.00  0.00    +0.247 C 
ATOM      6  O   UNL     1      28.078  23.496  19.541  0.00  0.00    -0.270 OA
ATOM      7  C   UNL     1      30.438  22.947  16.793  0.00  0.00    +0.120 C 
ENDROOT
BRANCH   5   8
ATOM      8  C   UNL     1      30.392  23.773  19.758  0.00  0.00    +0.038 A 
ATOM      9  C   UNL     1      30.796  23.056  20.888  0.00  0.00    +0.013 A 
ATOM     10  C   UNL     1      31.875  23.481  21.661  0.00  0.00    +0.002 A 
ATOM     11  C   UNL     1      32.632  24.573  21.252  0.00  0.00    +0.015 A 
ATOM     12  C   UNL     1      32.334  25.223  20.051  0.00  0.00    +0.017 A 
ATOM     13  C   UNL     1      31.193  24.844  19.328  0.00  0.00    +0.028 A 
BRANCH  12  14
ATOM     14  S   UNL     1      33.361  26.551  19.456  0.00  0.00    -0.016 S 
BRANCH  14  15
ATOM     15  C   UNL     1      34.345  25.698  18.206  0.00  0.00    +0.448 C 
ATOM     16  F   UNL     1      34.967  24.584  18.659  0.00  0.00    -0.160 F 
ATOM     17  F   UNL     1      33.574  25.322  17.157  0.00  0.00    -0.160 F 
ATOM     18  F   UNL     1      35.310  26.517  17.718  0.00  0.00    -0.160 F 
ENDBRANCH  14  15
ENDBRANCH  12  14
ENDBRANCH   5   8
BRANCH   1  20
ATOM     19  N   UNL     1      30.007  23.976  14.140  0.00  0.00    -0.329 N 
ATOM     20  C   UNL     1      30.411  22.681  14.284  0.00  0.00    +0.215 C 
ATOM     21  O   UNL     1      30.952  22.099  13.356  0.00  0.00    -0.276 OA
ATOM     22  H   UNL     1      30.157  24.414  13.240  0.00  0.00    +0.145 HD
ATOM     23  H   UNL     1      29.494  24.482  14.847  0.00  0.00    +0.145 HD
ENDBRANCH   1  20
TORSDOF 4
ENDMDL
MODEL 6
REMARK VINA RESULT:      -6.3      4.591      7.115
REMARK  Name = ZINC000826139982
REMARK  4 active torsions:
REMARK  status: ('A' for Active; 'I' for Inactive)
REMARK    1  A    between atoms: C_2  and  C_4
REMARK    2  A    between atoms: C_8  and  C_10
REMARK    3  A    between atoms: C_14  and  S_15
REMARK    4  A    between atoms: S_15  and  C_16
REMARK                            x       y       z     vdW  Elec       q    Type
REMARK                         _______ _______ _______ _____ _____    ______ ____
ROOT
ATOM      1  C   UNL     1      32.637  22.826  12.130  0.00  0.00    +0.093 C 
ATOM      2  C   UNL     1      33.462  21.535  12.141  0.00  0.00    +0.033 C 
ATOM      3  C   UNL     1      32.632  20.531  12.930  0.00  0.00    +0.109 C 
ATOM      4  N   UNL     1      31.840  21.349  13.825  0.00  0.00    -0.297 N 
ATOM      5  C   UNL     1      31.362  20.854  15.031  0.00  0.00    +0.247 C 
ATOM      6  O   UNL     1      31.662  19.727  15.427  0.00  0.00    -0.270 OA
ATOM      7  C   UNL     1      31.555  22.623  13.183  0.00  0.00    +0.120 C 
ENDROOT
BRANCH   5   8
ATOM      8  C   UNL     1      30.520  21.705  15.934  0.00  0.00    +0.038 A 
ATOM      9  C   UNL     1      29.123  21.728  15.891  0.00  0.00    +0.013 A 
ATOM     10  C   UNL     1      28.394  22.629  16.666  0.00  0.00    +0.002 A 
ATOM     11  C   UNL     1      29.052  23.449  17.577  0.00  0.00    +0.015 A 
ATOM     12  C   UNL     1      30.436  23.347  17.740  0.00  0.00    +0.017 A 
ATOM     13  C   UNL     1      31.169  22.503  16.893  0.00  0.00    +0.028 A 
BRANCH  12  14
ATOM     14  S   UNL     1      31.280  24.307  18.980  0.00  0.00    -0.016 S 
BRANCH  14  15
ATOM     15  C   UNL     1      31.375  23.119  20.337  0.00  0.00    +0.448 C 
ATOM     16  F   UNL     1      31.769  21.880  19.959  0.00  0.00    -0.160 F 
ATOM     17  F   UNL     1      32.246  23.540  21.286  0.00  0.00    -0.160 F 
ATOM     18  F   UNL     1      30.167  22.983  20.937  0.00  0.00    -0.160 F 
ENDBRANCH  14  15
ENDBRANCH  12  14
ENDBRANCH   5   8
BRANCH   1  20
ATOM     19  N   UNL     1      32.075  22.178   9.857  0.00  0.00    -0.329 N 
ATOM     20  C   UNL     1      32.054  23.186  10.776  0.00  0.00    +0.215 C 
ATOM     21  O   UNL     1      31.646  24.294  10.464  0.00  0.00    -0.276 OA
ATOM     22  H   UNL     1      31.760  22.395   8.920  0.00  0.00    +0.145 HD
ATOM     23  H   UNL     1      32.466  21.265  10.039  0.00  0.00    +0.145 HD
ENDBRANCH   1  20
TORSDOF 4
ENDMDL
MODEL 7
REMARK VINA RESULT:      -6.3      4.521      6.701
REMARK  Name = ZINC000826139982
REMARK  4 active torsions:
REMARK  status: ('A' for Active; 'I' for Inactive)
REMARK    1  A    between atoms: C_2  and  C_4
REMARK    2  A    between atoms: C_8  and  C_10
REMARK    3  A    between atoms: C_14  and  S_15
REMARK    4  A    between atoms: S_15  and  C_16
REMARK                            x       y       z     vdW  Elec       q    Type
REMARK                         _______ _______ _______ _____ _____    ______ ____
ROOT
ATOM      1  C   UNL     1      31.984  18.089  14.804  0.00  0.00    +0.093 C 
ATOM      2  C   UNL     1      30.589  17.716  14.289  0.00  0.00    +0.033 C 
ATOM      3  C   UNL     1      29.983  19.019  13.784  0.00  0.00    +0.109 C 
ATOM      4  N   UNL     1      30.638  20.044  14.571  0.00  0.00    -0.297 N 
ATOM      5  C   UNL     1      30.036  21.273  14.809  0.00  0.00    +0.247 C 
ATOM      6  O   UNL     1      28.888  21.510  14.433  0.00  0.00    -0.270 OA
ATOM      7  C   UNL     1      31.987  19.610  14.895  0.00  0.00    +0.120 C 
ENDROOT
BRANCH   5   8
ATOM      8  C   UNL     1      30.739  22.334  15.602  0.00  0.00    +0.038 A 
ATOM      9  C   UNL     1      31.756  23.141  15.081  0.00  0.00    +0.013 A 
ATOM     10  C   UNL     1      32.460  24.025  15.896  0.00  0.00    +0.002 A 
ATOM     11  C   UNL     1      32.085  24.193  17.224  0.00  0.00    +0.015 A 
ATOM     12  C   UNL     1      30.982  23.500  17.734  0.00  0.00    +0.017 A 
ATOM     13  C   UNL     1      30.337  22.548  16.932  0.00  0.00    +0.028 A 
BRANCH  12  14
ATOM     14  S   UNL     1      30.418  23.787  19.398  0.00  0.00    -0.016 S 
BRANCH  14  15
ATOM     15  C   UNL     1      31.582  22.780  20.341  0.00  0.00    +0.448 C 
ATOM     16  F   UNL     1      32.625  23.476  20.853  0.00  0.00    -0.160 F 
ATOM     17  F   UNL     1      30.963  22.173  21.381  0.00  0.00    -0.160 F 
ATOM     18  F   UNL     1      32.106  21.802  19.562  0.00  0.00    -0.160 F 
ENDBRANCH  14  15
ENDBRANCH  12  14
ENDBRANCH   5   8
BRANCH   1  20
ATOM     19  N   UNL     1      34.226  17.166  14.654  0.00  0.00    -0.329 N 
ATOM     20  C   UNL     1      33.126  17.566  13.953  0.00  0.00    +0.215 C 
ATOM     21  O   UNL     1      33.134  17.544  12.732  0.00  0.00    -0.276 OA
ATOM     22  H   UNL     1      35.037  16.875  14.122  0.00  0.00    +0.145 HD
ATOM     23  H   UNL     1      34.301  17.229  15.659  0.00  0.00    +0.145 HD
ENDBRANCH   1  20
TORSDOF 4
ENDMDL
MODEL 8
REMARK VINA RESULT:      -6.1      4.876      6.976
REMARK  Name = ZINC000826139982
REMARK  4 active torsions:
REMARK  status: ('A' for Active; 'I' for Inactive)
REMARK    1  A    between atoms: C_2  and  C_4
REMARK    2  A    between atoms: C_8  and  C_10
REMARK    3  A    between atoms: C_14  and  S_15
REMARK    4  A    between atoms: S_15  and  C_16
REMARK                            x       y       z     vdW  Elec       q    Type
REMARK                         _______ _______ _______ _____ _____    ______ ____
ROOT
ATOM      1  C   UNL     1      32.326  23.865  12.494  0.00  0.00    +0.093 C 
ATOM      2  C   UNL     1      31.014  23.303  11.936  0.00  0.00    +0.033 C 
ATOM      3  C   UNL     1      30.061  23.246  13.122  0.00  0.00    +0.109 C 
ATOM      4  N   UNL     1      30.931  23.099  14.270  0.00  0.00    -0.297 N 
ATOM      5  C   UNL     1      30.491  22.499  15.444  0.00  0.00    +0.247 C 
ATOM      6  O   UNL     1      29.372  21.995  15.527  0.00  0.00    -0.270 OA
ATOM      7  C   UNL     1      32.189  23.780  14.009  0.00  0.00    +0.120 C 
ENDROOT
BRANCH   5   8
ATOM      8  C   UNL     1      31.397  22.379  16.634  0.00  0.00    +0.038 A 
ATOM      9  C   UNL     1      32.403  21.415  16.743  0.00  0.00    +0.013 A 
ATOM     10  C   UNL     1      33.133  21.269  17.922  0.00  0.00    +0.002 A 
ATOM     11  C   UNL     1      32.938  22.159  18.973  0.00  0.00    +0.015 A 
ATOM     12  C   UNL     1      32.036  23.218  18.836  0.00  0.00    +0.017 A 
ATOM     13  C   UNL     1      31.243  23.302  17.682  0.00  0.00    +0.028 A 
BRANCH  12  14
ATOM     14  S   UNL     1      31.857  24.433  20.126  0.00  0.00    -0.016 S 
BRANCH  14  15
ATOM     15  C   UNL     1      31.020  23.467  21.402  0.00  0.00    +0.448 C 
ATOM     16  F   UNL     1      30.992  22.136  21.157  0.00  0.00    -0.160 F 
ATOM     17  F   UNL     1      31.619  23.637  22.605  0.00  0.00    -0.160 F 
ATOM     18  F   UNL     1      29.733  23.871  21.537  0.00  0.00    -0.160 F 
ENDBRANCH  14  15
ENDBRANCH  12  14
ENDBRANCH   5   8
BRANCH   1  20
ATOM     19  N   UNL     1      33.985  25.540  11.911  0.00  0.00    -0.329 N 
ATOM     20  C   UNL     1      32.654  25.271  12.028  0.00  0.00    +0.215 C 
ATOM     21  O   UNL     1      31.829  26.149  11.823  0.00  0.00    -0.276 OA
ATOM     22  H   UNL     1      34.250  26.488  11.670  0.00  0.00    +0.145 HD
ATOM     23  H   UNL     1      34.711  24.875  12.137  0.00  0.00    +0.145 HD
ENDBRANCH   1  20
TORSDOF 4
ENDMDL
MODEL 9
REMARK VINA RESULT:      -6.1      3.657      4.582
REMARK  Name = ZINC000826139982
REMARK  4 active torsions:
REMARK  status: ('A' for Active; 'I' for Inactive)
REMARK    1  A    between atoms: C_2  and  C_4
REMARK    2  A    between atoms: C_8  and  C_10
REMARK    3  A    between atoms: C_14  and  S_15
REMARK    4  A    between atoms: S_15  and  C_16
REMARK                            x       y       z     vdW  Elec       q    Type
REMARK                         _______ _______ _______ _____ _____    ______ ____
ROOT
ATOM      1  C   UNL     1      31.340  23.420  17.085  0.00  0.00    +0.093 C 
ATOM      2  C   UNL     1      29.913  22.872  17.205  0.00  0.00    +0.033 C 
ATOM      3  C   UNL     1      29.636  22.174  15.880  0.00  0.00    +0.109 C 
ATOM      4  N   UNL     1      30.483  22.864  14.930  0.00  0.00    -0.297 N 
ATOM      5  C   UNL     1      30.170  22.911  13.577  0.00  0.00    +0.247 C 
ATOM      6  O   UNL     1      29.119  22.440  13.145  0.00  0.00    -0.270 OA
ATOM      7  C   UNL     1      31.687  23.321  15.605  0.00  0.00    +0.120 C 
ENDROOT
BRANCH   5   8
ATOM      8  C   UNL     1      31.073  23.607  12.602  0.00  0.00    +0.038 A 
ATOM      9  C   UNL     1      31.137  24.997  12.466  0.00  0.00    +0.013 A 
ATOM     10  C   UNL     1      31.901  25.586  11.460  0.00  0.00    +0.002 A 
ATOM     11  C   UNL     1      32.696  24.794  10.640  0.00  0.00    +0.015 A 
ATOM     12  C   UNL     1      32.757  23.412  10.845  0.00  0.00    +0.017 A 
ATOM     13  C   UNL     1      31.918  22.821  11.800  0.00  0.00    +0.028 A 
BRANCH  12  14
ATOM     14  S   UNL     1      33.857  22.397   9.880  0.00  0.00    -0.016 S 
BRANCH  14  15
ATOM     15  C   UNL     1      32.829  22.038   8.440  0.00  0.00    +0.448 C 
ATOM     16  F   UNL     1      32.278  23.134   7.868  0.00  0.00    -0.160 F 
ATOM     17  F   UNL     1      33.546  21.407   7.480  0.00  0.00    -0.160 F 
ATOM     18  F   UNL     1      31.806  21.214   8.779  0.00  0.00    -0.160 F 
ENDBRANCH  14  15
ENDBRANCH  12  14
ENDBRANCH   5   8
BRANCH   1  20
ATOM     19  N   UNL     1      32.034  22.648  19.282  0.00  0.00    -0.329 N 
ATOM     20  C   UNL     1      32.358  22.711  17.959  0.00  0.00    +0.215 C 
ATOM     21  O   UNL     1      33.429  22.272  17.567  0.00  0.00    -0.276 OA
ATOM     22  H   UNL     1      32.717  22.245  19.911  0.00  0.00    +0.145 HD
ATOM     23  H   UNL     1      31.197  23.057  19.671  0.00  0.00    +0.145 HD
ENDBRANCH   1  20
TORSDOF 4
ENDMDL
