MODEL 1
REMARK VINA RESULT:      -7.6      0.000      0.000
REMARK  Name = ZINC000329563636
REMARK  3 active torsions:
REMARK  status: ('A' for Active; 'I' for Inactive)
REMARK    1  A    between atoms: C_1  and  C_2
REMARK    2  A    between atoms: C_2  and  N_3
REMARK    3  A    between atoms: N_9  and  C_10
REMARK                            x       y       z     vdW  Elec       q    Type
REMARK                         _______ _______ _______ _____ _____    ______ ____
ROOT
ATOM      1  C   UNL     1      10.940   4.864   8.295  0.00  0.00    +0.112 C 
ATOM      2  C   UNL     1      11.978   4.085   7.481  0.00  0.00    +0.075 C 
ATOM      3  C   UNL     1      13.228   3.656   8.264  0.00  0.00    +0.113 C 
ATOM      4  C   UNL     1      13.076   2.332   9.057  0.00  0.00    +0.048 C 
ATOM      5  C   UNL     1      13.981   1.315   8.370  0.00  0.00    +0.004 C 
ATOM      6  C   UNL     1      15.098   2.154   7.783  0.00  0.00    +0.004 C 
ATOM      7  C   UNL     1      14.365   3.373   7.250  0.00  0.00    +0.048 C 
ATOM      8  O   UNL     1      13.693   4.699   9.142  0.00  0.00    -0.485 OA
ATOM      9  C   UNL     1      12.740   5.116  10.033  0.00  0.00    +0.126 A 
ATOM     10  C   UNL     1      13.164   5.477  11.310  0.00  0.00    +0.046 A 
ATOM     11  C   UNL     1      12.232   5.871  12.271  0.00  0.00    +0.004 A 
ATOM     12  C   UNL     1      10.878   5.924  11.948  0.00  0.00    +0.001 A 
ATOM     13  C   UNL     1      10.460   5.592  10.659  0.00  0.00    +0.009 A 
ATOM     14  C   UNL     1      11.392   5.184   9.690  0.00  0.00    +0.015 A 
ENDROOT
BRANCH   1  21
ATOM     15  N   UNL     1       8.599  10.449   6.584  0.00  0.00    -0.299 N 
ATOM     16  C   UNL     1       7.601   9.491   7.056  0.00  0.00    +0.127 C 
ATOM     17  C   UNL     1       7.775   8.115   6.419  0.00  0.00    +0.129 C 
ATOM     18  N   UNL     1       9.129   7.645   6.673  0.00  0.00    -0.275 N 
ATOM     19  C   UNL     1       9.311   6.471   7.369  0.00  0.00    +0.303 C 
ATOM     20  O   UNL     1       8.370   5.796   7.783  0.00  0.00    -0.253 OA
ATOM     21  N   UNL     1      10.606   6.111   7.607  0.00  0.00    -0.292 N 
ATOM     22  C   UNL     1      10.182   8.538   6.182  0.00  0.00    +0.205 C 
ATOM     23  C   UNL     1       9.841  10.041   6.111  0.00  0.00    +0.233 C 
ATOM     24  O   UNL     1      10.666  10.838   5.659  0.00  0.00    -0.274 OA
ATOM     25  H   UNL     1      11.315   6.453   6.981  0.00  0.00    +0.151 HD
BRANCH  15  27
ATOM     26  C   UNL     1       6.851  12.131   7.047  0.00  0.00    +0.024 C 
ATOM     27  C   UNL     1       8.314  11.872   6.733  0.00  0.00    +0.104 C 
ENDBRANCH  15  27
ENDBRANCH   1  21
TORSDOF 2
ENDMDL
MODEL 2
REMARK VINA RESULT:      -7.4      2.525      4.146
REMARK  Name = ZINC000329563636
REMARK  3 active torsions:
REMARK  status: ('A' for Active; 'I' for Inactive)
REMARK    1  A    between atoms: C_1  and  C_2
REMARK    2  A    between atoms: C_2  and  N_3
REMARK    3  A    between atoms: N_9  and  C_10
REMARK                            x       y       z     vdW  Elec       q    Type
REMARK                         _______ _______ _______ _____ _____    ______ ____
ROOT
ATOM      1  C   UNL     1      14.171   4.833   7.510  0.00  0.00    +0.112 C 
ATOM      2  C   UNL     1      15.282   5.623   8.207  0.00  0.00    +0.075 C 
ATOM      3  C   UNL     1      16.077   4.835   9.259  0.00  0.00    +0.113 C 
ATOM      4  C   UNL     1      17.243   3.985   8.691  0.00  0.00    +0.048 C 
ATOM      5  C   UNL     1      18.529   4.637   9.186  0.00  0.00    +0.004 C 
ATOM      6  C   UNL     1      18.137   5.272  10.506  0.00  0.00    +0.004 C 
ATOM      7  C   UNL     1      16.763   5.848  10.210  0.00  0.00    +0.048 C 
ATOM      8  O   UNL     1      15.220   4.007  10.067  0.00  0.00    -0.485 OA
ATOM      9  C   UNL     1      14.474   3.125   9.330  0.00  0.00    +0.126 A 
ATOM     10  C   UNL     1      14.231   1.869   9.882  0.00  0.00    +0.046 A 
ATOM     11  C   UNL     1      13.511   0.917   9.158  0.00  0.00    +0.004 A 
ATOM     12  C   UNL     1      13.019   1.227   7.893  0.00  0.00    +0.001 A 
ATOM     13  C   UNL     1      13.238   2.497   7.358  0.00  0.00    +0.009 A 
ATOM     14  C   UNL     1      13.970   3.457   8.076  0.00  0.00    +0.015 A 
ENDROOT
BRANCH   1  21
ATOM     15  N   UNL     1       8.857   7.989   6.327  0.00  0.00    -0.299 N 
ATOM     16  C   UNL     1      10.023   8.462   5.582  0.00  0.00    +0.127 C 
ATOM     17  C   UNL     1      11.246   8.639   6.477  0.00  0.00    +0.129 C 
ATOM     18  N   UNL     1      11.520   7.381   7.157  0.00  0.00    -0.275 N 
ATOM     19  C   UNL     1      12.736   6.765   6.961  0.00  0.00    +0.303 C 
ATOM     20  O   UNL     1      13.608   7.240   6.235  0.00  0.00    -0.253 OA
ATOM     21  N   UNL     1      12.910   5.570   7.595  0.00  0.00    -0.292 N 
ATOM     22  C   UNL     1      10.407   6.873   7.962  0.00  0.00    +0.205 C 
ATOM     23  C   UNL     1       8.985   7.258   7.503  0.00  0.00    +0.233 C 
ATOM     24  O   UNL     1       8.007   6.904   8.167  0.00  0.00    -0.274 OA
ATOM     25  H   UNL     1      12.371   5.391   8.426  0.00  0.00    +0.151 HD
BRANCH  15  27
ATOM     26  C   UNL     1       7.607   8.477   4.254  0.00  0.00    +0.024 C 
ATOM     27  C   UNL     1       7.535   8.194   5.744  0.00  0.00    +0.104 C 
ENDBRANCH  15  27
ENDBRANCH   1  21
TORSDOF 2
ENDMDL
MODEL 3
REMARK VINA RESULT:      -7.0     23.912     26.045
REMARK  Name = ZINC000329563636
REMARK  3 active torsions:
REMARK  status: ('A' for Active; 'I' for Inactive)
REMARK    1  A    between atoms: C_1  and  C_2
REMARK    2  A    between atoms: C_2  and  N_3
REMARK    3  A    between atoms: N_9  and  C_10
REMARK                            x       y       z     vdW  Elec       q    Type
REMARK                         _______ _______ _______ _____ _____    ______ ____
ROOT
ATOM      1  C   UNL     1      30.369  20.803  15.460  0.00  0.00    +0.112 C 
ATOM      2  C   UNL     1      30.682  20.877  16.958  0.00  0.00    +0.075 C 
ATOM      3  C   UNL     1      31.429  22.143  17.402  0.00  0.00    +0.113 C 
ATOM      4  C   UNL     1      30.522  23.369  17.684  0.00  0.00    +0.048 C 
ATOM      5  C   UNL     1      30.588  23.614  19.187  0.00  0.00    +0.004 C 
ATOM      6  C   UNL     1      31.965  23.118  19.581  0.00  0.00    +0.004 C 
ATOM      7  C   UNL     1      32.118  21.850  18.760  0.00  0.00    +0.048 C 
ATOM      8  O   UNL     1      32.465  22.508  16.471  0.00  0.00    -0.485 OA
ATOM      9  C   UNL     1      31.999  22.699  15.197  0.00  0.00    +0.126 A 
ATOM     10  C   UNL     1      32.597  23.701  14.435  0.00  0.00    +0.046 A 
ATOM     11  C   UNL     1      32.136  23.967  13.145  0.00  0.00    +0.004 A 
ATOM     12  C   UNL     1      31.090  23.218  12.610  0.00  0.00    +0.001 A 
ATOM     13  C   UNL     1      30.515  22.195  13.364  0.00  0.00    +0.009 A 
ATOM     14  C   UNL     1      30.967  21.928  14.668  0.00  0.00    +0.015 A 
ENDROOT
BRANCH   1  21
ATOM     15  N   UNL     1      30.930  15.144  12.764  0.00  0.00    -0.299 N 
ATOM     16  C   UNL     1      29.837  15.251  13.730  0.00  0.00    +0.127 C 
ATOM     17  C   UNL     1      30.281  15.912  15.032  0.00  0.00    +0.129 C 
ATOM     18  N   UNL     1      30.856  17.215  14.729  0.00  0.00    -0.275 N 
ATOM     19  C   UNL     1      30.285  18.342  15.274  0.00  0.00    +0.303 C 
ATOM     20  O   UNL     1      29.306  18.294  16.018  0.00  0.00    -0.253 OA
ATOM     21  N   UNL     1      30.848  19.533  14.916  0.00  0.00    -0.292 N 
ATOM     22  C   UNL     1      31.989  17.176  13.800  0.00  0.00    +0.205 C 
ATOM     23  C   UNL     1      32.012  16.017  12.780  0.00  0.00    +0.233 C 
ATOM     24  O   UNL     1      32.963  15.899  12.006  0.00  0.00    -0.274 OA
ATOM     25  H   UNL     1      31.812  19.532  14.627  0.00  0.00    +0.151 HD
BRANCH  15  27
ATOM     26  C   UNL     1      29.356  13.913  11.313  0.00  0.00    +0.024 C 
ATOM     27  C   UNL     1      30.806  14.167  11.687  0.00  0.00    +0.104 C 
ENDBRANCH  15  27
ENDBRANCH   1  21
TORSDOF 2
ENDMDL
MODEL 4
REMARK VINA RESULT:      -6.8      2.106      4.286
REMARK  Name = ZINC000329563636
REMARK  3 active torsions:
REMARK  status: ('A' for Active; 'I' for Inactive)
REMARK    1  A    between atoms: C_1  and  C_2
REMARK    2  A    between atoms: C_2  and  N_3
REMARK    3  A    between atoms: N_9  and  C_10
REMARK                            x       y       z     vdW  Elec       q    Type
REMARK                         _______ _______ _______ _____ _____    ______ ____
ROOT
ATOM      1  C   UNL     1      12.526   6.638   7.529  0.00  0.00    +0.112 C 
ATOM      2  C   UNL     1      12.650   6.430   9.042  0.00  0.00    +0.075 C 
ATOM      3  C   UNL     1      13.297   5.102   9.463  0.00  0.00    +0.113 C 
ATOM      4  C   UNL     1      14.847   5.112   9.488  0.00  0.00    +0.048 C 
ATOM      5  C   UNL     1      15.253   5.000  10.953  0.00  0.00    +0.004 C 
ATOM      6  C   UNL     1      14.122   4.218  11.590  0.00  0.00    +0.004 C 
ATOM      7  C   UNL     1      12.887   4.804  10.928  0.00  0.00    +0.048 C 
ATOM      8  O   UNL     1      12.830   4.001   8.660  0.00  0.00    -0.485 OA
ATOM      9  C   UNL     1      13.043   4.186   7.319  0.00  0.00    +0.126 A 
ATOM     10  C   UNL     1      13.366   3.065   6.557  0.00  0.00    +0.046 A 
ATOM     11  C   UNL     1      13.633   3.201   5.194  0.00  0.00    +0.004 A 
ATOM     12  C   UNL     1      13.556   4.454   4.590  0.00  0.00    +0.001 A 
ATOM     13  C   UNL     1      13.202   5.568   5.350  0.00  0.00    +0.009 A 
ATOM     14  C   UNL     1      12.942   5.441   6.725  0.00  0.00    +0.015 A 
ENDROOT
BRANCH   1  21
ATOM     15  N   UNL     1       7.167   8.201   4.623  0.00  0.00    -0.299 N 
ATOM     16  C   UNL     1       8.321   9.019   4.251  0.00  0.00    +0.127 C 
ATOM     17  C   UNL     1       9.106   9.497   5.469  0.00  0.00    +0.129 C 
ATOM     18  N   UNL     1       9.504   8.340   6.259  0.00  0.00    -0.275 N 
ATOM     19  C   UNL     1      10.842   8.105   6.475  0.00  0.00    +0.303 C 
ATOM     20  O   UNL     1      11.723   8.839   6.030  0.00  0.00    -0.253 OA
ATOM     21  N   UNL     1      11.145   6.981   7.188  0.00  0.00    -0.292 N 
ATOM     22  C   UNL     1       8.389   7.501   6.706  0.00  0.00    +0.205 C 
ATOM     23  C   UNL     1       7.129   7.485   5.814  0.00  0.00    +0.233 C 
ATOM     24  O   UNL     1       6.138   6.839   6.161  0.00  0.00    -0.274 OA
ATOM     25  H   UNL     1      10.450   6.620   7.820  0.00  0.00    +0.151 HD
BRANCH  15  27
ATOM     26  C   UNL     1       6.614   7.856   2.241  0.00  0.00    +0.024 C 
ATOM     27  C   UNL     1       6.088   8.048   3.653  0.00  0.00    +0.104 C 
ENDBRANCH  15  27
ENDBRANCH   1  21
TORSDOF 2
ENDMDL
MODEL 5
REMARK VINA RESULT:      -6.7     32.286     35.502
REMARK  Name = ZINC000329563636
REMARK  3 active torsions:
REMARK  status: ('A' for Active; 'I' for Inactive)
REMARK    1  A    between atoms: C_1  and  C_2
REMARK    2  A    between atoms: C_2  and  N_3
REMARK    3  A    between atoms: N_9  and  C_10
REMARK                            x       y       z     vdW  Elec       q    Type
REMARK                         _______ _______ _______ _____ _____    ______ ____
ROOT
ATOM      1  C   UNL     1      26.173  38.724  12.529  0.00  0.00    +0.112 C 
ATOM      2  C   UNL     1      26.873  39.897  13.221  0.00  0.00    +0.075 C 
ATOM      3  C   UNL     1      28.247  39.567  13.826  0.00  0.00    +0.113 C 
ATOM      4  C   UNL     1      29.432  39.642  12.829  0.00  0.00    +0.048 C 
ATOM      5  C   UNL     1      30.278  40.835  13.258  0.00  0.00    +0.004 C 
ATOM      6  C   UNL     1      30.059  40.922  14.755  0.00  0.00    +0.004 C 
ATOM      7  C   UNL     1      28.575  40.636  14.899  0.00  0.00    +0.048 C 
ATOM      8  O   UNL     1      28.246  38.288  14.487  0.00  0.00    -0.485 OA
ATOM      9  C   UNL     1      27.871  37.258  13.665  0.00  0.00    +0.126 A 
ATOM     10  C   UNL     1      28.498  36.027  13.846  0.00  0.00    +0.046 A 
ATOM     11  C   UNL     1      28.184  34.954  13.011  0.00  0.00    +0.004 A 
ATOM     12  C   UNL     1      27.229  35.107  12.008  0.00  0.00    +0.001 A 
ATOM     13  C   UNL     1      26.581  36.332  11.851  0.00  0.00    +0.009 A 
ATOM     14  C   UNL     1      26.900  37.420  12.681  0.00  0.00    +0.015 A 
ENDROOT
BRANCH   1  21
ATOM     15  N   UNL     1      20.035  37.607  13.357  0.00  0.00    -0.299 N 
ATOM     16  C   UNL     1      20.356  38.374  12.154  0.00  0.00    +0.127 C 
ATOM     17  C   UNL     1      21.327  39.515  12.440  0.00  0.00    +0.129 C 
ATOM     18  N   UNL     1      22.526  38.972  13.063  0.00  0.00    -0.275 N 
ATOM     19  C   UNL     1      23.741  39.146  12.441  0.00  0.00    +0.303 C 
ATOM     20  O   UNL     1      23.859  39.752  11.377  0.00  0.00    -0.253 OA
ATOM     21  N   UNL     1      24.817  38.575  13.058  0.00  0.00    -0.292 N 
ATOM     22  C   UNL     1      22.280  38.228  14.301  0.00  0.00    +0.205 C 
ATOM     23  C   UNL     1      20.906  37.539  14.438  0.00  0.00    +0.233 C 
ATOM     24  O   UNL     1      20.619  36.941  15.477  0.00  0.00    -0.274 OA
ATOM     25  H   UNL     1      24.764  38.416  14.051  0.00  0.00    +0.151 HD
BRANCH  15  27
ATOM     26  C   UNL     1      17.904  37.148  12.196  0.00  0.00    +0.024 C 
ATOM     27  C   UNL     1      18.820  36.799  13.356  0.00  0.00    +0.104 C 
ENDBRANCH  15  27
ENDBRANCH   1  21
TORSDOF 2
ENDMDL
MODEL 6
REMARK VINA RESULT:      -6.7      2.694      7.951
REMARK  Name = ZINC000329563636
REMARK  3 active torsions:
REMARK  status: ('A' for Active; 'I' for Inactive)
REMARK    1  A    between atoms: C_1  and  C_2
REMARK    2  A    between atoms: C_2  and  N_3
REMARK    3  A    between atoms: N_9  and  C_10
REMARK                            x       y       z     vdW  Elec       q    Type
REMARK                         _______ _______ _______ _____ _____    ______ ____
ROOT
ATOM      1  C   UNL     1      10.476   8.357   6.799  0.00  0.00    +0.112 C 
ATOM      2  C   UNL     1      10.750   9.391   5.702  0.00  0.00    +0.075 C 
ATOM      3  C   UNL     1       9.509   9.852   4.921  0.00  0.00    +0.113 C 
ATOM      4  C   UNL     1       8.706  10.996   5.591  0.00  0.00    +0.048 C 
ATOM      5  C   UNL     1       8.890  12.224   4.707  0.00  0.00    +0.004 C 
ATOM      6  C   UNL     1       9.088  11.651   3.318  0.00  0.00    +0.004 C 
ATOM      7  C   UNL     1       9.980  10.448   3.570  0.00  0.00    +0.048 C 
ATOM      8  O   UNL     1       8.630   8.753   4.617  0.00  0.00    -0.485 OA
ATOM      9  C   UNL     1       8.217   8.071   5.731  0.00  0.00    +0.126 A 
ATOM     10  C   UNL     1       6.918   7.568   5.734  0.00  0.00    +0.046 A 
ATOM     11  C   UNL     1       6.431   6.900   6.859  0.00  0.00    +0.004 A 
ATOM     12  C   UNL     1       7.250   6.718   7.971  0.00  0.00    +0.001 A 
ATOM     13  C   UNL     1       8.560   7.195   7.951  0.00  0.00    +0.009 A 
ATOM     14  C   UNL     1       9.054   7.878   6.827  0.00  0.00    +0.015 A 
ENDROOT
BRANCH   1  21
ATOM     15  N   UNL     1      14.211   3.357   7.606  0.00  0.00    -0.299 N 
ATOM     16  C   UNL     1      14.518   4.492   8.476  0.00  0.00    +0.127 C 
ATOM     17  C   UNL     1      14.573   5.809   7.708  0.00  0.00    +0.129 C 
ATOM     18  N   UNL     1      13.313   6.000   7.006  0.00  0.00    -0.275 N 
ATOM     19  C   UNL     1      12.550   7.110   7.289  0.00  0.00    +0.303 C 
ATOM     20  O   UNL     1      12.894   7.956   8.113  0.00  0.00    -0.253 OA
ATOM     21  N   UNL     1      11.361   7.205   6.625  0.00  0.00    -0.292 N 
ATOM     22  C   UNL     1      12.966   4.919   6.080  0.00  0.00    +0.205 C 
ATOM     23  C   UNL     1      13.505   3.513   6.418  0.00  0.00    +0.233 C 
ATOM     24  O   UNL     1      13.291   2.571   5.652  0.00  0.00    -0.274 OA
ATOM     25  H   UNL     1      11.273   6.733   5.741  0.00  0.00    +0.151 HD
BRANCH  15  27
ATOM     26  C   UNL     1      14.136   1.788   9.512  0.00  0.00    +0.024 C 
ATOM     27  C   UNL     1      14.556   2.018   8.070  0.00  0.00    +0.104 C 
ENDBRANCH  15  27
ENDBRANCH   1  21
TORSDOF 2
ENDMDL
MODEL 7
REMARK VINA RESULT:      -6.6     25.508     27.180
REMARK  Name = ZINC000329563636
REMARK  3 active torsions:
REMARK  status: ('A' for Active; 'I' for Inactive)
REMARK    1  A    between atoms: C_1  and  C_2
REMARK    2  A    between atoms: C_2  and  N_3
REMARK    3  A    between atoms: N_9  and  C_10
REMARK                            x       y       z     vdW  Elec       q    Type
REMARK                         _______ _______ _______ _____ _____    ______ ____
ROOT
ATOM      1  C   UNL     1      31.952  21.632  15.053  0.00  0.00    +0.112 C 
ATOM      2  C   UNL     1      30.621  22.110  15.642  0.00  0.00    +0.075 C 
ATOM      3  C   UNL     1      29.594  20.999  15.910  0.00  0.00    +0.113 C 
ATOM      4  C   UNL     1      29.763  20.272  17.269  0.00  0.00    +0.048 C 
ATOM      5  C   UNL     1      28.559  20.663  18.118  0.00  0.00    +0.004 C 
ATOM      6  C   UNL     1      27.460  20.916  17.104  0.00  0.00    +0.004 C 
ATOM      7  C   UNL     1      28.188  21.646  15.989  0.00  0.00    +0.048 C 
ATOM      8  O   UNL     1      29.559  20.034  14.842  0.00  0.00    -0.485 OA
ATOM      9  C   UNL     1      30.777  19.456  14.600  0.00  0.00    +0.126 A 
ATOM     10  C   UNL     1      30.790  18.113  14.226  0.00  0.00    +0.046 A 
ATOM     11  C   UNL     1      32.005  17.462  14.006  0.00  0.00    +0.004 A 
ATOM     12  C   UNL     1      33.204  18.158  14.141  0.00  0.00    +0.001 A 
ATOM     13  C   UNL     1      33.185  19.509  14.485  0.00  0.00    +0.009 A 
ATOM     14  C   UNL     1      31.967  20.169  14.719  0.00  0.00    +0.015 A 
ENDROOT
BRANCH   1  21
ATOM     15  N   UNL     1      34.485  23.939   9.774  0.00  0.00    -0.299 N 
ATOM     16  C   UNL     1      35.441  23.713  10.858  0.00  0.00    +0.127 C 
ATOM     17  C   UNL     1      34.945  24.269  12.189  0.00  0.00    +0.129 C 
ATOM     18  N   UNL     1      33.646  23.686  12.492  0.00  0.00    -0.275 N 
ATOM     19  C   UNL     1      33.494  22.951  13.645  0.00  0.00    +0.303 C 
ATOM     20  O   UNL     1      34.415  22.770  14.440  0.00  0.00    -0.253 OA
ATOM     21  N   UNL     1      32.262  22.398  13.845  0.00  0.00    -0.292 N 
ATOM     22  C   UNL     1      32.625  23.916  11.465  0.00  0.00    +0.205 C 
ATOM     23  C   UNL     1      33.124  24.088  10.015  0.00  0.00    +0.233 C 
ATOM     24  O   UNL     1      32.320  24.335   9.114  0.00  0.00    -0.274 OA
ATOM     25  H   UNL     1      31.470  22.836  13.406  0.00  0.00    +0.151 HD
BRANCH  15  27
ATOM     26  C   UNL     1      34.987  22.465   7.857  0.00  0.00    +0.024 C 
ATOM     27  C   UNL     1      34.974  23.883   8.401  0.00  0.00    +0.104 C 
ENDBRANCH  15  27
ENDBRANCH   1  21
TORSDOF 2
ENDMDL
MODEL 8
REMARK VINA RESULT:      -6.5     26.583     28.104
REMARK  Name = ZINC000329563636
REMARK  3 active torsions:
REMARK  status: ('A' for Active; 'I' for Inactive)
REMARK    1  A    between atoms: C_1  and  C_2
REMARK    2  A    between atoms: C_2  and  N_3
REMARK    3  A    between atoms: N_9  and  C_10
REMARK                            x       y       z     vdW  Elec       q    Type
REMARK                         _______ _______ _______ _____ _____    ______ ____
ROOT
ATOM      1  C   UNL     1      31.528  22.976  14.389  0.00  0.00    +0.112 C 
ATOM      2  C   UNL     1      30.524  21.822  14.469  0.00  0.00    +0.075 C 
ATOM      3  C   UNL     1      30.645  20.943  15.723  0.00  0.00    +0.113 C 
ATOM      4  C   UNL     1      29.897  21.482  16.970  0.00  0.00    +0.048 C 
ATOM      5  C   UNL     1      28.743  20.519  17.227  0.00  0.00    +0.004 C 
ATOM      6  C   UNL     1      29.249  19.189  16.705  0.00  0.00    +0.004 C 
ATOM      7  C   UNL     1      29.972  19.578  15.427  0.00  0.00    +0.048 C 
ATOM      8  O   UNL     1      32.020  20.675  16.058  0.00  0.00    -0.485 OA
ATOM      9  C   UNL     1      32.758  21.813  16.249  0.00  0.00    +0.126 A 
ATOM     10  C   UNL     1      33.746  21.784  17.231  0.00  0.00    +0.046 A 
ATOM     11  C   UNL     1      34.501  22.928  17.496  0.00  0.00    +0.004 A 
ATOM     12  C   UNL     1      34.282  24.093  16.764  0.00  0.00    +0.001 A 
ATOM     13  C   UNL     1      33.314  24.108  15.760  0.00  0.00    +0.009 A 
ATOM     14  C   UNL     1      32.542  22.964  15.495  0.00  0.00    +0.015 A 
ENDROOT
BRANCH   1  21
ATOM     15  N   UNL     1      34.914  24.267   9.244  0.00  0.00    -0.299 N 
ATOM     16  C   UNL     1      33.946  25.301   9.609  0.00  0.00    +0.127 C 
ATOM     17  C   UNL     1      32.570  24.718   9.918  0.00  0.00    +0.129 C 
ATOM     18  N   UNL     1      32.704  23.718  10.967  0.00  0.00    -0.275 N 
ATOM     19  C   UNL     1      32.022  23.891  12.150  0.00  0.00    +0.303 C 
ATOM     20  O   UNL     1      31.294  24.861  12.357  0.00  0.00    -0.253 OA
ATOM     21  N   UNL     1      32.226  22.937  13.105  0.00  0.00    -0.292 N 
ATOM     22  C   UNL     1      33.627  22.625  10.647  0.00  0.00    +0.205 C 
ATOM     23  C   UNL     1      34.784  22.953   9.680  0.00  0.00    +0.233 C 
ATOM     24  O   UNL     1      35.564  22.065   9.331  0.00  0.00    -0.274 OA
ATOM     25  H   UNL     1      32.510  22.020  12.804  0.00  0.00    +0.151 HD
BRANCH  15  27
ATOM     26  C   UNL     1      35.918  24.533   7.003  0.00  0.00    +0.024 C 
ATOM     27  C   UNL     1      36.106  24.669   8.504  0.00  0.00    +0.104 C 
ENDBRANCH  15  27
ENDBRANCH   1  21
TORSDOF 2
ENDMDL
MODEL 9
REMARK VINA RESULT:      -6.4      4.432      7.540
REMARK  Name = ZINC000329563636
REMARK  3 active torsions:
REMARK  status: ('A' for Active; 'I' for Inactive)
REMARK    1  A    between atoms: C_1  and  C_2
REMARK    2  A    between atoms: C_2  and  N_3
REMARK    3  A    between atoms: N_9  and  C_10
REMARK                            x       y       z     vdW  Elec       q    Type
REMARK                         _______ _______ _______ _____ _____    ______ ____
ROOT
ATOM      1  C   UNL     1      14.837   4.904   7.596  0.00  0.00    +0.112 C 
ATOM      2  C   UNL     1      13.603   5.797   7.760  0.00  0.00    +0.075 C 
ATOM      3  C   UNL     1      12.485   5.205   8.631  0.00  0.00    +0.113 C 
ATOM      4  C   UNL     1      12.663   5.425  10.155  0.00  0.00    +0.048 C 
ATOM      5  C   UNL     1      11.562   6.390  10.580  0.00  0.00    +0.004 C 
ATOM      6  C   UNL     1      10.434   6.114   9.606  0.00  0.00    +0.004 C 
ATOM      7  C   UNL     1      11.162   5.933   8.285  0.00  0.00    +0.048 C 
ATOM      8  O   UNL     1      12.282   3.805   8.361  0.00  0.00    -0.485 OA
ATOM      9  C   UNL     1      13.416   3.055   8.534  0.00  0.00    +0.126 A 
ATOM     10  C   UNL     1      13.265   1.767   9.046  0.00  0.00    +0.046 A 
ATOM     11  C   UNL     1      14.389   0.974   9.280  0.00  0.00    +0.004 A 
ATOM     12  C   UNL     1      15.660   1.459   8.983  0.00  0.00    +0.001 A 
ATOM     13  C   UNL     1      15.804   2.736   8.441  0.00  0.00    +0.009 A 
ATOM     14  C   UNL     1      14.678   3.546   8.213  0.00  0.00    +0.015 A 
ENDROOT
BRANCH   1  21
ATOM     15  N   UNL     1      17.289   5.265   1.811  0.00  0.00    -0.299 N 
ATOM     16  C   UNL     1      17.043   6.558   2.448  0.00  0.00    +0.127 C 
ATOM     17  C   UNL     1      15.654   6.637   3.074  0.00  0.00    +0.129 C 
ATOM     18  N   UNL     1      15.497   5.538   4.017  0.00  0.00    -0.275 N 
ATOM     19  C   UNL     1      15.244   5.822   5.340  0.00  0.00    +0.303 C 
ATOM     20  O   UNL     1      15.138   6.973   5.761  0.00  0.00    -0.253 OA
ATOM     21  N   UNL     1      15.149   4.747   6.175  0.00  0.00    -0.292 N 
ATOM     22  C   UNL     1      15.684   4.208   3.432  0.00  0.00    +0.205 C 
ATOM     23  C   UNL     1      16.629   4.110   2.216  0.00  0.00    +0.233 C 
ATOM     24  O   UNL     1      16.789   3.028   1.647  0.00  0.00    -0.274 OA
ATOM     25  H   UNL     1      14.883   3.861   5.778  0.00  0.00    +0.151 HD
BRANCH  15  27
ATOM     26  C   UNL     1      19.637   5.819   1.285  0.00  0.00    +0.024 C 
ATOM     27  C   UNL     1      18.345   5.179   0.808  0.00  0.00    +0.104 C 
ENDBRANCH  15  27
ENDBRANCH   1  21
TORSDOF 2
ENDMDL
