MODEL 1
REMARK VINA RESULT:      -6.5      0.000      0.000
REMARK  Name = ZINC000826139982
REMARK  4 active torsions:
REMARK  status: ('A' for Active; 'I' for Inactive)
REMARK    1  A    between atoms: C_2  and  C_4
REMARK    2  A    between atoms: C_8  and  C_10
REMARK    3  A    between atoms: C_14  and  S_15
REMARK    4  A    between atoms: S_15  and  C_16
REMARK                            x       y       z     vdW  Elec       q    Type
REMARK                         _______ _______ _______ _____ _____    ______ ____
ROOT
ATOM      1  C   UNL     1      32.816  16.667  12.665  0.00  0.00    +0.093 C 
ATOM      2  C   UNL     1      32.761  18.108  13.170  0.00  0.00    +0.033 C 
ATOM      3  C   UNL     1      31.753  18.009  14.305  0.00  0.00    +0.109 C 
ATOM      4  N   UNL     1      30.726  17.152  13.730  0.00  0.00    -0.297 N 
ATOM      5  C   UNL     1      29.363  17.057  13.983  0.00  0.00    +0.247 C 
ATOM      6  O   UNL     1      28.687  16.160  13.471  0.00  0.00    -0.270 OA
ATOM      7  C   UNL     1      31.370  16.181  12.841  0.00  0.00    +0.120 C 
ENDROOT
BRANCH   5   8
ATOM      8  C   UNL     1      28.660  18.009  14.896  0.00  0.00    +0.038 A 
ATOM      9  C   UNL     1      27.793  17.606  15.912  0.00  0.00    +0.013 A 
ATOM     10  C   UNL     1      27.095  18.546  16.673  0.00  0.00    +0.002 A 
ATOM     11  C   UNL     1      27.365  19.902  16.522  0.00  0.00    +0.015 A 
ATOM     12  C   UNL     1      28.362  20.320  15.637  0.00  0.00    +0.017 A 
ATOM     13  C   UNL     1      28.974  19.378  14.797  0.00  0.00    +0.028 A 
BRANCH  12  14
ATOM     14  S   UNL     1      28.848  22.032  15.551  0.00  0.00    -0.016 S 
BRANCH  14  15
ATOM     15  C   UNL     1      30.457  21.902  14.743  0.00  0.00    +0.448 C 
ATOM     16  F   UNL     1      31.341  21.110  15.397  0.00  0.00    -0.160 F 
ATOM     17  F   UNL     1      30.331  21.403  13.490  0.00  0.00    -0.160 F 
ATOM     18  F   UNL     1      31.035  23.124  14.630  0.00  0.00    -0.160 F 
ENDBRANCH  14  15
ENDBRANCH  12  14
ENDBRANCH   5   8
BRANCH   1  20
ATOM     19  N   UNL     1      34.889  16.555  13.964  0.00  0.00    -0.329 N 
ATOM     20  C   UNL     1      33.827  15.862  13.467  0.00  0.00    +0.215 C 
ATOM     21  O   UNL     1      33.711  14.666  13.716  0.00  0.00    -0.276 OA
ATOM     22  H   UNL     1      35.515  16.043  14.572  0.00  0.00    +0.145 HD
ATOM     23  H   UNL     1      34.961  17.562  13.932  0.00  0.00    +0.145 HD
ENDBRANCH   1  20
TORSDOF 4
ENDMDL
MODEL 2
REMARK VINA RESULT:      -6.3      5.178      6.652
REMARK  Name = ZINC000826139982
REMARK  4 active torsions:
REMARK  status: ('A' for Active; 'I' for Inactive)
REMARK    1  A    between atoms: C_2  and  C_4
REMARK    2  A    between atoms: C_8  and  C_10
REMARK    3  A    between atoms: C_14  and  S_15
REMARK    4  A    between atoms: S_15  and  C_16
REMARK                            x       y       z     vdW  Elec       q    Type
REMARK                         _______ _______ _______ _____ _____    ______ ____
ROOT
ATOM      1  C   UNL     1      33.892  23.601   8.956  0.00  0.00    +0.093 C 
ATOM      2  C   UNL     1      34.742  22.981  10.066  0.00  0.00    +0.033 C 
ATOM      3  C   UNL     1      33.688  22.586  11.089  0.00  0.00    +0.109 C 
ATOM      4  N   UNL     1      32.807  23.745  11.087  0.00  0.00    -0.297 N 
ATOM      5  C   UNL     1      31.982  24.273  12.073  0.00  0.00    +0.247 C 
ATOM      6  O   UNL     1      31.208  25.200  11.818  0.00  0.00    -0.270 OA
ATOM      7  C   UNL     1      32.764  24.298   9.731  0.00  0.00    +0.120 C 
ENDROOT
BRANCH   5   8
ATOM      8  C   UNL     1      31.972  23.734  13.467  0.00  0.00    +0.038 A 
ATOM      9  C   UNL     1      33.031  23.886  14.361  0.00  0.00    +0.013 A 
ATOM     10  C   UNL     1      33.000  23.282  15.620  0.00  0.00    +0.002 A 
ATOM     11  C   UNL     1      31.846  22.636  16.052  0.00  0.00    +0.015 A 
ATOM     12  C   UNL     1      30.707  22.626  15.243  0.00  0.00    +0.017 A 
ATOM     13  C   UNL     1      30.787  23.136  13.939  0.00  0.00    +0.028 A 
BRANCH  12  14
ATOM     14  S   UNL     1      29.168  21.959  15.842  0.00  0.00    -0.016 S 
BRANCH  14  15
ATOM     15  C   UNL     1      29.029  20.453  14.856  0.00  0.00    +0.448 C 
ATOM     16  F   UNL     1      30.177  19.739  14.774  0.00  0.00    -0.160 F 
ATOM     17  F   UNL     1      28.084  19.627  15.365  0.00  0.00    -0.160 F 
ATOM     18  F   UNL     1      28.658  20.747  13.585  0.00  0.00    -0.160 F 
ENDBRANCH  14  15
ENDBRANCH  12  14
ENDBRANCH   5   8
BRANCH   1  20
ATOM     19  N   UNL     1      32.049  22.348   7.943  0.00  0.00    -0.329 N 
ATOM     20  C   UNL     1      33.397  22.524   8.003  0.00  0.00    +0.215 C 
ATOM     21  O   UNL     1      34.131  21.859   7.278  0.00  0.00    -0.276 OA
ATOM     22  H   UNL     1      31.711  21.697   7.246  0.00  0.00    +0.145 HD
ATOM     23  H   UNL     1      31.386  22.965   8.389  0.00  0.00    +0.145 HD
ENDBRANCH   1  20
TORSDOF 4
ENDMDL
MODEL 3
REMARK VINA RESULT:      -6.3      4.584      6.056
REMARK  Name = ZINC000826139982
REMARK  4 active torsions:
REMARK  status: ('A' for Active; 'I' for Inactive)
REMARK    1  A    between atoms: C_2  and  C_4
REMARK    2  A    between atoms: C_8  and  C_10
REMARK    3  A    between atoms: C_14  and  S_15
REMARK    4  A    between atoms: S_15  and  C_16
REMARK                            x       y       z     vdW  Elec       q    Type
REMARK                         _______ _______ _______ _____ _____    ______ ____
ROOT
ATOM      1  C   UNL     1      33.214  24.088  12.099  0.00  0.00    +0.093 C 
ATOM      2  C   UNL     1      34.089  22.842  12.227  0.00  0.00    +0.033 C 
ATOM      3  C   UNL     1      33.052  21.738  12.367  0.00  0.00    +0.109 C 
ATOM      4  N   UNL     1      32.089  22.335  13.283  0.00  0.00    -0.297 N 
ATOM      5  C   UNL     1      31.214  21.762  14.196  0.00  0.00    +0.247 C 
ATOM      6  O   UNL     1      30.379  22.452  14.789  0.00  0.00    -0.270 OA
ATOM      7  C   UNL     1      32.027  23.776  13.022  0.00  0.00    +0.120 C 
ENDROOT
BRANCH   5   8
ATOM      8  C   UNL     1      31.222  20.296  14.486  0.00  0.00    +0.038 A 
ATOM      9  C   UNL     1      32.364  19.588  14.858  0.00  0.00    +0.013 A 
ATOM     10  C   UNL     1      32.327  18.203  15.026  0.00  0.00    +0.002 A 
ATOM     11  C   UNL     1      31.112  17.527  14.963  0.00  0.00    +0.015 A 
ATOM     12  C   UNL     1      29.926  18.241  14.771  0.00  0.00    +0.017 A 
ATOM     13  C   UNL     1      29.989  19.614  14.490  0.00  0.00    +0.028 A 
BRANCH  12  14
ATOM     14  S   UNL     1      28.346  17.425  14.860  0.00  0.00    -0.016 S 
BRANCH  14  15
ATOM     15  C   UNL     1      27.509  18.414  16.118  0.00  0.00    +0.448 C 
ATOM     16  F   UNL     1      27.999  19.670  16.249  0.00  0.00    -0.160 F 
ATOM     17  F   UNL     1      26.188  18.531  15.843  0.00  0.00    -0.160 F 
ATOM     18  F   UNL     1      27.612  17.824  17.335  0.00  0.00    -0.160 F 
ENDBRANCH  14  15
ENDBRANCH  12  14
ENDBRANCH   5   8
BRANCH   1  20
ATOM     19  N   UNL     1      31.478  24.410  10.402  0.00  0.00    -0.329 N 
ATOM     20  C   UNL     1      32.813  24.307  10.648  0.00  0.00    +0.215 C 
ATOM     21  O   UNL     1      33.613  24.435   9.726  0.00  0.00    -0.276 OA
ATOM     22  H   UNL     1      31.211  24.645   9.455  0.00  0.00    +0.145 HD
ATOM     23  H   UNL     1      30.781  24.474  11.130  0.00  0.00    +0.145 HD
ENDBRANCH   1  20
TORSDOF 4
ENDMDL
MODEL 4
REMARK VINA RESULT:      -6.3      6.500      7.892
REMARK  Name = ZINC000826139982
REMARK  4 active torsions:
REMARK  status: ('A' for Active; 'I' for Inactive)
REMARK    1  A    between atoms: C_2  and  C_4
REMARK    2  A    between atoms: C_8  and  C_10
REMARK    3  A    between atoms: C_14  and  S_15
REMARK    4  A    between atoms: S_15  and  C_16
REMARK                            x       y       z     vdW  Elec       q    Type
REMARK                         _______ _______ _______ _____ _____    ______ ____
ROOT
ATOM      1  C   UNL     1      32.884  22.404  22.292  0.00  0.00    +0.093 C 
ATOM      2  C   UNL     1      33.171  21.447  21.136  0.00  0.00    +0.033 C 
ATOM      3  C   UNL     1      32.584  22.197  19.949  0.00  0.00    +0.109 C 
ATOM      4  N   UNL     1      31.330  22.699  20.493  0.00  0.00    -0.297 N 
ATOM      5  C   UNL     1      30.123  23.010  19.879  0.00  0.00    +0.247 C 
ATOM      6  O   UNL     1      29.215  23.554  20.513  0.00  0.00    -0.270 OA
ATOM      7  C   UNL     1      31.527  23.013  21.910  0.00  0.00    +0.120 C 
ENDROOT
BRANCH   5   8
ATOM      8  C   UNL     1      29.876  22.729  18.432  0.00  0.00    +0.038 A 
ATOM      9  C   UNL     1      30.852  22.856  17.444  0.00  0.00    +0.013 A 
ATOM     10  C   UNL     1      30.537  22.667  16.096  0.00  0.00    +0.002 A 
ATOM     11  C   UNL     1      29.274  22.210  15.736  0.00  0.00    +0.015 A 
ATOM     12  C   UNL     1      28.334  21.903  16.723  0.00  0.00    +0.017 A 
ATOM     13  C   UNL     1      28.623  22.204  18.063  0.00  0.00    +0.028 A 
BRANCH  12  14
ATOM     14  S   UNL     1      26.775  21.154  16.299  0.00  0.00    -0.016 S 
BRANCH  14  15
ATOM     15  C   UNL     1      27.208  19.401  16.322  0.00  0.00    +0.448 C 
ATOM     16  F   UNL     1      26.218  18.582  15.894  0.00  0.00    -0.160 F 
ATOM     17  F   UNL     1      28.287  19.158  15.540  0.00  0.00    -0.160 F 
ATOM     18  F   UNL     1      27.530  19.005  17.578  0.00  0.00    -0.160 F 
ENDBRANCH  14  15
ENDBRANCH  12  14
ENDBRANCH   5   8
BRANCH   1  20
ATOM     19  N   UNL     1      33.614  24.695  22.754  0.00  0.00    -0.329 N 
ATOM     20  C   UNL     1      33.997  23.434  22.417  0.00  0.00    +0.215 C 
ATOM     21  O   UNL     1      35.189  23.177  22.274  0.00  0.00    -0.276 OA
ATOM     22  H   UNL     1      34.357  25.360  22.926  0.00  0.00    +0.145 HD
ATOM     23  H   UNL     1      32.676  24.935  23.041  0.00  0.00    +0.145 HD
ENDBRANCH   1  20
TORSDOF 4
ENDMDL
MODEL 5
REMARK VINA RESULT:      -6.2      3.988      5.503
REMARK  Name = ZINC000826139982
REMARK  4 active torsions:
REMARK  status: ('A' for Active; 'I' for Inactive)
REMARK    1  A    between atoms: C_2  and  C_4
REMARK    2  A    between atoms: C_8  and  C_10
REMARK    3  A    between atoms: C_14  and  S_15
REMARK    4  A    between atoms: S_15  and  C_16
REMARK                            x       y       z     vdW  Elec       q    Type
REMARK                         _______ _______ _______ _____ _____    ______ ____
ROOT
ATOM      1  C   UNL     1      32.156  23.435  13.362  0.00  0.00    +0.093 C 
ATOM      2  C   UNL     1      32.350  21.929  13.189  0.00  0.00    +0.033 C 
ATOM      3  C   UNL     1      30.928  21.407  13.325  0.00  0.00    +0.109 C 
ATOM      4  N   UNL     1      30.419  22.188  14.444  0.00  0.00    -0.297 N 
ATOM      5  C   UNL     1      29.438  21.909  15.387  0.00  0.00    +0.247 C 
ATOM      6  O   UNL     1      29.065  22.774  16.184  0.00  0.00    -0.270 OA
ATOM      7  C   UNL     1      31.023  23.522  14.396  0.00  0.00    +0.120 C 
ENDROOT
BRANCH   5   8
ATOM      8  C   UNL     1      28.776  20.572  15.467  0.00  0.00    +0.038 A 
ATOM      9  C   UNL     1      27.542  20.356  16.080  0.00  0.00    +0.013 A 
ATOM     10  C   UNL     1      27.017  19.068  16.204  0.00  0.00    +0.002 A 
ATOM     11  C   UNL     1      27.655  17.996  15.587  0.00  0.00    +0.015 A 
ATOM     12  C   UNL     1      28.797  18.215  14.813  0.00  0.00    +0.017 A 
ATOM     13  C   UNL     1      29.377  19.492  14.792  0.00  0.00    +0.028 A 
BRANCH  12  14
ATOM     14  S   UNL     1      29.531  16.891  13.874  0.00  0.00    -0.016 S 
BRANCH  14  15
ATOM     15  C   UNL     1      31.290  17.211  14.128  0.00  0.00    +0.448 C 
ATOM     16  F   UNL     1      31.631  17.425  15.422  0.00  0.00    -0.160 F 
ATOM     17  F   UNL     1      32.039  16.173  13.689  0.00  0.00    -0.160 F 
ATOM     18  F   UNL     1      31.681  18.308  13.433  0.00  0.00    -0.160 F 
ENDBRANCH  14  15
ENDBRANCH  12  14
ENDBRANCH   5   8
BRANCH   1  20
ATOM     19  N   UNL     1      32.494  23.625  10.945  0.00  0.00    -0.329 N 
ATOM     20  C   UNL     1      31.811  24.083  12.030  0.00  0.00    +0.215 C 
ATOM     21  O   UNL     1      30.943  24.939  11.887  0.00  0.00    -0.276 OA
ATOM     22  H   UNL     1      32.204  23.988  10.046  0.00  0.00    +0.145 HD
ATOM     23  H   UNL     1      33.100  22.818  10.967  0.00  0.00    +0.145 HD
ENDBRANCH   1  20
TORSDOF 4
ENDMDL
MODEL 6
REMARK VINA RESULT:      -6.2      2.882      3.931
REMARK  Name = ZINC000826139982
REMARK  4 active torsions:
REMARK  status: ('A' for Active; 'I' for Inactive)
REMARK    1  A    between atoms: C_2  and  C_4
REMARK    2  A    between atoms: C_8  and  C_10
REMARK    3  A    between atoms: C_14  and  S_15
REMARK    4  A    between atoms: S_15  and  C_16
REMARK                            x       y       z     vdW  Elec       q    Type
REMARK                         _______ _______ _______ _____ _____    ______ ____
ROOT
ATOM      1  C   UNL     1      32.897  17.331  13.268  0.00  0.00    +0.093 C 
ATOM      2  C   UNL     1      32.675  17.374  14.780  0.00  0.00    +0.033 C 
ATOM      3  C   UNL     1      31.459  18.280  14.896  0.00  0.00    +0.109 C 
ATOM      4  N   UNL     1      31.767  19.334  13.940  0.00  0.00    -0.297 N 
ATOM      5  C   UNL     1      31.384  20.668  13.889  0.00  0.00    +0.247 C 
ATOM      6  O   UNL     1      31.654  21.365  12.907  0.00  0.00    -0.270 OA
ATOM      7  C   UNL     1      32.506  18.747  12.819  0.00  0.00    +0.120 C 
ENDROOT
BRANCH   5   8
ATOM      8  C   UNL     1      30.612  21.312  14.995  0.00  0.00    +0.038 A 
ATOM      9  C   UNL     1      31.129  22.316  15.814  0.00  0.00    +0.013 A 
ATOM     10  C   UNL     1      30.391  22.814  16.890  0.00  0.00    +0.002 A 
ATOM     11  C   UNL     1      29.071  22.414  17.072  0.00  0.00    +0.015 A 
ATOM     12  C   UNL     1      28.472  21.545  16.156  0.00  0.00    +0.017 A 
ATOM     13  C   UNL     1      29.256  20.964  15.148  0.00  0.00    +0.028 A 
BRANCH  12  14
ATOM     14  S   UNL     1      26.738  21.155  16.266  0.00  0.00    -0.016 S 
BRANCH  14  15
ATOM     15  C   UNL     1      26.797  19.403  16.698  0.00  0.00    +0.448 C 
ATOM     16  F   UNL     1      27.057  18.585  15.649  0.00  0.00    -0.160 F 
ATOM     17  F   UNL     1      27.751  19.165  17.630  0.00  0.00    -0.160 F 
ATOM     18  F   UNL     1      25.614  19.001  17.226  0.00  0.00    -0.160 F 
ENDBRANCH  14  15
ENDBRANCH  12  14
ENDBRANCH   5   8
BRANCH   1  20
ATOM     19  N   UNL     1      32.708  15.329  11.872  0.00  0.00    -0.329 N 
ATOM     20  C   UNL     1      32.047  16.239  12.638  0.00  0.00    +0.215 C 
ATOM     21  O   UNL     1      30.839  16.119  12.819  0.00  0.00    -0.276 OA
ATOM     22  H   UNL     1      32.161  14.551  11.525  0.00  0.00    +0.145 HD
ATOM     23  H   UNL     1      33.715  15.276  11.813  0.00  0.00    +0.145 HD
ENDBRANCH   1  20
TORSDOF 4
ENDMDL
MODEL 7
REMARK VINA RESULT:      -6.2      4.606      6.138
REMARK  Name = ZINC000826139982
REMARK  4 active torsions:
REMARK  status: ('A' for Active; 'I' for Inactive)
REMARK    1  A    between atoms: C_2  and  C_4
REMARK    2  A    between atoms: C_8  and  C_10
REMARK    3  A    between atoms: C_14  and  S_15
REMARK    4  A    between atoms: S_15  and  C_16
REMARK                            x       y       z     vdW  Elec       q    Type
REMARK                         _______ _______ _______ _____ _____    ______ ____
ROOT
ATOM      1  C   UNL     1      32.681  23.915  12.786  0.00  0.00    +0.093 C 
ATOM      2  C   UNL     1      33.334  22.543  12.622  0.00  0.00    +0.033 C 
ATOM      3  C   UNL     1      32.132  21.612  12.666  0.00  0.00    +0.109 C 
ATOM      4  N   UNL     1      31.344  22.178  13.752  0.00  0.00    -0.297 N 
ATOM      5  C   UNL     1      30.440  21.595  14.631  0.00  0.00    +0.247 C 
ATOM      6  O   UNL     1      29.774  22.289  15.404  0.00  0.00    -0.270 OA
ATOM      7  C   UNL     1      31.516  23.633  13.746  0.00  0.00    +0.120 C 
ENDROOT
BRANCH   5   8
ATOM      8  C   UNL     1      30.212  20.118  14.666  0.00  0.00    +0.038 A 
ATOM      9  C   UNL     1      28.947  19.532  14.716  0.00  0.00    +0.013 A 
ATOM     10  C   UNL     1      28.801  18.149  14.839  0.00  0.00    +0.002 A 
ATOM     11  C   UNL     1      29.919  17.324  14.771  0.00  0.00    +0.015 A 
ATOM     12  C   UNL     1      31.182  17.876  14.540  0.00  0.00    +0.017 A 
ATOM     13  C   UNL     1      31.330  19.271  14.532  0.00  0.00    +0.028 A 
BRANCH  12  14
ATOM     14  S   UNL     1      32.600  16.832  14.275  0.00  0.00    -0.016 S 
BRANCH  14  15
ATOM     15  C   UNL     1      32.292  16.237  12.598  0.00  0.00    +0.448 C 
ATOM     16  F   UNL     1      31.071  15.674  12.427  0.00  0.00    -0.160 F 
ATOM     17  F   UNL     1      32.390  17.247  11.700  0.00  0.00    -0.160 F 
ATOM     18  F   UNL     1      33.208  15.301  12.247  0.00  0.00    -0.160 F 
ENDBRANCH  14  15
ENDBRANCH  12  14
ENDBRANCH   5   8
BRANCH   1  20
ATOM     19  N   UNL     1      30.918  24.775  11.320  0.00  0.00    -0.329 N 
ATOM     20  C   UNL     1      32.236  24.455  11.435  0.00  0.00    +0.215 C 
ATOM     21  O   UNL     1      32.994  24.651  10.490  0.00  0.00    -0.276 OA
ATOM     22  H   UNL     1      30.637  25.218  10.455  0.00  0.00    +0.145 HD
ATOM     23  H   UNL     1      30.278  24.791  12.101  0.00  0.00    +0.145 HD
ENDBRANCH   1  20
TORSDOF 4
ENDMDL
MODEL 8
REMARK VINA RESULT:      -6.1      6.574      7.951
REMARK  Name = ZINC000826139982
REMARK  4 active torsions:
REMARK  status: ('A' for Active; 'I' for Inactive)
REMARK    1  A    between atoms: C_2  and  C_4
REMARK    2  A    between atoms: C_8  and  C_10
REMARK    3  A    between atoms: C_14  and  S_15
REMARK    4  A    between atoms: S_15  and  C_16
REMARK                            x       y       z     vdW  Elec       q    Type
REMARK                         _______ _______ _______ _____ _____    ______ ____
ROOT
ATOM      1  C   UNL     1      35.586  22.510   7.435  0.00  0.00    +0.093 C 
ATOM      2  C   UNL     1      34.420  21.670   7.957  0.00  0.00    +0.033 C 
ATOM      3  C   UNL     1      33.516  22.729   8.569  0.00  0.00    +0.109 C 
ATOM      4  N   UNL     1      34.469  23.585   9.261  0.00  0.00    -0.297 N 
ATOM      5  C   UNL     1      34.330  24.396  10.380  0.00  0.00    +0.247 C 
ATOM      6  O   UNL     1      35.241  25.151  10.730  0.00  0.00    -0.270 OA
ATOM      7  C   UNL     1      35.713  23.621   8.488  0.00  0.00    +0.120 C 
ENDROOT
BRANCH   5   8
ATOM      8  C   UNL     1      33.075  24.414  11.193  0.00  0.00    +0.038 A 
ATOM      9  C   UNL     1      31.910  25.071  10.800  0.00  0.00    +0.013 A 
ATOM     10  C   UNL     1      30.799  25.128  11.644  0.00  0.00    +0.002 A 
ATOM     11  C   UNL     1      30.792  24.406  12.834  0.00  0.00    +0.015 A 
ATOM     12  C   UNL     1      31.880  23.594  13.163  0.00  0.00    +0.017 A 
ATOM     13  C   UNL     1      33.033  23.634  12.365  0.00  0.00    +0.028 A 
BRANCH  12  14
ATOM     14  S   UNL     1      31.825  22.528  14.589  0.00  0.00    -0.016 S 
BRANCH  14  15
ATOM     15  C   UNL     1      31.069  21.044  13.890  0.00  0.00    +0.448 C 
ATOM     16  F   UNL     1      31.021  19.994  14.745  0.00  0.00    -0.160 F 
ATOM     17  F   UNL     1      29.797  21.289  13.493  0.00  0.00    -0.160 F 
ATOM     18  F   UNL     1      31.754  20.628  12.796  0.00  0.00    -0.160 F 
ENDBRANCH  14  15
ENDBRANCH  12  14
ENDBRANCH   5   8
BRANCH   1  20
ATOM     19  N   UNL     1      34.773  24.290   5.964  0.00  0.00    -0.329 N 
ATOM     20  C   UNL     1      35.282  23.030   6.039  0.00  0.00    +0.215 C 
ATOM     21  O   UNL     1      35.508  22.403   5.008  0.00  0.00    -0.276 OA
ATOM     22  H   UNL     1      34.654  24.673   5.035  0.00  0.00    +0.145 HD
ATOM     23  H   UNL     1      34.713  24.915   6.755  0.00  0.00    +0.145 HD
ENDBRANCH   1  20
TORSDOF 4
ENDMDL
MODEL 9
REMARK VINA RESULT:      -6.1      5.858      7.523
REMARK  Name = ZINC000826139982
REMARK  4 active torsions:
REMARK  status: ('A' for Active; 'I' for Inactive)
REMARK    1  A    between atoms: C_2  and  C_4
REMARK    2  A    between atoms: C_8  and  C_10
REMARK    3  A    between atoms: C_14  and  S_15
REMARK    4  A    between atoms: S_15  and  C_16
REMARK                            x       y       z     vdW  Elec       q    Type
REMARK                         _______ _______ _______ _____ _____    ______ ____
ROOT
ATOM      1  C   UNL     1      31.918  23.362  21.572  0.00  0.00    +0.093 C 
ATOM      2  C   UNL     1      30.544  22.789  21.225  0.00  0.00    +0.033 C 
ATOM      3  C   UNL     1      30.807  22.126  19.881  0.00  0.00    +0.109 C 
ATOM      4  N   UNL     1      31.634  23.116  19.206  0.00  0.00    -0.297 N 
ATOM      5  C   UNL     1      31.809  23.401  17.858  0.00  0.00    +0.247 C 
ATOM      6  O   UNL     1      32.669  24.206  17.489  0.00  0.00    -0.270 OA
ATOM      7  C   UNL     1      32.475  23.783  20.204  0.00  0.00    +0.120 C 
ENDROOT
BRANCH   5   8
ATOM      8  C   UNL     1      30.992  22.736  16.797  0.00  0.00    +0.038 A 
ATOM      9  C   UNL     1      31.532  22.204  15.626  0.00  0.00    +0.013 A 
ATOM     10  C   UNL     1      30.708  21.677  14.631  0.00  0.00    +0.002 A 
ATOM     11  C   UNL     1      29.341  21.547  14.858  0.00  0.00    +0.015 A 
ATOM     12  C   UNL     1      28.801  21.907  16.095  0.00  0.00    +0.017 A 
ATOM     13  C   UNL     1      29.620  22.539  17.043  0.00  0.00    +0.028 A 
BRANCH  12  14
ATOM     14  S   UNL     1      27.090  21.589  16.472  0.00  0.00    -0.016 S 
BRANCH  14  15
ATOM     15  C   UNL     1      27.062  19.783  16.489  0.00  0.00    +0.448 C 
ATOM     16  F   UNL     1      25.821  19.249  16.387  0.00  0.00    -0.160 F 
ATOM     17  F   UNL     1      27.795  19.278  15.468  0.00  0.00    -0.160 F 
ATOM     18  F   UNL     1      27.601  19.308  17.640  0.00  0.00    -0.160 F 
ENDBRANCH  14  15
ENDBRANCH  12  14
ENDBRANCH   5   8
BRANCH   1  20
ATOM     19  N   UNL     1      33.995  22.077  21.742  0.00  0.00    -0.329 N 
ATOM     20  C   UNL     1      32.767  22.315  22.277  0.00  0.00    +0.215 C 
ATOM     21  O   UNL     1      32.423  21.725  23.297  0.00  0.00    -0.276 OA
ATOM     22  H   UNL     1      34.597  21.449  22.258  0.00  0.00    +0.145 HD
ATOM     23  H   UNL     1      34.400  22.637  21.005  0.00  0.00    +0.145 HD
ENDBRANCH   1  20
TORSDOF 4
ENDMDL
