MODEL 1
REMARK VINA RESULT:      -6.5      0.000      0.000
REMARK  Name = ZINC000583127796
REMARK  2 active torsions:
REMARK  status: ('A' for Active; 'I' for Inactive)
REMARK    1  A    between atoms: C_2  and  C_4
REMARK    2  A    between atoms: C_7  and  C_8
REMARK                            x       y       z     vdW  Elec       q    Type
REMARK                         _______ _______ _______ _____ _____    ______ ____
ROOT
ATOM      1  C   UNL     1      32.748  18.825  14.609  0.00  0.00    +0.247 C 
ATOM      2  O   UNL     1      33.783  18.664  15.253  0.00  0.00    -0.270 OA
ATOM      3  N   UNL     1      31.909  19.937  14.787  0.00  0.00    -0.297 N 
ATOM      4  C   UNL     1      30.665  20.214  14.063  0.00  0.00    +0.108 C 
ATOM      5  C   UNL     1      30.670  21.584  13.408  0.00  0.00    +0.020 C 
ATOM      6  C   UNL     1      31.061  22.671  14.393  0.00  0.00    +0.011 C 
ATOM      7  C   UNL     1      32.386  22.366  15.134  0.00  0.00    -0.004 C 
ATOM      8  C   UNL     1      32.582  23.480  16.184  0.00  0.00    +0.020 C 
ATOM      9  C   UNL     1      34.051  23.610  16.527  0.00  0.00    +0.070 C 
ATOM     10  S   UNL     1      34.888  23.433  14.943  0.00  0.00    -0.160 S 
ATOM     11  C   UNL     1      33.594  22.423  14.170  0.00  0.00    +0.077 C 
ATOM     12  C   UNL     1      32.283  20.957  15.780  0.00  0.00    +0.115 C 
ENDROOT
BRANCH   1  16
ATOM     13  C   UNL     1      32.054  15.709  11.761  0.00  0.00    +0.037 A 
ATOM     14  C   UNL     1      33.106  16.607  11.547  0.00  0.00    +0.014 A 
ATOM     15  C   UNL     1      33.274  17.698  12.404  0.00  0.00    +0.014 A 
ATOM     16  C   UNL     1      32.460  17.836  13.533  0.00  0.00    +0.037 A 
ATOM     17  C   UNL     1      31.346  16.998  13.685  0.00  0.00    +0.014 A 
ATOM     18  C   UNL     1      31.138  15.943  12.792  0.00  0.00    +0.014 A 
BRANCH  13  20
ATOM     19  N   UNL     1      30.775  14.448  10.122  0.00  0.00    -0.325 N 
ATOM     20  C   UNL     1      31.889  14.501  10.912  0.00  0.00    +0.242 C 
ATOM     21  O   UNL     1      32.736  13.622  10.882  0.00  0.00    -0.270 OA
ATOM     22  H   UNL     1      30.742  13.684   9.457  0.00  0.00    +0.145 HD
ATOM     23  H   UNL     1      30.218  15.267   9.919  0.00  0.00    +0.145 HD
ENDBRANCH  13  20
ENDBRANCH   1  16
TORSDOF 2
ENDMDL
MODEL 2
REMARK VINA RESULT:      -6.3      4.518      7.404
REMARK  Name = ZINC000583127796
REMARK  2 active torsions:
REMARK  status: ('A' for Active; 'I' for Inactive)
REMARK    1  A    between atoms: C_2  and  C_4
REMARK    2  A    between atoms: C_7  and  C_8
REMARK                            x       y       z     vdW  Elec       q    Type
REMARK                         _______ _______ _______ _____ _____    ______ ____
ROOT
ATOM      1  C   UNL     1      33.397  21.481  11.391  0.00  0.00    +0.247 C 
ATOM      2  O   UNL     1      34.017  20.622  10.767  0.00  0.00    -0.270 OA
ATOM      3  N   UNL     1      32.439  21.165  12.369  0.00  0.00    -0.297 N 
ATOM      4  C   UNL     1      31.659  22.117  13.164  0.00  0.00    +0.108 C 
ATOM      5  C   UNL     1      31.797  21.874  14.656  0.00  0.00    +0.020 C 
ATOM      6  C   UNL     1      31.536  20.421  15.011  0.00  0.00    +0.011 C 
ATOM      7  C   UNL     1      32.384  19.433  14.172  0.00  0.00    -0.004 C 
ATOM      8  C   UNL     1      31.918  18.010  14.546  0.00  0.00    +0.020 C 
ATOM      9  C   UNL     1      33.022  17.016  14.255  0.00  0.00    +0.070 C 
ATOM     10  S   UNL     1      34.521  17.858  14.789  0.00  0.00    -0.160 S 
ATOM     11  C   UNL     1      33.884  19.537  14.529  0.00  0.00    +0.077 C 
ATOM     12  C   UNL     1      32.169  19.748  12.665  0.00  0.00    +0.115 C 
ENDROOT
BRANCH   1  16
ATOM     13  C   UNL     1      34.631  25.443  10.354  0.00  0.00    +0.037 A 
ATOM     14  C   UNL     1      35.343  24.741  11.331  0.00  0.00    +0.014 A 
ATOM     15  C   UNL     1      34.885  23.494  11.765  0.00  0.00    +0.014 A 
ATOM     16  C   UNL     1      33.778  22.901  11.151  0.00  0.00    +0.037 A 
ATOM     17  C   UNL     1      33.008  23.649  10.249  0.00  0.00    +0.014 A 
ATOM     18  C   UNL     1      33.428  24.924   9.860  0.00  0.00    +0.014 A 
BRANCH  13  20
ATOM     19  N   UNL     1      35.244  27.769  10.709  0.00  0.00    -0.325 N 
ATOM     20  C   UNL     1      35.127  26.738   9.820  0.00  0.00    +0.242 C 
ATOM     21  O   UNL     1      35.465  26.859   8.653  0.00  0.00    -0.270 OA
ATOM     22  H   UNL     1      35.704  28.602  10.361  0.00  0.00    +0.145 HD
ATOM     23  H   UNL     1      35.243  27.622  11.709  0.00  0.00    +0.145 HD
ENDBRANCH  13  20
ENDBRANCH   1  16
TORSDOF 2
ENDMDL
MODEL 3
REMARK VINA RESULT:      -6.2      3.105      7.125
REMARK  Name = ZINC000583127796
REMARK  2 active torsions:
REMARK  status: ('A' for Active; 'I' for Inactive)
REMARK    1  A    between atoms: C_2  and  C_4
REMARK    2  A    between atoms: C_7  and  C_8
REMARK                            x       y       z     vdW  Elec       q    Type
REMARK                         _______ _______ _______ _____ _____    ______ ____
ROOT
ATOM      1  C   UNL     1      32.599  18.766  12.686  0.00  0.00    +0.247 C 
ATOM      2  O   UNL     1      32.967  19.147  11.576  0.00  0.00    -0.270 OA
ATOM      3  N   UNL     1      32.700  17.428  13.101  0.00  0.00    -0.297 N 
ATOM      4  C   UNL     1      32.296  16.886  14.401  0.00  0.00    +0.108 C 
ATOM      5  C   UNL     1      33.421  16.136  15.091  0.00  0.00    +0.020 C 
ATOM      6  C   UNL     1      34.054  15.109  14.170  0.00  0.00    +0.011 C 
ATOM      7  C   UNL     1      34.490  15.707  12.809  0.00  0.00    -0.004 C 
ATOM      8  C   UNL     1      34.987  14.532  11.939  0.00  0.00    +0.020 C 
ATOM      9  C   UNL     1      35.941  15.044  10.882  0.00  0.00    +0.070 C 
ATOM     10  S   UNL     1      36.937  16.269  11.746  0.00  0.00    -0.160 S 
ATOM     11  C   UNL     1      35.674  16.687  12.980  0.00  0.00    +0.077 C 
ATOM     12  C   UNL     1      33.276  16.439  12.174  0.00  0.00    +0.115 C 
ENDROOT
BRANCH   1  16
ATOM     13  C   UNL     1      31.337  21.512  15.713  0.00  0.00    +0.037 A 
ATOM     14  C   UNL     1      30.375  20.901  14.902  0.00  0.00    +0.014 A 
ATOM     15  C   UNL     1      30.775  20.092  13.835  0.00  0.00    +0.014 A 
ATOM     16  C   UNL     1      32.131  19.810  13.640  0.00  0.00    +0.037 A 
ATOM     17  C   UNL     1      33.094  20.504  14.386  0.00  0.00    +0.014 A 
ATOM     18  C   UNL     1      32.696  21.364  15.414  0.00  0.00    +0.014 A 
BRANCH  13  20
ATOM     19  N   UNL     1      31.802  23.315  17.278  0.00  0.00    -0.325 N 
ATOM     20  C   UNL     1      30.945  22.320  16.897  0.00  0.00    +0.242 C 
ATOM     21  O   UNL     1      29.882  22.137  17.470  0.00  0.00    -0.270 OA
ATOM     22  H   UNL     1      31.461  23.936  18.002  0.00  0.00    +0.145 HD
ATOM     23  H   UNL     1      32.528  23.663  16.668  0.00  0.00    +0.145 HD
ENDBRANCH  13  20
ENDBRANCH   1  16
TORSDOF 2
ENDMDL
MODEL 4
REMARK VINA RESULT:      -6.1      3.346      7.282
REMARK  Name = ZINC000583127796
REMARK  2 active torsions:
REMARK  status: ('A' for Active; 'I' for Inactive)
REMARK    1  A    between atoms: C_2  and  C_4
REMARK    2  A    between atoms: C_7  and  C_8
REMARK                            x       y       z     vdW  Elec       q    Type
REMARK                         _______ _______ _______ _____ _____    ______ ____
ROOT
ATOM      1  C   UNL     1      33.435  17.658  13.708  0.00  0.00    +0.247 C 
ATOM      2  O   UNL     1      33.333  16.636  14.386  0.00  0.00    -0.270 OA
ATOM      3  N   UNL     1      34.107  17.686  12.475  0.00  0.00    -0.297 N 
ATOM      4  C   UNL     1      34.272  18.849  11.599  0.00  0.00    +0.108 C 
ATOM      5  C   UNL     1      33.779  18.585  10.188  0.00  0.00    +0.020 C 
ATOM      6  C   UNL     1      34.365  17.306   9.622  0.00  0.00    +0.011 C 
ATOM      7  C   UNL     1      34.164  16.085  10.555  0.00  0.00    -0.004 C 
ATOM      8  C   UNL     1      34.920  14.900   9.917  0.00  0.00    +0.020 C 
ATOM      9  C   UNL     1      34.325  13.594  10.396  0.00  0.00    +0.070 C 
ATOM     10  S   UNL     1      32.550  13.894  10.395  0.00  0.00    -0.160 S 
ATOM     11  C   UNL     1      32.672  15.687  10.644  0.00  0.00    +0.077 C 
ATOM     12  C   UNL     1      34.708  16.442  11.966  0.00  0.00    +0.115 C 
ENDROOT
BRANCH   1  16
ATOM     13  C   UNL     1      31.429  21.000  15.470  0.00  0.00    +0.037 A 
ATOM     14  C   UNL     1      30.678  20.032  14.795  0.00  0.00    +0.014 A 
ATOM     15  C   UNL     1      31.326  18.997  14.116  0.00  0.00    +0.014 A 
ATOM     16  C   UNL     1      32.717  18.868  14.195  0.00  0.00    +0.037 A 
ATOM     17  C   UNL     1      33.471  19.895  14.781  0.00  0.00    +0.014 A 
ATOM     18  C   UNL     1      32.827  20.966  15.407  0.00  0.00    +0.014 A 
BRANCH  13  20
ATOM     19  N   UNL     1      30.731  23.318  15.699  0.00  0.00    -0.325 N 
ATOM     20  C   UNL     1      30.771  22.073  16.260  0.00  0.00    +0.242 C 
ATOM     21  O   UNL     1      30.244  21.839  17.337  0.00  0.00    -0.270 OA
ATOM     22  H   UNL     1      30.168  24.004  16.188  0.00  0.00    +0.145 HD
ATOM     23  H   UNL     1      30.901  23.472  14.715  0.00  0.00    +0.145 HD
ENDBRANCH  13  20
ENDBRANCH   1  16
TORSDOF 2
ENDMDL
MODEL 5
REMARK VINA RESULT:      -6.0      3.452      7.990
REMARK  Name = ZINC000583127796
REMARK  2 active torsions:
REMARK  status: ('A' for Active; 'I' for Inactive)
REMARK    1  A    between atoms: C_2  and  C_4
REMARK    2  A    between atoms: C_7  and  C_8
REMARK                            x       y       z     vdW  Elec       q    Type
REMARK                         _______ _______ _______ _____ _____    ______ ____
ROOT
ATOM      1  C   UNL     1      34.130  21.601  14.957  0.00  0.00    +0.247 C 
ATOM      2  O   UNL     1      35.215  21.060  15.163  0.00  0.00    -0.270 OA
ATOM      3  N   UNL     1      33.214  21.125  14.004  0.00  0.00    -0.297 N 
ATOM      4  C   UNL     1      31.901  21.698  13.697  0.00  0.00    +0.108 C 
ATOM      5  C   UNL     1      30.784  20.675  13.808  0.00  0.00    +0.020 C 
ATOM      6  C   UNL     1      31.101  19.416  13.023  0.00  0.00    +0.011 C 
ATOM      7  C   UNL     1      32.486  18.817  13.377  0.00  0.00    -0.004 C 
ATOM      8  C   UNL     1      32.723  17.632  12.416  0.00  0.00    +0.020 C 
ATOM      9  C   UNL     1      33.708  16.662  13.032  0.00  0.00    +0.070 C 
ATOM     10  S   UNL     1      33.229  16.592  14.765  0.00  0.00    -0.160 S 
ATOM     11  C   UNL     1      32.503  18.255  14.817  0.00  0.00    +0.077 C 
ATOM     12  C   UNL     1      33.562  19.928  13.222  0.00  0.00    +0.115 C 
ENDROOT
BRANCH   1  16
ATOM     13  C   UNL     1      33.386  24.781  17.720  0.00  0.00    +0.037 A 
ATOM     14  C   UNL     1      32.563  23.649  17.744  0.00  0.00    +0.014 A 
ATOM     15  C   UNL     1      32.718  22.655  16.775  0.00  0.00    +0.014 A 
ATOM     16  C   UNL     1      33.760  22.738  15.846  0.00  0.00    +0.037 A 
ATOM     17  C   UNL     1      34.513  23.918  15.758  0.00  0.00    +0.014 A 
ATOM     18  C   UNL     1      34.317  24.943  16.688  0.00  0.00    +0.014 A 
BRANCH  13  20
ATOM     19  N   UNL     1      32.116  25.903  19.465  0.00  0.00    -0.325 N 
ATOM     20  C   UNL     1      33.294  25.822  18.776  0.00  0.00    +0.242 C 
ATOM     21  O   UNL     1      34.246  26.536  19.051  0.00  0.00    -0.270 OA
ATOM     22  H   UNL     1      32.114  26.526  20.263  0.00  0.00    +0.145 HD
ATOM     23  H   UNL     1      31.433  25.159  19.453  0.00  0.00    +0.145 HD
ENDBRANCH  13  20
ENDBRANCH   1  16
TORSDOF 2
ENDMDL
MODEL 6
REMARK VINA RESULT:      -5.9      3.610      7.636
REMARK  Name = ZINC000583127796
REMARK  2 active torsions:
REMARK  status: ('A' for Active; 'I' for Inactive)
REMARK    1  A    between atoms: C_2  and  C_4
REMARK    2  A    between atoms: C_7  and  C_8
REMARK                            x       y       z     vdW  Elec       q    Type
REMARK                         _______ _______ _______ _____ _____    ______ ____
ROOT
ATOM      1  C   UNL     1      34.132  16.874  12.603  0.00  0.00    +0.247 C 
ATOM      2  O   UNL     1      35.117  16.879  13.340  0.00  0.00    -0.270 OA
ATOM      3  N   UNL     1      33.972  15.949  11.558  0.00  0.00    -0.297 N 
ATOM      4  C   UNL     1      32.835  15.863  10.638  0.00  0.00    +0.108 C 
ATOM      5  C   UNL     1      32.211  14.479  10.617  0.00  0.00    +0.020 C 
ATOM      6  C   UNL     1      33.256  13.400  10.400  0.00  0.00    +0.011 C 
ATOM      7  C   UNL     1      34.440  13.498  11.395  0.00  0.00    -0.004 C 
ATOM      8  C   UNL     1      35.474  12.432  10.972  0.00  0.00    +0.020 C 
ATOM      9  C   UNL     1      36.335  12.054  12.157  0.00  0.00    +0.070 C 
ATOM     10  S   UNL     1      35.177  11.977  13.533  0.00  0.00    -0.160 S 
ATOM     11  C   UNL     1      33.992  13.161  12.836  0.00  0.00    +0.077 C 
ATOM     12  C   UNL     1      35.020  14.939  11.337  0.00  0.00    +0.115 C 
ENDROOT
BRANCH   1  16
ATOM     13  C   UNL     1      31.255  19.827  13.741  0.00  0.00    +0.037 A 
ATOM     14  C   UNL     1      31.182  18.550  14.307  0.00  0.00    +0.014 A 
ATOM     15  C   UNL     1      32.040  17.541  13.861  0.00  0.00    +0.014 A 
ATOM     16  C   UNL     1      33.039  17.832  12.927  0.00  0.00    +0.037 A 
ATOM     17  C   UNL     1      33.042  19.080  12.287  0.00  0.00    +0.014 A 
ATOM     18  C   UNL     1      32.142  20.072  12.687  0.00  0.00    +0.014 A 
BRANCH  13  20
ATOM     19  N   UNL     1      29.869  20.796  15.488  0.00  0.00    -0.325 N 
ATOM     20  C   UNL     1      30.407  20.940  14.240  0.00  0.00    +0.242 C 
ATOM     21  O   UNL     1      30.242  21.959  13.587  0.00  0.00    -0.270 OA
ATOM     22  H   UNL     1      29.403  21.613  15.865  0.00  0.00    +0.145 HD
ATOM     23  H   UNL     1      30.211  20.110  16.147  0.00  0.00    +0.145 HD
ENDBRANCH  13  20
ENDBRANCH   1  16
TORSDOF 2
ENDMDL
MODEL 7
REMARK VINA RESULT:      -5.9      3.901      8.434
REMARK  Name = ZINC000583127796
REMARK  2 active torsions:
REMARK  status: ('A' for Active; 'I' for Inactive)
REMARK    1  A    between atoms: C_2  and  C_4
REMARK    2  A    between atoms: C_7  and  C_8
REMARK                            x       y       z     vdW  Elec       q    Type
REMARK                         _______ _______ _______ _____ _____    ______ ____
ROOT
ATOM      1  C   UNL     1      33.924  22.899  15.417  0.00  0.00    +0.247 C 
ATOM      2  O   UNL     1      34.861  22.557  14.697  0.00  0.00    -0.270 OA
ATOM      3  N   UNL     1      32.595  22.526  15.160  0.00  0.00    -0.297 N 
ATOM      4  C   UNL     1      31.420  22.878  15.962  0.00  0.00    +0.108 C 
ATOM      5  C   UNL     1      30.625  21.658  16.391  0.00  0.00    +0.020 C 
ATOM      6  C   UNL     1      30.312  20.755  15.212  0.00  0.00    +0.011 C 
ATOM      7  C   UNL     1      31.569  20.380  14.389  0.00  0.00    -0.004 C 
ATOM      8  C   UNL     1      31.082  19.578  13.162  0.00  0.00    +0.020 C 
ATOM      9  C   UNL     1      32.201  18.700  12.646  0.00  0.00    +0.070 C 
ATOM     10  S   UNL     1      32.980  18.061  14.138  0.00  0.00    -0.160 S 
ATOM     11  C   UNL     1      32.515  19.460  15.195  0.00  0.00    +0.077 C 
ATOM     12  C   UNL     1      32.308  21.686  13.985  0.00  0.00    +0.115 C 
ENDROOT
BRANCH   1  16
ATOM     13  C   UNL     1      34.530  24.983  19.103  0.00  0.00    +0.037 A 
ATOM     14  C   UNL     1      34.441  25.713  17.913  0.00  0.00    +0.014 A 
ATOM     15  C   UNL     1      34.359  25.043  16.689  0.00  0.00    +0.014 A 
ATOM     16  C   UNL     1      34.263  23.648  16.659  0.00  0.00    +0.037 A 
ATOM     17  C   UNL     1      34.457  22.918  17.840  0.00  0.00    +0.014 A 
ATOM     18  C   UNL     1      34.603  23.586  19.059  0.00  0.00    +0.014 A 
BRANCH  13  20
ATOM     19  N   UNL     1      33.369  26.204  20.856  0.00  0.00    -0.325 N 
ATOM     20  C   UNL     1      34.547  25.663  20.424  0.00  0.00    +0.242 C 
ATOM     21  O   UNL     1      35.554  25.690  21.114  0.00  0.00    -0.270 OA
ATOM     22  H   UNL     1      33.364  26.548  21.809  0.00  0.00    +0.145 HD
ATOM     23  H   UNL     1      32.479  25.955  20.446  0.00  0.00    +0.145 HD
ENDBRANCH  13  20
ENDBRANCH   1  16
TORSDOF 2
ENDMDL
MODEL 8
REMARK VINA RESULT:      -5.9      2.996      7.416
REMARK  Name = ZINC000583127796
REMARK  2 active torsions:
REMARK  status: ('A' for Active; 'I' for Inactive)
REMARK    1  A    between atoms: C_2  and  C_4
REMARK    2  A    between atoms: C_7  and  C_8
REMARK                            x       y       z     vdW  Elec       q    Type
REMARK                         _______ _______ _______ _____ _____    ______ ____
ROOT
ATOM      1  C   UNL     1      31.569  19.317  13.678  0.00  0.00    +0.247 C 
ATOM      2  O   UNL     1      30.740  19.337  12.770  0.00  0.00    -0.270 OA
ATOM      3  N   UNL     1      32.312  18.170  14.002  0.00  0.00    -0.297 N 
ATOM      4  C   UNL     1      33.322  18.056  15.058  0.00  0.00    +0.108 C 
ATOM      5  C   UNL     1      34.652  17.546  14.533  0.00  0.00    +0.020 C 
ATOM      6  C   UNL     1      34.479  16.282  13.712  0.00  0.00    +0.011 C 
ATOM      7  C   UNL     1      33.421  16.430  12.591  0.00  0.00    -0.004 C 
ATOM      8  C   UNL     1      33.261  15.041  11.935  0.00  0.00    +0.020 C 
ATOM      9  C   UNL     1      32.735  15.197  10.525  0.00  0.00    +0.070 C 
ATOM     10  S   UNL     1      33.626  16.621   9.879  0.00  0.00    -0.160 S 
ATOM     11  C   UNL     1      33.899  17.407  11.492  0.00  0.00    +0.077 C 
ATOM     12  C   UNL     1      32.096  16.941  13.222  0.00  0.00    +0.115 C 
ENDROOT
BRANCH   1  16
ATOM     13  C   UNL     1      32.672  22.845  15.831  0.00  0.00    +0.037 A 
ATOM     14  C   UNL     1      31.533  22.134  16.223  0.00  0.00    +0.014 A 
ATOM     15  C   UNL     1      31.093  21.049  15.462  0.00  0.00    +0.014 A 
ATOM     16  C   UNL     1      31.846  20.607  14.370  0.00  0.00    +0.037 A 
ATOM     17  C   UNL     1      32.925  21.381  13.919  0.00  0.00    +0.014 A 
ATOM     18  C   UNL     1      33.330  22.506  14.643  0.00  0.00    +0.014 A 
BRANCH  13  20
ATOM     19  N   UNL     1      32.533  24.255  17.808  0.00  0.00    -0.325 N 
ATOM     20  C   UNL     1      33.207  23.959  16.656  0.00  0.00    +0.242 C 
ATOM     21  O   UNL     1      34.232  24.547  16.346  0.00  0.00    -0.270 OA
ATOM     22  H   UNL     1      32.980  24.926  18.421  0.00  0.00    +0.145 HD
ATOM     23  H   UNL     1      31.867  23.617  18.221  0.00  0.00    +0.145 HD
ENDBRANCH  13  20
ENDBRANCH   1  16
TORSDOF 2
ENDMDL
MODEL 9
REMARK VINA RESULT:      -5.7      3.738      7.081
REMARK  Name = ZINC000583127796
REMARK  2 active torsions:
REMARK  status: ('A' for Active; 'I' for Inactive)
REMARK    1  A    between atoms: C_2  and  C_4
REMARK    2  A    between atoms: C_7  and  C_8
REMARK                            x       y       z     vdW  Elec       q    Type
REMARK                         _______ _______ _______ _____ _____    ______ ____
ROOT
ATOM      1  C   UNL     1      32.605  17.130  13.484  0.00  0.00    +0.247 C 
ATOM      2  O   UNL     1      32.112  16.601  12.489  0.00  0.00    -0.270 OA
ATOM      3  N   UNL     1      33.540  16.478  14.304  0.00  0.00    -0.297 N 
ATOM      4  C   UNL     1      34.182  17.029  15.500  0.00  0.00    +0.108 C 
ATOM      5  C   UNL     1      35.697  16.958  15.428  0.00  0.00    +0.020 C 
ATOM      6  C   UNL     1      36.173  15.564  15.064  0.00  0.00    +0.011 C 
ATOM      7  C   UNL     1      35.495  15.008  13.787  0.00  0.00    -0.004 C 
ATOM      8  C   UNL     1      35.974  13.550  13.621  0.00  0.00    +0.020 C 
ATOM      9  C   UNL     1      35.858  13.134  12.170  0.00  0.00    +0.070 C 
ATOM     10  S   UNL     1      36.410  14.583  11.255  0.00  0.00    -0.160 S 
ATOM     11  C   UNL     1      35.943  15.787  12.529  0.00  0.00    +0.077 C 
ATOM     12  C   UNL     1      33.954  15.108  13.959  0.00  0.00    +0.115 C 
ENDROOT
BRANCH   1  16
ATOM     13  C   UNL     1      31.282  21.167  13.987  0.00  0.00    +0.037 A 
ATOM     14  C   UNL     1      32.406  20.911  13.194  0.00  0.00    +0.014 A 
ATOM     15  C   UNL     1      32.920  19.614  13.113  0.00  0.00    +0.014 A 
ATOM     16  C   UNL     1      32.253  18.555  13.738  0.00  0.00    +0.037 A 
ATOM     17  C   UNL     1      31.192  18.829  14.612  0.00  0.00    +0.014 A 
ATOM     18  C   UNL     1      30.715  20.136  14.745  0.00  0.00    +0.014 A 
BRANCH  13  20
ATOM     19  N   UNL     1      30.746  23.188  15.228  0.00  0.00    -0.325 N 
ATOM     20  C   UNL     1      30.669  22.519  14.039  0.00  0.00    +0.242 C 
ATOM     21  O   UNL     1      30.166  23.030  13.050  0.00  0.00    -0.270 OA
ATOM     22  H   UNL     1      30.440  24.154  15.212  0.00  0.00    +0.145 HD
ATOM     23  H   UNL     1      31.387  22.914  15.959  0.00  0.00    +0.145 HD
ENDBRANCH  13  20
ENDBRANCH   1  16
TORSDOF 2
ENDMDL
