MODEL 1
REMARK VINA RESULT:      -6.9      0.000      0.000
REMARK  Name = ZINC000543478179
REMARK  8 active torsions:
REMARK  status: ('A' for Active; 'I' for Inactive)
REMARK    1  A    between atoms: C_1  and  C_2
REMARK    2  A    between atoms: C_2  and  N_3
REMARK    3  A    between atoms: N_9  and  C_10
REMARK    4  A    between atoms: C_10  and  C_11
REMARK    5  A    between atoms: C_10  and  C_12
REMARK    6  A    between atoms: C_15  and  O_16
REMARK    7  A    between atoms: O_16  and  C_17
REMARK    8  A    between atoms: C_17  and  C_18
REMARK                            x       y       z     vdW  Elec       q    Type
REMARK                         _______ _______ _______ _____ _____    ______ ____
ROOT
ATOM      1  C   UNL     1      31.212  20.854  15.140  0.00  0.00    +0.102 C 
ATOM      2  C   UNL     1      31.441  21.526  13.784  0.00  0.00    +0.033 C 
ENDROOT
BRANCH   1   9
ATOM      3  N   UNL     1      31.350  23.660  19.798  0.00  0.00    -0.299 N 
ATOM      4  C   UNL     1      29.943  23.264  19.843  0.00  0.00    +0.127 C 
ATOM      5  C   UNL     1      29.270  23.401  18.474  0.00  0.00    +0.129 C 
ATOM      6  N   UNL     1      29.988  22.608  17.471  0.00  0.00    -0.275 N 
ATOM      7  C   UNL     1      29.277  21.825  16.607  0.00  0.00    +0.303 C 
ATOM      8  O   UNL     1      28.045  21.755  16.665  0.00  0.00    -0.253 OA
ATOM      9  N   UNL     1      29.860  21.071  15.650  0.00  0.00    -0.293 N 
ATOM     10  C   UNL     1      31.434  22.765  17.498  0.00  0.00    +0.205 C 
ATOM     11  C   UNL     1      32.091  23.540  18.640  0.00  0.00    +0.233 C 
ATOM     12  O   UNL     1      33.265  23.907  18.544  0.00  0.00    -0.274 OA
ATOM     13  H   UNL     1      29.135  20.567  15.155  0.00  0.00    +0.151 HD
BRANCH   3  15
ATOM     14  C   UNL     1      31.584  23.348  22.214  0.00  0.00    +0.024 C 
ATOM     15  C   UNL     1      31.994  24.159  20.999  0.00  0.00    +0.104 C 
ENDBRANCH   3  15
ENDBRANCH   1   9
BRANCH   1  16
ATOM     16  C   UNL     1      31.521  19.369  15.101  0.00  0.00    -0.024 A 
ATOM     17  C   UNL     1      32.532  18.808  15.891  0.00  0.00    +0.009 A 
ATOM     18  C   UNL     1      32.816  17.443  15.827  0.00  0.00    +0.049 A 
ATOM     19  C   UNL     1      32.119  16.613  14.938  0.00  0.00    +0.156 A 
ATOM     20  C   UNL     1      31.087  17.164  14.181  0.00  0.00    +0.165 A 
ATOM     21  F   UNL     1      30.369  16.395  13.349  0.00  0.00    -0.202 F 
ATOM     22  C   UNL     1      30.793  18.525  14.246  0.00  0.00    +0.047 A 
BRANCH  19  23
ATOM     23  O   UNL     1      32.385  15.286  14.752  0.00  0.00    -0.489 OA
BRANCH  23  24
ATOM     24  C   UNL     1      33.509  15.008  13.916  0.00  0.00    +0.232 C 
BRANCH  24  25
ATOM     25  C   UNL     1      33.029  14.571  12.569  0.00  0.00    +0.027 C 
ATOM     26  C   UNL     1      31.949  13.522  12.476  0.00  0.00    +0.007 C 
ATOM     27  C   UNL     1      33.355  13.191  12.055  0.00  0.00    +0.007 C 
ENDBRANCH  24  25
ENDBRANCH  23  24
ENDBRANCH  19  23
ENDBRANCH   1  16
TORSDOF 6
ENDMDL
MODEL 2
REMARK VINA RESULT:      -6.4      4.673      8.651
REMARK  Name = ZINC000543478179
REMARK  8 active torsions:
REMARK  status: ('A' for Active; 'I' for Inactive)
REMARK    1  A    between atoms: C_1  and  C_2
REMARK    2  A    between atoms: C_2  and  N_3
REMARK    3  A    between atoms: N_9  and  C_10
REMARK    4  A    between atoms: C_10  and  C_11
REMARK    5  A    between atoms: C_10  and  C_12
REMARK    6  A    between atoms: C_15  and  O_16
REMARK    7  A    between atoms: O_16  and  C_17
REMARK    8  A    between atoms: C_17  and  C_18
REMARK                            x       y       z     vdW  Elec       q    Type
REMARK                         _______ _______ _______ _____ _____    ______ ____
ROOT
ATOM      1  C   UNL     1      30.598  22.239  15.105  0.00  0.00    +0.102 C 
ATOM      2  C   UNL     1      29.596  21.122  14.807  0.00  0.00    +0.033 C 
ENDROOT
BRANCH   1   9
ATOM      3  N   UNL     1      34.180  22.679  11.034  0.00  0.00    -0.299 N 
ATOM      4  C   UNL     1      33.601  24.018  10.938  0.00  0.00    +0.127 C 
ATOM      5  C   UNL     1      32.077  23.991  11.090  0.00  0.00    +0.129 C 
ATOM      6  N   UNL     1      31.702  23.366  12.362  0.00  0.00    -0.275 N 
ATOM      7  C   UNL     1      30.748  23.958  13.140  0.00  0.00    +0.303 C 
ATOM      8  O   UNL     1      30.210  25.019  12.805  0.00  0.00    -0.253 OA
ATOM      9  N   UNL     1      30.341  23.445  14.321  0.00  0.00    -0.293 N 
ATOM     10  C   UNL     1      32.402  22.125  12.657  0.00  0.00    +0.205 C 
ATOM     11  C   UNL     1      33.568  21.685  11.772  0.00  0.00    +0.233 C 
ATOM     12  O   UNL     1      33.995  20.530  11.840  0.00  0.00    -0.274 OA
ATOM     13  H   UNL     1      29.649  24.068  14.719  0.00  0.00    +0.151 HD
BRANCH   3  15
ATOM     14  C   UNL     1      35.246  22.282   8.868  0.00  0.00    +0.024 C 
ATOM     15  C   UNL     1      35.437  22.391  10.370  0.00  0.00    +0.104 C 
ENDBRANCH   3  15
ENDBRANCH   1   9
BRANCH   1  16
ATOM     16  C   UNL     1      30.650  22.582  16.582  0.00  0.00    -0.024 A 
ATOM     17  C   UNL     1      31.851  22.555  17.302  0.00  0.00    +0.009 A 
ATOM     18  C   UNL     1      31.875  22.853  18.665  0.00  0.00    +0.049 A 
ATOM     19  C   UNL     1      30.688  23.145  19.350  0.00  0.00    +0.156 A 
ATOM     20  C   UNL     1      29.500  23.209  18.627  0.00  0.00    +0.165 A 
ATOM     21  F   UNL     1      28.348  23.526  19.238  0.00  0.00    -0.202 F 
ATOM     22  C   UNL     1      29.469  22.921  17.264  0.00  0.00    +0.047 A 
BRANCH  19  23
ATOM     23  O   UNL     1      30.609  23.368  20.696  0.00  0.00    -0.489 OA
BRANCH  23  24
ATOM     24  C   UNL     1      31.712  22.873  21.455  0.00  0.00    +0.232 C 
BRANCH  24  25
ATOM     25  C   UNL     1      32.371  24.008  22.172  0.00  0.00    +0.027 C 
ATOM     26  C   UNL     1      32.908  25.170  21.374  0.00  0.00    +0.007 C 
ATOM     27  C   UNL     1      33.859  24.223  22.052  0.00  0.00    +0.007 C 
ENDBRANCH  24  25
ENDBRANCH  23  24
ENDBRANCH  19  23
ENDBRANCH   1  16
TORSDOF 6
ENDMDL
MODEL 3
REMARK VINA RESULT:      -6.4      3.302      9.537
REMARK  Name = ZINC000543478179
REMARK  8 active torsions:
REMARK  status: ('A' for Active; 'I' for Inactive)
REMARK    1  A    between atoms: C_1  and  C_2
REMARK    2  A    between atoms: C_2  and  N_3
REMARK    3  A    between atoms: N_9  and  C_10
REMARK    4  A    between atoms: C_10  and  C_11
REMARK    5  A    between atoms: C_10  and  C_12
REMARK    6  A    between atoms: C_15  and  O_16
REMARK    7  A    between atoms: O_16  and  C_17
REMARK    8  A    between atoms: C_17  and  C_18
REMARK                            x       y       z     vdW  Elec       q    Type
REMARK                         _______ _______ _______ _____ _____    ______ ____
ROOT
ATOM      1  C   UNL     1      32.194  17.437  13.966  0.00  0.00    +0.102 C 
ATOM      2  C   UNL     1      32.394  17.552  12.453  0.00  0.00    +0.033 C 
ENDROOT
BRANCH   1   9
ATOM      3  N   UNL     1      32.576  12.034  13.471  0.00  0.00    -0.299 N 
ATOM      4  C   UNL     1      33.612  12.216  14.486  0.00  0.00    +0.127 C 
ATOM      5  C   UNL     1      34.494  13.433  14.187  0.00  0.00    +0.129 C 
ATOM      6  N   UNL     1      33.673  14.643  14.076  0.00  0.00    -0.275 N 
ATOM      7  C   UNL     1      34.079  15.783  14.708  0.00  0.00    +0.303 C 
ATOM      8  O   UNL     1      35.109  15.812  15.388  0.00  0.00    -0.253 OA
ATOM      9  N   UNL     1      33.385  16.941  14.651  0.00  0.00    -0.293 N 
ATOM     10  C   UNL     1      32.481  14.492  13.256  0.00  0.00    +0.205 C 
ATOM     11  C   UNL     1      32.072  13.105  12.761  0.00  0.00    +0.233 C 
ATOM     12  O   UNL     1      31.234  12.990  11.863  0.00  0.00    -0.274 OA
ATOM     13  H   UNL     1      33.869  17.631  15.213  0.00  0.00    +0.151 HD
BRANCH   3  15
ATOM     14  C   UNL     1      32.976   9.902  12.337  0.00  0.00    +0.024 C 
ATOM     15  C   UNL     1      32.041  10.708  13.221  0.00  0.00    +0.104 C 
ENDBRANCH   3  15
ENDBRANCH   1   9
BRANCH   1  16
ATOM     16  C   UNL     1      31.748  18.749  14.585  0.00  0.00    -0.024 A 
ATOM     17  C   UNL     1      32.425  19.318  15.670  0.00  0.00    +0.009 A 
ATOM     18  C   UNL     1      31.987  20.515  16.239  0.00  0.00    +0.049 A 
ATOM     19  C   UNL     1      30.834  21.150  15.758  0.00  0.00    +0.156 A 
ATOM     20  C   UNL     1      30.184  20.605  14.654  0.00  0.00    +0.165 A 
ATOM     21  F   UNL     1      29.100  21.206  14.139  0.00  0.00    -0.202 F 
ATOM     22  C   UNL     1      30.619  19.414  14.076  0.00  0.00    +0.047 A 
BRANCH  19  23
ATOM     23  O   UNL     1      30.290  22.279  16.305  0.00  0.00    -0.489 OA
BRANCH  23  24
ATOM     24  C   UNL     1      29.364  22.047  17.367  0.00  0.00    +0.232 C 
BRANCH  24  25
ATOM     25  C   UNL     1      29.232  23.289  18.190  0.00  0.00    +0.027 C 
ATOM     26  C   UNL     1      30.321  23.640  19.173  0.00  0.00    +0.007 C 
ATOM     27  C   UNL     1      28.974  23.195  19.673  0.00  0.00    +0.007 C 
ENDBRANCH  24  25
ENDBRANCH  23  24
ENDBRANCH  19  23
ENDBRANCH   1  16
TORSDOF 6
ENDMDL
MODEL 4
REMARK VINA RESULT:      -6.2      4.897      6.266
REMARK  Name = ZINC000543478179
REMARK  8 active torsions:
REMARK  status: ('A' for Active; 'I' for Inactive)
REMARK    1  A    between atoms: C_1  and  C_2
REMARK    2  A    between atoms: C_2  and  N_3
REMARK    3  A    between atoms: N_9  and  C_10
REMARK    4  A    between atoms: C_10  and  C_11
REMARK    5  A    between atoms: C_10  and  C_12
REMARK    6  A    between atoms: C_15  and  O_16
REMARK    7  A    between atoms: O_16  and  C_17
REMARK    8  A    between atoms: C_17  and  C_18
REMARK                            x       y       z     vdW  Elec       q    Type
REMARK                         _______ _______ _______ _____ _____    ______ ____
ROOT
ATOM      1  C   UNL     1      31.465  23.973  12.606  0.00  0.00    +0.102 C 
ATOM      2  C   UNL     1      30.553  25.174  12.341  0.00  0.00    +0.033 C 
ENDROOT
BRANCH   1   9
ATOM      3  N   UNL     1      33.265  21.669  17.193  0.00  0.00    -0.299 N 
ATOM      4  C   UNL     1      32.428  20.565  16.728  0.00  0.00    +0.127 C 
ATOM      5  C   UNL     1      31.088  21.060  16.176  0.00  0.00    +0.129 C 
ATOM      6  N   UNL     1      31.307  22.022  15.091  0.00  0.00    -0.275 N 
ATOM      7  C   UNL     1      30.578  21.908  13.942  0.00  0.00    +0.303 C 
ATOM      8  O   UNL     1      29.753  21.001  13.789  0.00  0.00    -0.253 OA
ATOM      9  N   UNL     1      30.714  22.755  12.899  0.00  0.00    -0.293 N 
ATOM     10  C   UNL     1      32.304  23.042  15.379  0.00  0.00    +0.205 C 
ATOM     11  C   UNL     1      33.160  22.930  16.640  0.00  0.00    +0.233 C 
ATOM     12  O   UNL     1      33.811  23.901  17.034  0.00  0.00    -0.274 OA
ATOM     13  H   UNL     1      30.088  22.456  12.161  0.00  0.00    +0.151 HD
BRANCH   3  15
ATOM     14  C   UNL     1      33.598  21.416  19.604  0.00  0.00    +0.024 C 
ATOM     15  C   UNL     1      34.249  21.436  18.233  0.00  0.00    +0.104 C 
ENDBRANCH   3  15
ENDBRANCH   1   9
BRANCH   1  16
ATOM     16  C   UNL     1      32.431  23.725  11.462  0.00  0.00    -0.024 A 
ATOM     17  C   UNL     1      32.126  24.103  10.148  0.00  0.00    +0.009 A 
ATOM     18  C   UNL     1      33.018  23.848   9.105  0.00  0.00    +0.049 A 
ATOM     19  C   UNL     1      34.221  23.172   9.349  0.00  0.00    +0.156 A 
ATOM     20  C   UNL     1      34.541  22.831  10.661  0.00  0.00    +0.165 A 
ATOM     21  F   UNL     1      35.703  22.219  10.940  0.00  0.00    -0.202 F 
ATOM     22  C   UNL     1      33.659  23.089  11.708  0.00  0.00    +0.047 A 
BRANCH  19  23
ATOM     23  O   UNL     1      35.113  22.811   8.378  0.00  0.00    -0.489 OA
BRANCH  23  24
ATOM     24  C   UNL     1      34.527  22.307   7.178  0.00  0.00    +0.232 C 
BRANCH  24  25
ATOM     25  C   UNL     1      34.359  20.825   7.292  0.00  0.00    +0.027 C 
ATOM     26  C   UNL     1      35.505  19.992   7.808  0.00  0.00    +0.007 C 
ATOM     27  C   UNL     1      35.104  19.901   6.361  0.00  0.00    +0.007 C 
ENDBRANCH  24  25
ENDBRANCH  23  24
ENDBRANCH  19  23
ENDBRANCH   1  16
TORSDOF 6
ENDMDL
MODEL 5
REMARK VINA RESULT:      -6.1      3.046      5.377
REMARK  Name = ZINC000543478179
REMARK  8 active torsions:
REMARK  status: ('A' for Active; 'I' for Inactive)
REMARK    1  A    between atoms: C_1  and  C_2
REMARK    2  A    between atoms: C_2  and  N_3
REMARK    3  A    between atoms: N_9  and  C_10
REMARK    4  A    between atoms: C_10  and  C_11
REMARK    5  A    between atoms: C_10  and  C_12
REMARK    6  A    between atoms: C_15  and  O_16
REMARK    7  A    between atoms: O_16  and  C_17
REMARK    8  A    between atoms: C_17  and  C_18
REMARK                            x       y       z     vdW  Elec       q    Type
REMARK                         _______ _______ _______ _____ _____    ______ ____
ROOT
ATOM      1  C   UNL     1      31.167  23.290  19.163  0.00  0.00    +0.102 C 
ATOM      2  C   UNL     1      29.915  23.375  20.039  0.00  0.00    +0.033 C 
ENDROOT
BRANCH   1   9
ATOM      3  N   UNL     1      35.610  26.137  17.843  0.00  0.00    -0.299 N 
ATOM      4  C   UNL     1      36.273  25.058  18.574  0.00  0.00    +0.127 C 
ATOM      5  C   UNL     1      35.518  24.693  19.856  0.00  0.00    +0.129 C 
ATOM      6  N   UNL     1      34.134  24.320  19.544  0.00  0.00    -0.275 N 
ATOM      7  C   UNL     1      33.598  23.206  20.125  0.00  0.00    +0.303 C 
ATOM      8  O   UNL     1      34.258  22.495  20.889  0.00  0.00    -0.253 OA
ATOM      9  N   UNL     1      32.330  22.798  19.896  0.00  0.00    -0.293 N 
ATOM     10  C   UNL     1      33.454  25.225  18.630  0.00  0.00    +0.205 C 
ATOM     11  C   UNL     1      34.246  26.328  17.929  0.00  0.00    +0.233 C 
ATOM     12  O   UNL     1      33.654  27.254  17.368  0.00  0.00    -0.274 OA
ATOM     13  H   UNL     1      32.172  21.943  20.416  0.00  0.00    +0.151 HD
BRANCH   3  15
ATOM     14  C   UNL     1      36.504  26.431  15.584  0.00  0.00    +0.024 C 
ATOM     15  C   UNL     1      36.391  27.007  16.983  0.00  0.00    +0.104 C 
ENDBRANCH   3  15
ENDBRANCH   1   9
BRANCH   1  16
ATOM     16  C   UNL     1      30.940  22.447  17.922  0.00  0.00    -0.024 A 
ATOM     17  C   UNL     1      32.004  21.861  17.226  0.00  0.00    +0.009 A 
ATOM     18  C   UNL     1      31.777  21.105  16.075  0.00  0.00    +0.049 A 
ATOM     19  C   UNL     1      30.479  20.953  15.570  0.00  0.00    +0.156 A 
ATOM     20  C   UNL     1      29.417  21.504  16.283  0.00  0.00    +0.165 A 
ATOM     21  F   UNL     1      28.155  21.345  15.854  0.00  0.00    -0.202 F 
ATOM     22  C   UNL     1      29.635  22.253  17.438  0.00  0.00    +0.047 A 
BRANCH  19  23
ATOM     23  O   UNL     1      30.175  20.300  14.408  0.00  0.00    -0.489 OA
BRANCH  23  24
ATOM     24  C   UNL     1      31.127  19.317  14.002  0.00  0.00    +0.232 C 
BRANCH  24  25
ATOM     25  C   UNL     1      30.684  17.971  14.480  0.00  0.00    +0.027 C 
ATOM     26  C   UNL     1      31.628  17.136  15.308  0.00  0.00    +0.007 C 
ATOM     27  C   UNL     1      31.295  16.719  13.902  0.00  0.00    +0.007 C 
ENDBRANCH  24  25
ENDBRANCH  23  24
ENDBRANCH  19  23
ENDBRANCH   1  16
TORSDOF 6
ENDMDL
MODEL 6
REMARK VINA RESULT:      -6.1      4.264      5.870
REMARK  Name = ZINC000543478179
REMARK  8 active torsions:
REMARK  status: ('A' for Active; 'I' for Inactive)
REMARK    1  A    between atoms: C_1  and  C_2
REMARK    2  A    between atoms: C_2  and  N_3
REMARK    3  A    between atoms: N_9  and  C_10
REMARK    4  A    between atoms: C_10  and  C_11
REMARK    5  A    between atoms: C_10  and  C_12
REMARK    6  A    between atoms: C_15  and  O_16
REMARK    7  A    between atoms: O_16  and  C_17
REMARK    8  A    between atoms: C_17  and  C_18
REMARK                            x       y       z     vdW  Elec       q    Type
REMARK                         _______ _______ _______ _____ _____    ______ ____
ROOT
ATOM      1  C   UNL     1      31.185  21.706  14.970  0.00  0.00    +0.102 C 
ATOM      2  C   UNL     1      29.924  20.847  14.857  0.00  0.00    +0.033 C 
ENDROOT
BRANCH   1   9
ATOM      3  N   UNL     1      32.697  23.787  19.763  0.00  0.00    -0.299 N 
ATOM      4  C   UNL     1      33.848  22.911  19.552  0.00  0.00    +0.127 C 
ATOM      5  C   UNL     1      33.429  21.542  19.008  0.00  0.00    +0.129 C 
ATOM      6  N   UNL     1      32.674  21.697  17.761  0.00  0.00    -0.275 N 
ATOM      7  C   UNL     1      32.971  20.893  16.698  0.00  0.00    +0.303 C 
ATOM      8  O   UNL     1      33.874  20.052  16.758  0.00  0.00    -0.253 OA
ATOM      9  N   UNL     1      32.319  20.966  15.517  0.00  0.00    -0.293 N 
ATOM     10  C   UNL     1      31.639  22.719  17.803  0.00  0.00    +0.205 C 
ATOM     11  C   UNL     1      31.549  23.656  19.007  0.00  0.00    +0.233 C 
ATOM     12  O   UNL     1      30.537  24.340  19.185  0.00  0.00    -0.274 OA
ATOM     13  H   UNL     1      32.729  20.291  14.884  0.00  0.00    +0.151 HD
BRANCH   3  15
ATOM     14  C   UNL     1      32.872  24.250  22.160  0.00  0.00    +0.024 C 
ATOM     15  C   UNL     1      32.766  24.836  20.763  0.00  0.00    +0.104 C 
ENDBRANCH   3  15
ENDBRANCH   1   9
BRANCH   1  16
ATOM     16  C   UNL     1      31.567  22.337  13.644  0.00  0.00    -0.024 A 
ATOM     17  C   UNL     1      32.578  21.800  12.838  0.00  0.00    +0.009 A 
ATOM     18  C   UNL     1      32.929  22.405  11.631  0.00  0.00    +0.049 A 
ATOM     19  C   UNL     1      32.303  23.590  11.222  0.00  0.00    +0.156 A 
ATOM     20  C   UNL     1      31.271  24.103  12.004  0.00  0.00    +0.165 A 
ATOM     21  F   UNL     1      30.618  25.214  11.625  0.00  0.00    -0.202 F 
ATOM     22  C   UNL     1      30.909  23.499  13.206  0.00  0.00    +0.047 A 
BRANCH  19  23
ATOM     23  O   UNL     1      32.639  24.292  10.098  0.00  0.00    -0.489 OA
BRANCH  23  24
ATOM     24  C   UNL     1      33.760  23.778   9.379  0.00  0.00    +0.232 C 
BRANCH  24  25
ATOM     25  C   UNL     1      33.278  23.050   8.164  0.00  0.00    +0.027 C 
ATOM     26  C   UNL     1      33.228  21.543   8.181  0.00  0.00    +0.007 C 
ATOM     27  C   UNL     1      34.242  22.250   7.324  0.00  0.00    +0.007 C 
ENDBRANCH  24  25
ENDBRANCH  23  24
ENDBRANCH  19  23
ENDBRANCH   1  16
TORSDOF 6
ENDMDL
MODEL 7
REMARK VINA RESULT:      -6.1      5.072      6.229
REMARK  Name = ZINC000543478179
REMARK  8 active torsions:
REMARK  status: ('A' for Active; 'I' for Inactive)
REMARK    1  A    between atoms: C_1  and  C_2
REMARK    2  A    between atoms: C_2  and  N_3
REMARK    3  A    between atoms: N_9  and  C_10
REMARK    4  A    between atoms: C_10  and  C_11
REMARK    5  A    between atoms: C_10  and  C_12
REMARK    6  A    between atoms: C_15  and  O_16
REMARK    7  A    between atoms: O_16  and  C_17
REMARK    8  A    between atoms: C_17  and  C_18
REMARK                            x       y       z     vdW  Elec       q    Type
REMARK                         _______ _______ _______ _____ _____    ______ ____
ROOT
ATOM      1  C   UNL     1      31.647  23.981  12.387  0.00  0.00    +0.102 C 
ATOM      2  C   UNL     1      30.789  25.191  12.010  0.00  0.00    +0.033 C 
ENDROOT
BRANCH   1   9
ATOM      3  N   UNL     1      33.191  22.099  17.251  0.00  0.00    -0.299 N 
ATOM      4  C   UNL     1      32.334  20.980  16.865  0.00  0.00    +0.127 C 
ATOM      5  C   UNL     1      31.034  21.458  16.211  0.00  0.00    +0.129 C 
ATOM      6  N   UNL     1      31.327  22.298  15.046  0.00  0.00    -0.275 N 
ATOM      7  C   UNL     1      30.638  22.090  13.885  0.00  0.00    +0.303 C 
ATOM      8  O   UNL     1      29.789  21.199  13.789  0.00  0.00    -0.253 OA
ATOM      9  N   UNL     1      30.843  22.823  12.769  0.00  0.00    -0.293 N 
ATOM     10  C   UNL     1      32.347  23.310  15.271  0.00  0.00    +0.205 C 
ATOM     11  C   UNL     1      33.151  23.300  16.570  0.00  0.00    +0.233 C 
ATOM     12  O   UNL     1      33.820  24.285  16.892  0.00  0.00    -0.274 OA
ATOM     13  H   UNL     1      30.236  22.470  12.039  0.00  0.00    +0.151 HD
BRANCH   3  15
ATOM     14  C   UNL     1      33.396  21.666  19.650  0.00  0.00    +0.024 C 
ATOM     15  C   UNL     1      34.126  21.942  18.349  0.00  0.00    +0.104 C 
ENDBRANCH   3  15
ENDBRANCH   1   9
BRANCH   1  16
ATOM     16  C   UNL     1      32.614  23.601  11.281  0.00  0.00    -0.024 A 
ATOM     17  C   UNL     1      33.962  23.328  11.545  0.00  0.00    +0.009 A 
ATOM     18  C   UNL     1      34.842  23.000  10.512  0.00  0.00    +0.049 A 
ATOM     19  C   UNL     1      34.399  22.977   9.183  0.00  0.00    +0.156 A 
ATOM     20  C   UNL     1      33.051  23.210   8.925  0.00  0.00    +0.165 A 
ATOM     21  F   UNL     1      32.579  23.156   7.669  0.00  0.00    -0.202 F 
ATOM     22  C   UNL     1      32.165  23.531   9.951  0.00  0.00    +0.047 A 
BRANCH  19  23
ATOM     23  O   UNL     1      35.207  22.745   8.105  0.00  0.00    -0.489 OA
BRANCH  23  24
ATOM     24  C   UNL     1      36.156  21.692   8.278  0.00  0.00    +0.232 C 
BRANCH  24  25
ATOM     25  C   UNL     1      36.211  20.865   7.033  0.00  0.00    +0.027 C 
ATOM     26  C   UNL     1      34.938  20.268   6.488  0.00  0.00    +0.007 C 
ATOM     27  C   UNL     1      35.983  19.375   7.098  0.00  0.00    +0.007 C 
ENDBRANCH  24  25
ENDBRANCH  23  24
ENDBRANCH  19  23
ENDBRANCH   1  16
TORSDOF 6
ENDMDL
MODEL 8
REMARK VINA RESULT:      -6.1      3.058      8.849
REMARK  Name = ZINC000543478179
REMARK  8 active torsions:
REMARK  status: ('A' for Active; 'I' for Inactive)
REMARK    1  A    between atoms: C_1  and  C_2
REMARK    2  A    between atoms: C_2  and  N_3
REMARK    3  A    between atoms: N_9  and  C_10
REMARK    4  A    between atoms: C_10  and  C_11
REMARK    5  A    between atoms: C_10  and  C_12
REMARK    6  A    between atoms: C_15  and  O_16
REMARK    7  A    between atoms: O_16  and  C_17
REMARK    8  A    between atoms: C_17  and  C_18
REMARK                            x       y       z     vdW  Elec       q    Type
REMARK                         _______ _______ _______ _____ _____    ______ ____
ROOT
ATOM      1  C   UNL     1      30.826  21.015  15.272  0.00  0.00    +0.102 C 
ATOM      2  C   UNL     1      29.473  21.206  14.582  0.00  0.00    +0.033 C 
ENDROOT
BRANCH   1   9
ATOM      3  N   UNL     1      33.002  16.646  12.871  0.00  0.00    -0.299 N 
ATOM      4  C   UNL     1      34.049  17.606  12.528  0.00  0.00    +0.127 C 
ATOM      5  C   UNL     1      33.465  18.951  12.086  0.00  0.00    +0.129 C 
ATOM      6  N   UNL     1      32.597  19.499  13.133  0.00  0.00    -0.275 N 
ATOM      7  C   UNL     1      32.713  20.817  13.472  0.00  0.00    +0.303 C 
ATOM      8  O   UNL     1      33.546  21.551  12.931  0.00  0.00    -0.253 OA
ATOM      9  N   UNL     1      31.948  21.402  14.419  0.00  0.00    -0.293 N 
ATOM     10  C   UNL     1      31.659  18.544  13.703  0.00  0.00    +0.205 C 
ATOM     11  C   UNL     1      31.774  17.063  13.344  0.00  0.00    +0.233 C 
ATOM     12  O   UNL     1      30.846  16.291  13.598  0.00  0.00    -0.274 OA
ATOM     13  H   UNL     1      32.232  22.370  14.507  0.00  0.00    +0.151 HD
BRANCH   3  15
ATOM     14  C   UNL     1      33.458  14.833  11.292  0.00  0.00    +0.024 C 
ATOM     15  C   UNL     1      33.262  15.224  12.745  0.00  0.00    +0.104 C 
ENDBRANCH   3  15
ENDBRANCH   1   9
BRANCH   1  16
ATOM     16  C   UNL     1      30.901  21.753  16.596  0.00  0.00    -0.024 A 
ATOM     17  C   UNL     1      32.108  21.896  17.290  0.00  0.00    +0.009 A 
ATOM     18  C   UNL     1      32.154  22.561  18.517  0.00  0.00    +0.049 A 
ATOM     19  C   UNL     1      30.981  23.063  19.097  0.00  0.00    +0.156 A 
ATOM     20  C   UNL     1      29.788  22.955  18.388  0.00  0.00    +0.165 A 
ATOM     21  F   UNL     1      28.650  23.460  18.891  0.00  0.00    -0.202 F 
ATOM     22  C   UNL     1      29.736  22.300  17.159  0.00  0.00    +0.047 A 
BRANCH  19  23
ATOM     23  O   UNL     1      30.921  23.654  20.328  0.00  0.00    -0.489 OA
BRANCH  23  24
ATOM     24  C   UNL     1      31.800  23.099  21.306  0.00  0.00    +0.232 C 
BRANCH  24  25
ATOM     25  C   UNL     1      32.615  24.193  21.919  0.00  0.00    +0.027 C 
ATOM     26  C   UNL     1      33.517  25.021  21.038  0.00  0.00    +0.007 C 
ATOM     27  C   UNL     1      34.114  24.056  22.027  0.00  0.00    +0.007 C 
ENDBRANCH  24  25
ENDBRANCH  23  24
ENDBRANCH  19  23
ENDBRANCH   1  16
TORSDOF 6
ENDMDL
MODEL 9
REMARK VINA RESULT:      -6.0      2.873      8.704
REMARK  Name = ZINC000543478179
REMARK  8 active torsions:
REMARK  status: ('A' for Active; 'I' for Inactive)
REMARK    1  A    between atoms: C_1  and  C_2
REMARK    2  A    between atoms: C_2  and  N_3
REMARK    3  A    between atoms: N_9  and  C_10
REMARK    4  A    between atoms: C_10  and  C_11
REMARK    5  A    between atoms: C_10  and  C_12
REMARK    6  A    between atoms: C_15  and  O_16
REMARK    7  A    between atoms: O_16  and  C_17
REMARK    8  A    between atoms: C_17  and  C_18
REMARK                            x       y       z     vdW  Elec       q    Type
REMARK                         _______ _______ _______ _____ _____    ______ ____
ROOT
ATOM      1  C   UNL     1      30.274  21.396  16.190  0.00  0.00    +0.102 C 
ATOM      2  C   UNL     1      28.756  21.478  16.009  0.00  0.00    +0.033 C 
ENDROOT
BRANCH   1   9
ATOM      3  N   UNL     1      33.133  17.159  14.329  0.00  0.00    -0.299 N 
ATOM      4  C   UNL     1      33.723  18.190  13.477  0.00  0.00    +0.127 C 
ATOM      5  C   UNL     1      32.664  19.151  12.931  0.00  0.00    +0.129 C 
ATOM      6  N   UNL     1      31.919  19.769  14.032  0.00  0.00    -0.275 N 
ATOM      7  C   UNL     1      31.685  21.114  14.007  0.00  0.00    +0.303 C 
ATOM      8  O   UNL     1      32.105  21.825  13.088  0.00  0.00    -0.253 OA
ATOM      9  N   UNL     1      31.002  21.759  14.977  0.00  0.00    -0.293 N 
ATOM     10  C   UNL     1      31.478  18.839  15.061  0.00  0.00    +0.205 C 
ATOM     11  C   UNL     1      31.971  17.393  15.036  0.00  0.00    +0.233 C 
ATOM     12  O   UNL     1      31.412  16.537  15.727  0.00  0.00    -0.274 OA
ATOM     13  H   UNL     1      30.978  22.746  14.749  0.00  0.00    +0.151 HD
BRANCH   3  15
ATOM     14  C   UNL     1      33.389  14.934  13.343  0.00  0.00    +0.024 C 
ATOM     15  C   UNL     1      33.793  15.874  14.464  0.00  0.00    +0.104 C 
ENDBRANCH   3  15
ENDBRANCH   1   9
BRANCH   1  16
ATOM     16  C   UNL     1      30.757  22.236  17.358  0.00  0.00    -0.024 A 
ATOM     17  C   UNL     1      29.861  22.852  18.240  0.00  0.00    +0.009 A 
ATOM     18  C   UNL     1      30.323  23.638  19.297  0.00  0.00    +0.049 A 
ATOM     19  C   UNL     1      31.696  23.859  19.470  0.00  0.00    +0.156 A 
ATOM     20  C   UNL     1      32.588  23.215  18.616  0.00  0.00    +0.165 A 
ATOM     21  F   UNL     1      33.912  23.369  18.774  0.00  0.00    -0.202 F 
ATOM     22  C   UNL     1      32.134  22.423  17.563  0.00  0.00    +0.047 A 
BRANCH  19  23
ATOM     23  O   UNL     1      32.232  24.677  20.425  0.00  0.00    -0.489 OA
BRANCH  23  24
ATOM     24  C   UNL     1      32.504  24.045  21.676  0.00  0.00    +0.232 C 
BRANCH  24  25
ATOM     25  C   UNL     1      33.658  24.730  22.337  0.00  0.00    +0.027 C 
ATOM     26  C   UNL     1      34.865  25.099  21.513  0.00  0.00    +0.007 C 
ATOM     27  C   UNL     1      34.963  24.001  22.536  0.00  0.00    +0.007 C 
ENDBRANCH  24  25
ENDBRANCH  23  24
ENDBRANCH  19  23
ENDBRANCH   1  16
TORSDOF 6
ENDMDL
