MODEL 1
REMARK VINA RESULT:      -6.6      0.000      0.000
REMARK  Name = ZINC000543478179
REMARK  8 active torsions:
REMARK  status: ('A' for Active; 'I' for Inactive)
REMARK    1  A    between atoms: C_1  and  C_2
REMARK    2  A    between atoms: C_2  and  N_3
REMARK    3  A    between atoms: N_9  and  C_10
REMARK    4  A    between atoms: C_10  and  C_11
REMARK    5  A    between atoms: C_10  and  C_12
REMARK    6  A    between atoms: C_15  and  O_16
REMARK    7  A    between atoms: O_16  and  C_17
REMARK    8  A    between atoms: C_17  and  C_18
REMARK                            x       y       z     vdW  Elec       q    Type
REMARK                         _______ _______ _______ _____ _____    ______ ____
ROOT
ATOM      1  C   UNL     1      32.086  23.647  12.661  0.00  0.00    +0.102 C 
ATOM      2  C   UNL     1      31.034  24.755  12.739  0.00  0.00    +0.033 C 
ENDROOT
BRANCH   1   9
ATOM      3  N   UNL     1      34.263  20.624  16.625  0.00  0.00    -0.299 N 
ATOM      4  C   UNL     1      33.552  19.556  15.924  0.00  0.00    +0.127 C 
ATOM      5  C   UNL     1      32.150  19.993  15.493  0.00  0.00    +0.129 C 
ATOM      6  N   UNL     1      32.225  21.190  14.649  0.00  0.00    -0.275 N 
ATOM      7  C   UNL     1      31.486  21.245  13.502  0.00  0.00    +0.303 C 
ATOM      8  O   UNL     1      30.773  20.300  13.149  0.00  0.00    -0.253 OA
ATOM      9  N   UNL     1      31.494  22.312  12.674  0.00  0.00    -0.293 N 
ATOM     10  C   UNL     1      33.099  22.236  15.159  0.00  0.00    +0.205 C 
ATOM     11  C   UNL     1      33.994  21.953  16.366  0.00  0.00    +0.233 C 
ATOM     12  O   UNL     1      34.533  22.885  16.968  0.00  0.00    -0.274 OA
ATOM     13  H   UNL     1      30.891  22.109  11.886  0.00  0.00    +0.151 HD
BRANCH   3  15
ATOM     14  C   UNL     1      34.934  19.028  18.353  0.00  0.00    +0.024 C 
ATOM     15  C   UNL     1      35.293  20.289  17.590  0.00  0.00    +0.104 C 
ENDBRANCH   3  15
ENDBRANCH   1   9
BRANCH   1  16
ATOM     16  C   UNL     1      32.991  23.803  11.453  0.00  0.00    -0.024 A 
ATOM     17  C   UNL     1      34.386  23.814  11.575  0.00  0.00    +0.009 A 
ATOM     18  C   UNL     1      35.202  23.979  10.455  0.00  0.00    +0.049 A 
ATOM     19  C   UNL     1      34.637  24.178   9.188  0.00  0.00    +0.156 A 
ATOM     20  C   UNL     1      33.251  24.128   9.061  0.00  0.00    +0.165 A 
ATOM     21  F   UNL     1      32.673  24.273   7.858  0.00  0.00    -0.202 F 
ATOM     22  C   UNL     1      32.431  23.956  10.173  0.00  0.00    +0.047 A 
BRANCH  19  23
ATOM     23  O   UNL     1      35.357  24.427   8.053  0.00  0.00    -0.489 OA
BRANCH  23  24
ATOM     24  C   UNL     1      36.062  23.302   7.528  0.00  0.00    +0.232 C 
BRANCH  24  25
ATOM     25  C   UNL     1      35.156  22.525   6.627  0.00  0.00    +0.027 C 
ATOM     26  C   UNL     1      34.704  21.148   7.047  0.00  0.00    +0.007 C 
ATOM     27  C   UNL     1      35.667  21.305   5.902  0.00  0.00    +0.007 C 
ENDBRANCH  24  25
ENDBRANCH  23  24
ENDBRANCH  19  23
ENDBRANCH   1  16
TORSDOF 6
ENDMDL
MODEL 2
REMARK VINA RESULT:      -6.2      3.259      8.532
REMARK  Name = ZINC000543478179
REMARK  8 active torsions:
REMARK  status: ('A' for Active; 'I' for Inactive)
REMARK    1  A    between atoms: C_1  and  C_2
REMARK    2  A    between atoms: C_2  and  N_3
REMARK    3  A    between atoms: N_9  and  C_10
REMARK    4  A    between atoms: C_10  and  C_11
REMARK    5  A    between atoms: C_10  and  C_12
REMARK    6  A    between atoms: C_15  and  O_16
REMARK    7  A    between atoms: O_16  and  C_17
REMARK    8  A    between atoms: C_17  and  C_18
REMARK                            x       y       z     vdW  Elec       q    Type
REMARK                         _______ _______ _______ _____ _____    ______ ____
ROOT
ATOM      1  C   UNL     1      33.768  23.669   9.207  0.00  0.00    +0.102 C 
ATOM      2  C   UNL     1      32.680  24.295   8.331  0.00  0.00    +0.033 C 
ENDROOT
BRANCH   1   9
ATOM      3  N   UNL     1      37.480  21.750   5.724  0.00  0.00    -0.299 N 
ATOM      4  C   UNL     1      38.343  22.684   6.445  0.00  0.00    +0.127 C 
ATOM      5  C   UNL     1      37.642  24.019   6.709  0.00  0.00    +0.129 C 
ATOM      6  N   UNL     1      36.397  23.804   7.452  0.00  0.00    -0.275 N 
ATOM      7  C   UNL     1      36.110  24.606   8.519  0.00  0.00    +0.303 C 
ATOM      8  O   UNL     1      36.887  25.496   8.884  0.00  0.00    -0.253 OA
ATOM      9  N   UNL     1      34.983  24.479   9.252  0.00  0.00    -0.293 N 
ATOM     10  C   UNL     1      35.564  22.728   6.938  0.00  0.00    +0.205 C 
ATOM     11  C   UNL     1      36.106  21.806   5.846  0.00  0.00    +0.233 C 
ATOM     12  O   UNL     1      35.338  21.071   5.219  0.00  0.00    -0.274 OA
ATOM     13  H   UNL     1      35.006  25.166   9.996  0.00  0.00    +0.151 HD
BRANCH   3  15
ATOM     14  C   UNL     1      38.792  21.335   3.701  0.00  0.00    +0.024 C 
ATOM     15  C   UNL     1      38.072  20.722   4.888  0.00  0.00    +0.104 C 
ENDBRANCH   3  15
ENDBRANCH   1   9
BRANCH   1  16
ATOM     16  C   UNL     1      33.277  23.390  10.615  0.00  0.00    -0.024 A 
ATOM     17  C   UNL     1      33.978  22.545  11.484  0.00  0.00    +0.009 A 
ATOM     18  C   UNL     1      33.500  22.284  12.769  0.00  0.00    +0.049 A 
ATOM     19  C   UNL     1      32.284  22.831  13.200  0.00  0.00    +0.156 A 
ATOM     20  C   UNL     1      31.606  23.701  12.349  0.00  0.00    +0.165 A 
ATOM     21  F   UNL     1      30.459  24.278  12.741  0.00  0.00    -0.202 F 
ATOM     22  C   UNL     1      32.081  23.973  11.068  0.00  0.00    +0.047 A 
BRANCH  19  23
ATOM     23  O   UNL     1      31.703  22.564  14.408  0.00  0.00    -0.489 OA
BRANCH  23  24
ATOM     24  C   UNL     1      30.997  21.325  14.476  0.00  0.00    +0.232 C 
BRANCH  24  25
ATOM     25  C   UNL     1      31.557  20.497  15.590  0.00  0.00    +0.027 C 
ATOM     26  C   UNL     1      32.946  20.788  16.098  0.00  0.00    +0.007 C 
ATOM     27  C   UNL     1      32.680  19.526  15.325  0.00  0.00    +0.007 C 
ENDBRANCH  24  25
ENDBRANCH  23  24
ENDBRANCH  19  23
ENDBRANCH   1  16
TORSDOF 6
ENDMDL
MODEL 3
REMARK VINA RESULT:      -6.1      2.776      8.175
REMARK  Name = ZINC000543478179
REMARK  8 active torsions:
REMARK  status: ('A' for Active; 'I' for Inactive)
REMARK    1  A    between atoms: C_1  and  C_2
REMARK    2  A    between atoms: C_2  and  N_3
REMARK    3  A    between atoms: N_9  and  C_10
REMARK    4  A    between atoms: C_10  and  C_11
REMARK    5  A    between atoms: C_10  and  C_12
REMARK    6  A    between atoms: C_15  and  O_16
REMARK    7  A    between atoms: O_16  and  C_17
REMARK    8  A    between atoms: C_17  and  C_18
REMARK                            x       y       z     vdW  Elec       q    Type
REMARK                         _______ _______ _______ _____ _____    ______ ____
ROOT
ATOM      1  C   UNL     1      32.566  23.315  11.978  0.00  0.00    +0.102 C 
ATOM      2  C   UNL     1      31.283  24.147  11.934  0.00  0.00    +0.033 C 
ENDROOT
BRANCH   1   9
ATOM      3  N   UNL     1      35.441  21.624   7.682  0.00  0.00    -0.299 N 
ATOM      4  C   UNL     1      36.443  22.521   8.253  0.00  0.00    +0.127 C 
ATOM      5  C   UNL     1      35.820  23.834   8.736  0.00  0.00    +0.129 C 
ATOM      6  N   UNL     1      34.761  23.568   9.714  0.00  0.00    -0.275 N 
ATOM      7  C   UNL     1      34.713  24.307  10.862  0.00  0.00    +0.303 C 
ATOM      8  O   UNL     1      35.553  25.180  11.103  0.00  0.00    -0.253 OA
ATOM      9  N   UNL     1      33.767  24.129  11.810  0.00  0.00    -0.293 N 
ATOM     10  C   UNL     1      33.832  22.517   9.329  0.00  0.00    +0.205 C 
ATOM     11  C   UNL     1      34.124  21.662   8.096  0.00  0.00    +0.233 C 
ATOM     12  O   UNL     1      33.237  20.959   7.606  0.00  0.00    -0.274 OA
ATOM     13  H   UNL     1      33.951  24.773  12.570  0.00  0.00    +0.151 HD
BRANCH   3  15
ATOM     14  C   UNL     1      36.118  21.320   5.350  0.00  0.00    +0.024 C 
ATOM     15  C   UNL     1      35.836  20.649   6.682  0.00  0.00    +0.104 C 
ENDBRANCH   3  15
ENDBRANCH   1   9
BRANCH   1  16
ATOM     16  C   UNL     1      32.670  22.493  13.250  0.00  0.00    -0.024 A 
ATOM     17  C   UNL     1      33.169  23.037  14.439  0.00  0.00    +0.009 A 
ATOM     18  C   UNL     1      33.276  22.260  15.593  0.00  0.00    +0.049 A 
ATOM     19  C   UNL     1      32.924  20.904  15.571  0.00  0.00    +0.156 A 
ATOM     20  C   UNL     1      32.391  20.372  14.399  0.00  0.00    +0.165 A 
ATOM     21  F   UNL     1      32.003  19.088  14.350  0.00  0.00    -0.202 F 
ATOM     22  C   UNL     1      32.274  21.145  13.245  0.00  0.00    +0.047 A 
BRANCH  19  23
ATOM     23  O   UNL     1      33.072  20.051  16.629  0.00  0.00    -0.489 OA
BRANCH  23  24
ATOM     24  C   UNL     1      34.326  19.371  16.684  0.00  0.00    +0.232 C 
BRANCH  24  25
ATOM     25  C   UNL     1      34.529  18.814  18.057  0.00  0.00    +0.027 C 
ATOM     26  C   UNL     1      35.711  19.275  18.871  0.00  0.00    +0.007 C 
ATOM     27  C   UNL     1      35.673  17.871  18.335  0.00  0.00    +0.007 C 
ENDBRANCH  24  25
ENDBRANCH  23  24
ENDBRANCH  19  23
ENDBRANCH   1  16
TORSDOF 6
ENDMDL
MODEL 4
REMARK VINA RESULT:      -5.9      2.327      3.502
REMARK  Name = ZINC000543478179
REMARK  8 active torsions:
REMARK  status: ('A' for Active; 'I' for Inactive)
REMARK    1  A    between atoms: C_1  and  C_2
REMARK    2  A    between atoms: C_2  and  N_3
REMARK    3  A    between atoms: N_9  and  C_10
REMARK    4  A    between atoms: C_10  and  C_11
REMARK    5  A    between atoms: C_10  and  C_12
REMARK    6  A    between atoms: C_15  and  O_16
REMARK    7  A    between atoms: O_16  and  C_17
REMARK    8  A    between atoms: C_17  and  C_18
REMARK                            x       y       z     vdW  Elec       q    Type
REMARK                         _______ _______ _______ _____ _____    ______ ____
ROOT
ATOM      1  C   UNL     1      34.657  24.167  10.571  0.00  0.00    +0.102 C 
ATOM      2  C   UNL     1      35.452  25.468  10.704  0.00  0.00    +0.033 C 
ENDROOT
BRANCH   1   9
ATOM      3  N   UNL     1      32.702  20.351  13.917  0.00  0.00    -0.299 N 
ATOM      4  C   UNL     1      31.423  20.903  13.473  0.00  0.00    +0.127 C 
ATOM      5  C   UNL     1      31.454  22.433  13.417  0.00  0.00    +0.129 C 
ATOM      6  N   UNL     1      32.536  22.891  12.540  0.00  0.00    -0.275 N 
ATOM      7  C   UNL     1      32.285  23.879  11.631  0.00  0.00    +0.303 C 
ATOM      8  O   UNL     1      31.161  24.381  11.518  0.00  0.00    -0.253 OA
ATOM      9  N   UNL     1      33.227  24.361  10.792  0.00  0.00    -0.293 N 
ATOM     10  C   UNL     1      33.812  22.227  12.757  0.00  0.00    +0.205 C 
ATOM     11  C   UNL     1      33.888  21.018  13.690  0.00  0.00    +0.233 C 
ATOM     12  O   UNL     1      34.983  20.613  14.090  0.00  0.00    -0.274 OA
ATOM     13  H   UNL     1      32.799  25.066  10.203  0.00  0.00    +0.151 HD
BRANCH   3  15
ATOM     14  C   UNL     1      32.983  17.942  13.588  0.00  0.00    +0.024 C 
ATOM     15  C   UNL     1      32.735  19.062  14.582  0.00  0.00    +0.104 C 
ENDBRANCH   3  15
ENDBRANCH   1   9
BRANCH   1  16
ATOM     16  C   UNL     1      34.889  23.490   9.232  0.00  0.00    -0.024 A 
ATOM     17  C   UNL     1      35.898  23.914   8.359  0.00  0.00    +0.009 A 
ATOM     18  C   UNL     1      36.083  23.292   7.124  0.00  0.00    +0.049 A 
ATOM     19  C   UNL     1      35.233  22.256   6.715  0.00  0.00    +0.156 A 
ATOM     20  C   UNL     1      34.254  21.809   7.599  0.00  0.00    +0.165 A 
ATOM     21  F   UNL     1      33.447  20.791   7.262  0.00  0.00    -0.202 F 
ATOM     22  C   UNL     1      34.069  22.420   8.838  0.00  0.00    +0.047 A 
BRANCH  19  23
ATOM     23  O   UNL     1      35.291  21.647   5.493  0.00  0.00    -0.489 OA
BRANCH  23  24
ATOM     24  C   UNL     1      36.424  20.801   5.294  0.00  0.00    +0.232 C 
BRANCH  24  25
ATOM     25  C   UNL     1      36.052  19.389   5.619  0.00  0.00    +0.027 C 
ATOM     26  C   UNL     1      36.436  18.817   6.960  0.00  0.00    +0.007 C 
ATOM     27  C   UNL     1      37.116  18.324   5.712  0.00  0.00    +0.007 C 
ENDBRANCH  24  25
ENDBRANCH  23  24
ENDBRANCH  19  23
ENDBRANCH   1  16
TORSDOF 6
ENDMDL
MODEL 5
REMARK VINA RESULT:      -5.9      3.027      4.382
REMARK  Name = ZINC000543478179
REMARK  8 active torsions:
REMARK  status: ('A' for Active; 'I' for Inactive)
REMARK    1  A    between atoms: C_1  and  C_2
REMARK    2  A    between atoms: C_2  and  N_3
REMARK    3  A    between atoms: N_9  and  C_10
REMARK    4  A    between atoms: C_10  and  C_11
REMARK    5  A    between atoms: C_10  and  C_12
REMARK    6  A    between atoms: C_15  and  O_16
REMARK    7  A    between atoms: O_16  and  C_17
REMARK    8  A    between atoms: C_17  and  C_18
REMARK                            x       y       z     vdW  Elec       q    Type
REMARK                         _______ _______ _______ _____ _____    ______ ____
ROOT
ATOM      1  C   UNL     1      32.403  22.220  15.643  0.00  0.00    +0.102 C 
ATOM      2  C   UNL     1      31.158  21.400  15.989  0.00  0.00    +0.033 C 
ENDROOT
BRANCH   1   9
ATOM      3  N   UNL     1      35.928  25.579  18.068  0.00  0.00    -0.299 N 
ATOM      4  C   UNL     1      36.845  24.466  17.825  0.00  0.00    +0.127 C 
ATOM      5  C   UNL     1      36.194  23.115  18.133  0.00  0.00    +0.129 C 
ATOM      6  N   UNL     1      34.970  22.946  17.343  0.00  0.00    -0.275 N 
ATOM      7  C   UNL     1      34.746  21.758  16.708  0.00  0.00    +0.303 C 
ATOM      8  O   UNL     1      35.561  20.831  16.766  0.00  0.00    -0.253 OA
ATOM      9  N   UNL     1      33.643  21.518  15.966  0.00  0.00    -0.293 N 
ATOM     10  C   UNL     1      34.087  24.102  17.340  0.00  0.00    +0.205 C 
ATOM     11  C   UNL     1      34.562  25.419  17.954  0.00  0.00    +0.233 C 
ATOM     12  O   UNL     1      33.750  26.316  18.198  0.00  0.00    -0.274 OA
ATOM     13  H   UNL     1      33.713  20.584  15.581  0.00  0.00    +0.151 HD
BRANCH   3  15
ATOM     14  C   UNL     1      37.555  26.776  19.450  0.00  0.00    +0.024 C 
ATOM     15  C   UNL     1      36.459  26.886  18.406  0.00  0.00    +0.104 C 
ENDBRANCH   3  15
ENDBRANCH   1   9
BRANCH   1  16
ATOM     16  C   UNL     1      32.416  22.653  14.188  0.00  0.00    -0.024 A 
ATOM     17  C   UNL     1      33.283  22.072  13.256  0.00  0.00    +0.009 A 
ATOM     18  C   UNL     1      33.295  22.497  11.926  0.00  0.00    +0.049 A 
ATOM     19  C   UNL     1      32.464  23.545  11.509  0.00  0.00    +0.156 A 
ATOM     20  C   UNL     1      31.573  24.097  12.427  0.00  0.00    +0.165 A 
ATOM     21  F   UNL     1      30.732  25.075  12.056  0.00  0.00    -0.202 F 
ATOM     22  C   UNL     1      31.551  23.672  13.754  0.00  0.00    +0.047 A 
BRANCH  19  23
ATOM     23  O   UNL     1      32.467  24.078  10.250  0.00  0.00    -0.489 OA
BRANCH  23  24
ATOM     24  C   UNL     1      33.675  23.881   9.515  0.00  0.00    +0.232 C 
BRANCH  24  25
ATOM     25  C   UNL     1      33.355  23.262   8.192  0.00  0.00    +0.027 C 
ATOM     26  C   UNL     1      33.482  21.768   8.027  0.00  0.00    +0.007 C 
ATOM     27  C   UNL     1      34.454  22.685   7.336  0.00  0.00    +0.007 C 
ENDBRANCH  24  25
ENDBRANCH  23  24
ENDBRANCH  19  23
ENDBRANCH   1  16
TORSDOF 6
ENDMDL
MODEL 6
REMARK VINA RESULT:      -5.9      3.688      8.983
REMARK  Name = ZINC000543478179
REMARK  8 active torsions:
REMARK  status: ('A' for Active; 'I' for Inactive)
REMARK    1  A    between atoms: C_1  and  C_2
REMARK    2  A    between atoms: C_2  and  N_3
REMARK    3  A    between atoms: N_9  and  C_10
REMARK    4  A    between atoms: C_10  and  C_11
REMARK    5  A    between atoms: C_10  and  C_12
REMARK    6  A    between atoms: C_15  and  O_16
REMARK    7  A    between atoms: O_16  and  C_17
REMARK    8  A    between atoms: C_17  and  C_18
REMARK                            x       y       z     vdW  Elec       q    Type
REMARK                         _______ _______ _______ _____ _____    ______ ____
ROOT
ATOM      1  C   UNL     1      35.473  24.259   9.398  0.00  0.00    +0.102 C 
ATOM      2  C   UNL     1      35.847  25.743   9.359  0.00  0.00    +0.033 C 
ENDROOT
BRANCH   1   9
ATOM      3  N   UNL     1      37.364  22.295   4.691  0.00  0.00    -0.299 N 
ATOM      4  C   UNL     1      38.139  21.442   5.590  0.00  0.00    +0.127 C 
ATOM      5  C   UNL     1      38.697  22.229   6.779  0.00  0.00    +0.129 C 
ATOM      6  N   UNL     1      37.611  22.886   7.513  0.00  0.00    -0.275 N 
ATOM      7  C   UNL     1      37.590  22.816   8.877  0.00  0.00    +0.303 C 
ATOM      8  O   UNL     1      38.455  22.195   9.504  0.00  0.00    -0.253 OA
ATOM      9  N   UNL     1      36.629  23.398   9.628  0.00  0.00    -0.293 N 
ATOM     10  C   UNL     1      36.648  23.581   6.674  0.00  0.00    +0.205 C 
ATOM     11  C   UNL     1      36.709  23.418   5.155  0.00  0.00    +0.233 C 
ATOM     12  O   UNL     1      36.086  24.192   4.424  0.00  0.00    -0.274 OA
ATOM     13  H   UNL     1      36.815  23.189  10.601  0.00  0.00    +0.151 HD
BRANCH   3  15
ATOM     14  C   UNL     1      38.504  22.333   2.526  0.00  0.00    +0.024 C 
ATOM     15  C   UNL     1      37.251  21.943   3.288  0.00  0.00    +0.104 C 
ENDBRANCH   3  15
ENDBRANCH   1   9
BRANCH   1  16
ATOM     16  C   UNL     1      34.395  23.968  10.425  0.00  0.00    -0.024 A 
ATOM     17  C   UNL     1      33.034  24.061  10.110  0.00  0.00    +0.009 A 
ATOM     18  C   UNL     1      32.057  23.809  11.074  0.00  0.00    +0.049 A 
ATOM     19  C   UNL     1      32.421  23.497  12.390  0.00  0.00    +0.156 A 
ATOM     20  C   UNL     1      33.774  23.367  12.694  0.00  0.00    +0.165 A 
ATOM     21  F   UNL     1      34.163  23.029  13.934  0.00  0.00    -0.202 F 
ATOM     22  C   UNL     1      34.755  23.609  11.735  0.00  0.00    +0.047 A 
BRANCH  19  23
ATOM     23  O   UNL     1      31.534  23.315  13.414  0.00  0.00    -0.489 OA
BRANCH  23  24
ATOM     24  C   UNL     1      31.225  21.953  13.708  0.00  0.00    +0.232 C 
BRANCH  24  25
ATOM     25  C   UNL     1      31.435  21.700  15.167  0.00  0.00    +0.027 C 
ATOM     26  C   UNL     1      31.662  20.288  15.645  0.00  0.00    +0.007 C 
ATOM     27  C   UNL     1      30.376  20.995  15.978  0.00  0.00    +0.007 C 
ENDBRANCH  24  25
ENDBRANCH  23  24
ENDBRANCH  19  23
ENDBRANCH   1  16
TORSDOF 6
ENDMDL
MODEL 7
REMARK VINA RESULT:      -5.8      5.572      8.443
REMARK  Name = ZINC000543478179
REMARK  8 active torsions:
REMARK  status: ('A' for Active; 'I' for Inactive)
REMARK    1  A    between atoms: C_1  and  C_2
REMARK    2  A    between atoms: C_2  and  N_3
REMARK    3  A    between atoms: N_9  and  C_10
REMARK    4  A    between atoms: C_10  and  C_11
REMARK    5  A    between atoms: C_10  and  C_12
REMARK    6  A    between atoms: C_15  and  O_16
REMARK    7  A    between atoms: O_16  and  C_17
REMARK    8  A    between atoms: C_17  and  C_18
REMARK                            x       y       z     vdW  Elec       q    Type
REMARK                         _______ _______ _______ _____ _____    ______ ____
ROOT
ATOM      1  C   UNL     1      34.101  17.558  13.016  0.00  0.00    +0.102 C 
ATOM      2  C   UNL     1      34.710  18.138  11.737  0.00  0.00    +0.033 C 
ENDROOT
BRANCH   1   9
ATOM      3  N   UNL     1      33.290  12.190  12.685  0.00  0.00    -0.299 N 
ATOM      4  C   UNL     1      34.244  12.181  13.792  0.00  0.00    +0.127 C 
ATOM      5  C   UNL     1      35.401  13.155  13.554  0.00  0.00    +0.129 C 
ATOM      6  N   UNL     1      34.891  14.511  13.334  0.00  0.00    -0.275 N 
ATOM      7  C   UNL     1      35.486  15.559  13.977  0.00  0.00    +0.303 C 
ATOM      8  O   UNL     1      36.430  15.387  14.755  0.00  0.00    -0.253 OA
ATOM      9  N   UNL     1      35.081  16.839  13.826  0.00  0.00    -0.293 N 
ATOM     10  C   UNL     1      33.775  14.595  12.405  0.00  0.00    +0.205 C 
ATOM     11  C   UNL     1      33.108  13.314  11.905  0.00  0.00    +0.233 C 
ATOM     12  O   UNL     1      32.351  13.350  10.931  0.00  0.00    -0.274 OA
ATOM     13  H   UNL     1      35.656  17.428  14.416  0.00  0.00    +0.151 HD
BRANCH   3  15
ATOM     14  C   UNL     1      33.317   9.944  11.713  0.00  0.00    +0.024 C 
ATOM     15  C   UNL     1      32.493  11.008  12.414  0.00  0.00    +0.104 C 
ENDBRANCH   3  15
ENDBRANCH   1   9
BRANCH   1  16
ATOM     16  C   UNL     1      33.414  18.621  13.853  0.00  0.00    -0.024 A 
ATOM     17  C   UNL     1      33.731  18.812  15.204  0.00  0.00    +0.009 A 
ATOM     18  C   UNL     1      33.074  19.781  15.964  0.00  0.00    +0.049 A 
ATOM     19  C   UNL     1      32.053  20.555  15.397  0.00  0.00    +0.156 A 
ATOM     20  C   UNL     1      31.764  20.392  14.045  0.00  0.00    +0.165 A 
ATOM     21  F   UNL     1      30.820  21.144  13.456  0.00  0.00    -0.202 F 
ATOM     22  C   UNL     1      32.421  19.432  13.278  0.00  0.00    +0.047 A 
BRANCH  19  23
ATOM     23  O   UNL     1      31.304  21.468  16.087  0.00  0.00    -0.489 OA
BRANCH  23  24
ATOM     24  C   UNL     1      31.777  22.813  16.016  0.00  0.00    +0.232 C 
BRANCH  24  25
ATOM     25  C   UNL     1      33.138  22.893  16.632  0.00  0.00    +0.027 C 
ATOM     26  C   UNL     1      33.716  24.245  16.967  0.00  0.00    +0.007 C 
ATOM     27  C   UNL     1      34.301  23.437  15.841  0.00  0.00    +0.007 C 
ENDBRANCH  24  25
ENDBRANCH  23  24
ENDBRANCH  19  23
ENDBRANCH   1  16
TORSDOF 6
ENDMDL
MODEL 8
REMARK VINA RESULT:      -5.8     21.766     24.307
REMARK  Name = ZINC000543478179
REMARK  8 active torsions:
REMARK  status: ('A' for Active; 'I' for Inactive)
REMARK    1  A    between atoms: C_1  and  C_2
REMARK    2  A    between atoms: C_2  and  N_3
REMARK    3  A    between atoms: N_9  and  C_10
REMARK    4  A    between atoms: C_10  and  C_11
REMARK    5  A    between atoms: C_10  and  C_12
REMARK    6  A    between atoms: C_15  and  O_16
REMARK    7  A    between atoms: O_16  and  C_17
REMARK    8  A    between atoms: C_17  and  C_18
REMARK                            x       y       z     vdW  Elec       q    Type
REMARK                         _______ _______ _______ _____ _____    ______ ____
ROOT
ATOM      1  C   UNL     1      19.650  10.762   1.749  0.00  0.00    +0.102 C 
ATOM      2  C   UNL     1      20.062  11.769   2.826  0.00  0.00    +0.033 C 
ENDROOT
BRANCH   1   9
ATOM      3  N   UNL     1      16.432   8.686  -2.113  0.00  0.00    -0.299 N 
ATOM      4  C   UNL     1      17.528   9.120  -2.977  0.00  0.00    +0.127 C 
ATOM      5  C   UNL     1      18.051  10.504  -2.581  0.00  0.00    +0.129 C 
ATOM      6  N   UNL     1      18.479  10.506  -1.178  0.00  0.00    -0.275 N 
ATOM      7  C   UNL     1      19.671  11.084  -0.846  0.00  0.00    +0.303 C 
ATOM      8  O   UNL     1      20.405  11.587  -1.703  0.00  0.00    -0.253 OA
ATOM      9  N   UNL     1      20.134  11.134   0.422  0.00  0.00    -0.293 N 
ATOM     10  C   UNL     1      17.540   9.883  -0.258  0.00  0.00    +0.205 C 
ATOM     11  C   UNL     1      16.332   9.123  -0.808  0.00  0.00    +0.233 C 
ATOM     12  O   UNL     1      15.398   8.822  -0.060  0.00  0.00    -0.274 OA
ATOM     13  H   UNL     1      21.039  11.587   0.413  0.00  0.00    +0.151 HD
BRANCH   3  15
ATOM     14  C   UNL     1      15.962   6.329  -2.570  0.00  0.00    +0.024 C 
ATOM     15  C   UNL     1      15.443   7.754  -2.622  0.00  0.00    +0.104 C 
ENDBRANCH   3  15
ENDBRANCH   1   9
BRANCH   1  16
ATOM     16  C   UNL     1      20.093   9.350   2.087  0.00  0.00    -0.024 A 
ATOM     17  C   UNL     1      19.278   8.481   2.821  0.00  0.00    +0.009 A 
ATOM     18  C   UNL     1      19.711   7.193   3.141  0.00  0.00    +0.049 A 
ATOM     19  C   UNL     1      20.990   6.760   2.766  0.00  0.00    +0.156 A 
ATOM     20  C   UNL     1      21.785   7.611   2.003  0.00  0.00    +0.165 A 
ATOM     21  F   UNL     1      23.000   7.218   1.590  0.00  0.00    -0.202 F 
ATOM     22  C   UNL     1      21.356   8.895   1.674  0.00  0.00    +0.047 A 
BRANCH  19  23
ATOM     23  O   UNL     1      21.524   5.548   3.105  0.00  0.00    -0.489 OA
BRANCH  23  24
ATOM     24  C   UNL     1      21.254   4.491   2.184  0.00  0.00    +0.232 C 
BRANCH  24  25
ATOM     25  C   UNL     1      20.143   3.642   2.715  0.00  0.00    +0.027 C 
ATOM     26  C   UNL     1      20.071   2.189   2.317  0.00  0.00    +0.007 C 
ATOM     27  C   UNL     1      19.048   3.161   1.797  0.00  0.00    +0.007 C 
ENDBRANCH  24  25
ENDBRANCH  23  24
ENDBRANCH  19  23
ENDBRANCH   1  16
TORSDOF 6
ENDMDL
MODEL 9
REMARK VINA RESULT:      -5.8      2.412      3.654
REMARK  Name = ZINC000543478179
REMARK  8 active torsions:
REMARK  status: ('A' for Active; 'I' for Inactive)
REMARK    1  A    between atoms: C_1  and  C_2
REMARK    2  A    between atoms: C_2  and  N_3
REMARK    3  A    between atoms: N_9  and  C_10
REMARK    4  A    between atoms: C_10  and  C_11
REMARK    5  A    between atoms: C_10  and  C_12
REMARK    6  A    between atoms: C_15  and  O_16
REMARK    7  A    between atoms: O_16  and  C_17
REMARK    8  A    between atoms: C_17  and  C_18
REMARK                            x       y       z     vdW  Elec       q    Type
REMARK                         _______ _______ _______ _____ _____    ______ ____
ROOT
ATOM      1  C   UNL     1      34.653  24.147  10.473  0.00  0.00    +0.102 C 
ATOM      2  C   UNL     1      35.463  25.436  10.634  0.00  0.00    +0.033 C 
ENDROOT
BRANCH   1   9
ATOM      3  N   UNL     1      32.856  20.330  13.906  0.00  0.00    -0.299 N 
ATOM      4  C   UNL     1      31.558  20.880  13.520  0.00  0.00    +0.127 C 
ATOM      5  C   UNL     1      31.583  22.410  13.462  0.00  0.00    +0.129 C 
ATOM      6  N   UNL     1      32.624  22.868  12.536  0.00  0.00    -0.275 N 
ATOM      7  C   UNL     1      32.331  23.856  11.639  0.00  0.00    +0.303 C 
ATOM      8  O   UNL     1      31.203  24.356  11.576  0.00  0.00    -0.253 OA
ATOM      9  N   UNL     1      33.234  24.339  10.758  0.00  0.00    -0.293 N 
ATOM     10  C   UNL     1      33.910  22.207  12.696  0.00  0.00    +0.205 C 
ATOM     11  C   UNL     1      34.030  20.999  13.625  0.00  0.00    +0.233 C 
ATOM     12  O   UNL     1      35.142  20.596  13.976  0.00  0.00    -0.274 OA
ATOM     13  H   UNL     1      32.779  25.042  10.189  0.00  0.00    +0.151 HD
BRANCH   3  15
ATOM     14  C   UNL     1      32.945  17.909  13.560  0.00  0.00    +0.024 C 
ATOM     15  C   UNL     1      32.921  19.041  14.570  0.00  0.00    +0.104 C 
ENDBRANCH   3  15
ENDBRANCH   1   9
BRANCH   1  16
ATOM     16  C   UNL     1      34.828  23.530   9.097  0.00  0.00    -0.024 A 
ATOM     17  C   UNL     1      33.958  22.544   8.618  0.00  0.00    +0.009 A 
ATOM     18  C   UNL     1      34.147  21.974   7.358  0.00  0.00    +0.049 A 
ATOM     19  C   UNL     1      35.239  22.351   6.564  0.00  0.00    +0.156 A 
ATOM     20  C   UNL     1      36.081  23.359   7.024  0.00  0.00    +0.165 A 
ATOM     21  F   UNL     1      37.114  23.777   6.276  0.00  0.00    -0.202 F 
ATOM     22  C   UNL     1      35.894  23.938   8.278  0.00  0.00    +0.047 A 
BRANCH  19  23
ATOM     23  O   UNL     1      35.545  21.789   5.356  0.00  0.00    -0.489 OA
BRANCH  23  24
ATOM     24  C   UNL     1      35.425  20.367   5.305  0.00  0.00    +0.232 C 
BRANCH  24  25
ATOM     25  C   UNL     1      36.632  19.744   5.930  0.00  0.00    +0.027 C 
ATOM     26  C   UNL     1      36.855  18.260   5.783  0.00  0.00    +0.007 C 
ATOM     27  C   UNL     1      36.487  18.833   7.124  0.00  0.00    +0.007 C 
ENDBRANCH  24  25
ENDBRANCH  23  24
ENDBRANCH  19  23
ENDBRANCH   1  16
TORSDOF 6
ENDMDL
