MODEL 1
REMARK VINA RESULT:      -6.2      0.000      0.000
REMARK  Name = ZINC000329563636
REMARK  3 active torsions:
REMARK  status: ('A' for Active; 'I' for Inactive)
REMARK    1  A    between atoms: C_1  and  C_2
REMARK    2  A    between atoms: C_2  and  N_3
REMARK    3  A    between atoms: N_9  and  C_10
REMARK                            x       y       z     vdW  Elec       q    Type
REMARK                         _______ _______ _______ _____ _____    ______ ____
ROOT
ATOM      1  C   UNL     1      34.763  20.722  14.590  0.00  0.00    +0.112 C 
ATOM      2  C   UNL     1      35.724  21.348  15.606  0.00  0.00    +0.075 C 
ATOM      3  C   UNL     1      35.071  21.801  16.920  0.00  0.00    +0.113 C 
ATOM      4  C   UNL     1      34.901  20.683  17.982  0.00  0.00    +0.048 C 
ATOM      5  C   UNL     1      35.860  21.022  19.117  0.00  0.00    +0.004 C 
ATOM      6  C   UNL     1      35.943  22.536  19.086  0.00  0.00    +0.004 C 
ATOM      7  C   UNL     1      36.003  22.840  17.598  0.00  0.00    +0.048 C 
ATOM      8  O   UNL     1      33.807  22.455  16.694  0.00  0.00    -0.485 OA
ATOM      9  C   UNL     1      32.916  21.673  16.007  0.00  0.00    +0.126 A 
ATOM     10  C   UNL     1      31.569  21.786  16.347  0.00  0.00    +0.046 A 
ATOM     11  C   UNL     1      30.618  20.986  15.711  0.00  0.00    +0.004 A 
ATOM     12  C   UNL     1      31.014  20.092  14.718  0.00  0.00    +0.001 A 
ATOM     13  C   UNL     1      32.359  20.006  14.357  0.00  0.00    +0.009 A 
ATOM     14  C   UNL     1      33.323  20.798  15.002  0.00  0.00    +0.015 A 
ENDROOT
BRANCH   1  21
ATOM     15  N   UNL     1      34.380  22.547   8.554  0.00  0.00    -0.299 N 
ATOM     16  C   UNL     1      34.396  21.103   8.782  0.00  0.00    +0.127 C 
ATOM     17  C   UNL     1      35.511  20.698   9.741  0.00  0.00    +0.129 C 
ATOM     18  N   UNL     1      35.321  21.399  11.002  0.00  0.00    -0.275 N 
ATOM     19  C   UNL     1      35.120  20.663  12.149  0.00  0.00    +0.303 C 
ATOM     20  O   UNL     1      35.090  19.434  12.147  0.00  0.00    -0.253 OA
ATOM     21  N   UNL     1      34.921  21.380  13.292  0.00  0.00    -0.292 N 
ATOM     22  C   UNL     1      35.290  22.860  10.883  0.00  0.00    +0.205 C 
ATOM     23  C   UNL     1      34.727  23.439   9.567  0.00  0.00    +0.233 C 
ATOM     24  O   UNL     1      34.629  24.661   9.428  0.00  0.00    -0.274 OA
ATOM     25  H   UNL     1      35.293  22.315  13.336  0.00  0.00    +0.151 HD
BRANCH  15  27
ATOM     26  C   UNL     1      32.200  23.329   7.668  0.00  0.00    +0.024 C 
ATOM     27  C   UNL     1      33.669  23.051   7.384  0.00  0.00    +0.104 C 
ENDBRANCH  15  27
ENDBRANCH   1  21
TORSDOF 2
ENDMDL
MODEL 2
REMARK VINA RESULT:      -6.2      0.930      1.078
REMARK  Name = ZINC000329563636
REMARK  3 active torsions:
REMARK  status: ('A' for Active; 'I' for Inactive)
REMARK    1  A    between atoms: C_1  and  C_2
REMARK    2  A    between atoms: C_2  and  N_3
REMARK    3  A    between atoms: N_9  and  C_10
REMARK                            x       y       z     vdW  Elec       q    Type
REMARK                         _______ _______ _______ _____ _____    ______ ____
ROOT
ATOM      1  C   UNL     1      34.741  21.146  14.419  0.00  0.00    +0.112 C 
ATOM      2  C   UNL     1      35.629  21.931  15.392  0.00  0.00    +0.075 C 
ATOM      3  C   UNL     1      34.942  22.348  16.701  0.00  0.00    +0.113 C 
ATOM      4  C   UNL     1      34.936  21.260  17.807  0.00  0.00    +0.048 C 
ATOM      5  C   UNL     1      35.860  21.765  18.909  0.00  0.00    +0.004 C 
ATOM      6  C   UNL     1      35.743  23.274  18.820  0.00  0.00    +0.004 C 
ATOM      7  C   UNL     1      35.741  23.524  17.321  0.00  0.00    +0.048 C 
ATOM      8  O   UNL     1      33.600  22.823  16.476  0.00  0.00    -0.485 OA
ATOM      9  C   UNL     1      32.808  21.906  15.836  0.00  0.00    +0.126 A 
ATOM     10  C   UNL     1      31.464  21.856  16.200  0.00  0.00    +0.046 A 
ATOM     11  C   UNL     1      30.616  20.915  15.613  0.00  0.00    +0.004 A 
ATOM     12  C   UNL     1      31.109  20.041  14.646  0.00  0.00    +0.001 A 
ATOM     13  C   UNL     1      32.449  20.116  14.262  0.00  0.00    +0.009 A 
ATOM     14  C   UNL     1      33.310  21.051  14.857  0.00  0.00    +0.015 A 
ENDROOT
BRANCH   1  21
ATOM     15  N   UNL     1      34.899  22.370   8.224  0.00  0.00    -0.299 N 
ATOM     16  C   UNL     1      35.737  21.259   8.674  0.00  0.00    +0.127 C 
ATOM     17  C   UNL     1      36.569  21.642   9.893  0.00  0.00    +0.129 C 
ATOM     18  N   UNL     1      35.673  22.054  10.962  0.00  0.00    -0.275 N 
ATOM     19  C   UNL     1      35.676  21.347  12.144  0.00  0.00    +0.303 C 
ATOM     20  O   UNL     1      36.407  20.376  12.330  0.00  0.00    -0.253 OA
ATOM     21  N   UNL     1      34.793  21.767  13.094  0.00  0.00    -0.292 N 
ATOM     22  C   UNL     1      34.786  23.167  10.611  0.00  0.00    +0.205 C 
ATOM     23  C   UNL     1      34.351  23.272   9.133  0.00  0.00    +0.233 C 
ATOM     24  O   UNL     1      33.565  24.158   8.787  0.00  0.00    -0.274 OA
ATOM     25  H   UNL     1      34.487  22.727  13.066  0.00  0.00    +0.151 HD
BRANCH  15  27
ATOM     26  C   UNL     1      34.786  21.066   6.118  0.00  0.00    +0.024 C 
ATOM     27  C   UNL     1      34.363  22.321   6.868  0.00  0.00    +0.104 C 
ENDBRANCH  15  27
ENDBRANCH   1  21
TORSDOF 2
ENDMDL
MODEL 3
REMARK VINA RESULT:      -6.1      1.901      2.134
REMARK  Name = ZINC000329563636
REMARK  3 active torsions:
REMARK  status: ('A' for Active; 'I' for Inactive)
REMARK    1  A    between atoms: C_1  and  C_2
REMARK    2  A    between atoms: C_2  and  N_3
REMARK    3  A    between atoms: N_9  and  C_10
REMARK                            x       y       z     vdW  Elec       q    Type
REMARK                         _______ _______ _______ _____ _____    ______ ____
ROOT
ATOM      1  C   UNL     1      34.172  18.964  13.858  0.00  0.00    +0.112 C 
ATOM      2  C   UNL     1      35.464  18.592  14.594  0.00  0.00    +0.075 C 
ATOM      3  C   UNL     1      35.464  18.905  16.097  0.00  0.00    +0.113 C 
ATOM      4  C   UNL     1      34.811  17.817  16.989  0.00  0.00    +0.048 C 
ATOM      5  C   UNL     1      35.942  17.190  17.797  0.00  0.00    +0.004 C 
ATOM      6  C   UNL     1      36.945  18.316  17.956  0.00  0.00    +0.004 C 
ATOM      7  C   UNL     1      36.936  18.971  16.584  0.00  0.00    +0.048 C 
ATOM      8  O   UNL     1      34.870  20.188  16.379  0.00  0.00    -0.485 OA
ATOM      9  C   UNL     1      33.589  20.299  15.907  0.00  0.00    +0.126 A 
ATOM     10  C   UNL     1      32.687  21.038  16.670  0.00  0.00    +0.046 A 
ATOM     11  C   UNL     1      31.356  21.153  16.262  0.00  0.00    +0.004 A 
ATOM     12  C   UNL     1      30.937  20.548  15.079  0.00  0.00    +0.001 A 
ATOM     13  C   UNL     1      31.852  19.836  14.302  0.00  0.00    +0.009 A 
ATOM     14  C   UNL     1      33.188  19.705  14.712  0.00  0.00    +0.015 A 
ENDROOT
BRANCH   1  21
ATOM     15  N   UNL     1      34.152  22.027   8.333  0.00  0.00    -0.299 N 
ATOM     16  C   UNL     1      33.634  20.660   8.305  0.00  0.00    +0.127 C 
ATOM     17  C   UNL     1      34.568  19.691   9.022  0.00  0.00    +0.129 C 
ATOM     18  N   UNL     1      34.732  20.132  10.399  0.00  0.00    -0.275 N 
ATOM     19  C   UNL     1      34.335  19.294  11.418  0.00  0.00    +0.303 C 
ATOM     20  O   UNL     1      33.843  18.187  11.208  0.00  0.00    -0.253 OA
ATOM     21  N   UNL     1      34.490  19.777  12.683  0.00  0.00    -0.292 N 
ATOM     22  C   UNL     1      35.248  21.497  10.539  0.00  0.00    +0.205 C 
ATOM     23  C   UNL     1      34.870  22.502   9.430  0.00  0.00    +0.233 C 
ATOM     24  O   UNL     1      35.233  23.677   9.518  0.00  0.00    -0.274 OA
ATOM     25  H   UNL     1      35.191  20.485  12.838  0.00  0.00    +0.151 HD
BRANCH  15  27
ATOM     26  C   UNL     1      32.204  23.432   7.719  0.00  0.00    +0.024 C 
ATOM     27  C   UNL     1      33.617  22.986   7.373  0.00  0.00    +0.104 C 
ENDBRANCH  15  27
ENDBRANCH   1  21
TORSDOF 2
ENDMDL
MODEL 4
REMARK VINA RESULT:      -6.1      2.665      7.618
REMARK  Name = ZINC000329563636
REMARK  3 active torsions:
REMARK  status: ('A' for Active; 'I' for Inactive)
REMARK    1  A    between atoms: C_1  and  C_2
REMARK    2  A    between atoms: C_2  and  N_3
REMARK    3  A    between atoms: N_9  and  C_10
REMARK                            x       y       z     vdW  Elec       q    Type
REMARK                         _______ _______ _______ _____ _____    ______ ____
ROOT
ATOM      1  C   UNL     1      33.805  23.078  14.853  0.00  0.00    +0.112 C 
ATOM      2  C   UNL     1      34.320  23.403  13.447  0.00  0.00    +0.075 C 
ATOM      3  C   UNL     1      33.472  22.835  12.300  0.00  0.00    +0.113 C 
ATOM      4  C   UNL     1      32.252  23.706  11.900  0.00  0.00    +0.048 C 
ATOM      5  C   UNL     1      32.557  24.258  10.512  0.00  0.00    +0.004 C 
ATOM      6  C   UNL     1      33.430  23.193   9.879  0.00  0.00    +0.004 C 
ATOM      7  C   UNL     1      34.347  22.786  11.020  0.00  0.00    +0.048 C 
ATOM      8  O   UNL     1      33.041  21.486  12.567  0.00  0.00    -0.485 OA
ATOM      9  C   UNL     1      32.335  21.372  13.735  0.00  0.00    +0.126 A 
ATOM     10  C   UNL     1      31.288  20.452  13.764  0.00  0.00    +0.046 A 
ATOM     11  C   UNL     1      30.505  20.320  14.912  0.00  0.00    +0.004 A 
ATOM     12  C   UNL     1      30.787  21.090  16.038  0.00  0.00    +0.001 A 
ATOM     13  C   UNL     1      31.856  21.987  16.016  0.00  0.00    +0.009 A 
ATOM     14  C   UNL     1      32.639  22.135  14.860  0.00  0.00    +0.015 A 
ENDROOT
BRANCH   1  21
ATOM     15  N   UNL     1      37.427  20.661  19.429  0.00  0.00    -0.299 N 
ATOM     16  C   UNL     1      36.612  21.814  19.806  0.00  0.00    +0.127 C 
ATOM     17  C   UNL     1      36.732  22.944  18.789  0.00  0.00    +0.129 C 
ATOM     18  N   UNL     1      36.317  22.446  17.485  0.00  0.00    -0.275 N 
ATOM     19  C   UNL     1      35.241  23.034  16.859  0.00  0.00    +0.303 C 
ATOM     20  O   UNL     1      34.613  23.965  17.362  0.00  0.00    -0.253 OA
ATOM     21  N   UNL     1      34.887  22.504  15.654  0.00  0.00    -0.292 N 
ATOM     22  C   UNL     1      37.076  21.284  17.013  0.00  0.00    +0.205 C 
ATOM     23  C   UNL     1      37.614  20.318  18.091  0.00  0.00    +0.233 C 
ATOM     24  O   UNL     1      38.217  19.297  17.752  0.00  0.00    -0.274 OA
ATOM     25  H   UNL     1      35.593  22.020  15.123  0.00  0.00    +0.151 HD
BRANCH  15  27
ATOM     26  C   UNL     1      36.508  19.106  21.128  0.00  0.00    +0.024 C 
ATOM     27  C   UNL     1      37.749  19.680  20.460  0.00  0.00    +0.104 C 
ENDBRANCH  15  27
ENDBRANCH   1  21
TORSDOF 2
ENDMDL
MODEL 5
REMARK VINA RESULT:      -6.0      2.533      4.170
REMARK  Name = ZINC000329563636
REMARK  3 active torsions:
REMARK  status: ('A' for Active; 'I' for Inactive)
REMARK    1  A    between atoms: C_1  and  C_2
REMARK    2  A    between atoms: C_2  and  N_3
REMARK    3  A    between atoms: N_9  and  C_10
REMARK                            x       y       z     vdW  Elec       q    Type
REMARK                         _______ _______ _______ _____ _____    ______ ____
ROOT
ATOM      1  C   UNL     1      34.350  20.678  12.613  0.00  0.00    +0.112 C 
ATOM      2  C   UNL     1      33.207  21.399  13.337  0.00  0.00    +0.075 C 
ATOM      3  C   UNL     1      32.349  20.504  14.242  0.00  0.00    +0.113 C 
ATOM      4  C   UNL     1      32.921  20.281  15.667  0.00  0.00    +0.048 C 
ATOM      5  C   UNL     1      31.984  21.010  16.623  0.00  0.00    +0.004 C 
ATOM      6  C   UNL     1      30.635  20.943  15.934  0.00  0.00    +0.004 C 
ATOM      7  C   UNL     1      30.987  21.208  14.479  0.00  0.00    +0.048 C 
ATOM      8  O   UNL     1      32.064  19.232  13.627  0.00  0.00    -0.485 OA
ATOM      9  C   UNL     1      33.195  18.545  13.273  0.00  0.00    +0.126 A 
ATOM     10  C   UNL     1      33.165  17.156  13.394  0.00  0.00    +0.046 A 
ATOM     11  C   UNL     1      34.301  16.404  13.088  0.00  0.00    +0.004 A 
ATOM     12  C   UNL     1      35.456  17.039  12.637  0.00  0.00    +0.001 A 
ATOM     13  C   UNL     1      35.471  18.427  12.486  0.00  0.00    +0.009 A 
ATOM     14  C   UNL     1      34.337  19.191  12.805  0.00  0.00    +0.015 A 
ENDROOT
BRANCH   1  21
ATOM     15  N   UNL     1      35.499  22.508   6.677  0.00  0.00    -0.299 N 
ATOM     16  C   UNL     1      35.902  23.448   7.721  0.00  0.00    +0.127 C 
ATOM     17  C   UNL     1      34.790  23.662   8.743  0.00  0.00    +0.129 C 
ATOM     18  N   UNL     1      34.445  22.379   9.335  0.00  0.00    -0.275 N 
ATOM     19  C   UNL     1      34.605  22.207  10.692  0.00  0.00    +0.303 C 
ATOM     20  O   UNL     1      35.032  23.098  11.425  0.00  0.00    -0.253 OA
ATOM     21  N   UNL     1      34.290  20.973  11.180  0.00  0.00    -0.292 N 
ATOM     22  C   UNL     1      34.026  21.360   8.368  0.00  0.00    +0.205 C 
ATOM     23  C   UNL     1      34.657  21.434   6.961  0.00  0.00    +0.233 C 
ATOM     24  O   UNL     1      34.381  20.575   6.119  0.00  0.00    -0.274 OA
ATOM     25  H   UNL     1      33.634  20.411  10.661  0.00  0.00    +0.151 HD
BRANCH  15  27
ATOM     26  C   UNL     1      36.717  23.889   5.017  0.00  0.00    +0.024 C 
ATOM     27  C   UNL     1      36.257  22.499   5.430  0.00  0.00    +0.104 C 
ENDBRANCH  15  27
ENDBRANCH   1  21
TORSDOF 2
ENDMDL
MODEL 6
REMARK VINA RESULT:      -5.8      3.657      5.058
REMARK  Name = ZINC000329563636
REMARK  3 active torsions:
REMARK  status: ('A' for Active; 'I' for Inactive)
REMARK    1  A    between atoms: C_1  and  C_2
REMARK    2  A    between atoms: C_2  and  N_3
REMARK    3  A    between atoms: N_9  and  C_10
REMARK                            x       y       z     vdW  Elec       q    Type
REMARK                         _______ _______ _______ _____ _____    ______ ____
ROOT
ATOM      1  C   UNL     1      34.959  22.114  11.678  0.00  0.00    +0.112 C 
ATOM      2  C   UNL     1      35.077  21.136  12.852  0.00  0.00    +0.075 C 
ATOM      3  C   UNL     1      33.829  21.039  13.741  0.00  0.00    +0.113 C 
ATOM      4  C   UNL     1      32.737  20.066  13.225  0.00  0.00    +0.048 C 
ATOM      5  C   UNL     1      32.708  18.898  14.203  0.00  0.00    +0.004 C 
ATOM      6  C   UNL     1      33.125  19.516  15.523  0.00  0.00    +0.004 C 
ATOM      7  C   UNL     1      34.249  20.454  15.115  0.00  0.00    +0.048 C 
ATOM      8  O   UNL     1      33.248  22.333  13.995  0.00  0.00    -0.485 OA
ATOM      9  C   UNL     1      32.920  23.007  12.847  0.00  0.00    +0.126 A 
ATOM     10  C   UNL     1      31.775  23.801  12.876  0.00  0.00    +0.046 A 
ATOM     11  C   UNL     1      31.367  24.478  11.725  0.00  0.00    +0.004 A 
ATOM     12  C   UNL     1      32.119  24.380  10.556  0.00  0.00    +0.001 A 
ATOM     13  C   UNL     1      33.282  23.611  10.542  0.00  0.00    +0.009 A 
ATOM     14  C   UNL     1      33.692  22.916  11.691  0.00  0.00    +0.015 A 
ENDROOT
BRANCH   1  21
ATOM     15  N   UNL     1      39.326  26.476  10.331  0.00  0.00    -0.299 N 
ATOM     16  C   UNL     1      38.954  25.587   9.231  0.00  0.00    +0.127 C 
ATOM     17  C   UNL     1      38.957  24.125   9.665  0.00  0.00    +0.129 C 
ATOM     18  N   UNL     1      38.025  23.964  10.771  0.00  0.00    -0.275 N 
ATOM     19  C   UNL     1      36.951  23.115  10.620  0.00  0.00    +0.303 C 
ATOM     20  O   UNL     1      36.746  22.489   9.581  0.00  0.00    -0.253 OA
ATOM     21  N   UNL     1      36.102  23.030  11.682  0.00  0.00    -0.292 N 
ATOM     22  C   UNL     1      38.311  24.815  11.931  0.00  0.00    +0.205 C 
ATOM     23  C   UNL     1      38.965  26.183  11.645  0.00  0.00    +0.233 C 
ATOM     24  O   UNL     1      39.184  26.964  12.575  0.00  0.00    -0.274 OA
ATOM     25  H   UNL     1      36.463  23.248  12.597  0.00  0.00    +0.151 HD
BRANCH  15  27
ATOM     26  C   UNL     1      38.686  28.637   9.298  0.00  0.00    +0.024 C 
ATOM     27  C   UNL     1      39.765  27.828  10.004  0.00  0.00    +0.104 C 
ENDBRANCH  15  27
ENDBRANCH   1  21
TORSDOF 2
ENDMDL
MODEL 7
REMARK VINA RESULT:      -5.8      2.214      4.528
REMARK  Name = ZINC000329563636
REMARK  3 active torsions:
REMARK  status: ('A' for Active; 'I' for Inactive)
REMARK    1  A    between atoms: C_1  and  C_2
REMARK    2  A    between atoms: C_2  and  N_3
REMARK    3  A    between atoms: N_9  and  C_10
REMARK                            x       y       z     vdW  Elec       q    Type
REMARK                         _______ _______ _______ _____ _____    ______ ____
ROOT
ATOM      1  C   UNL     1      33.327  22.531  12.209  0.00  0.00    +0.112 C 
ATOM      2  C   UNL     1      32.101  21.854  12.832  0.00  0.00    +0.075 C 
ATOM      3  C   UNL     1      32.323  21.284  14.240  0.00  0.00    +0.113 C 
ATOM      4  C   UNL     1      32.163  22.312  15.391  0.00  0.00    +0.048 C 
ATOM      5  C   UNL     1      30.903  21.911  16.150  0.00  0.00    +0.004 C 
ATOM      6  C   UNL     1      30.832  20.407  15.973  0.00  0.00    +0.004 C 
ATOM      7  C   UNL     1      31.227  20.221  14.517  0.00  0.00    +0.048 C 
ATOM      8  O   UNL     1      33.595  20.617  14.356  0.00  0.00    -0.485 OA
ATOM      9  C   UNL     1      34.654  21.426  14.037  0.00  0.00    +0.126 A 
ATOM     10  C   UNL     1      35.833  21.252  14.759  0.00  0.00    +0.046 A 
ATOM     11  C   UNL     1      36.933  22.074  14.509  0.00  0.00    +0.004 A 
ATOM     12  C   UNL     1      36.860  23.051  13.519  0.00  0.00    +0.001 A 
ATOM     13  C   UNL     1      35.688  23.200  12.776  0.00  0.00    +0.009 A 
ATOM     14  C   UNL     1      34.573  22.386  13.031  0.00  0.00    +0.015 A 
ENDROOT
BRANCH   1  21
ATOM     15  N   UNL     1      35.332  21.346   6.337  0.00  0.00    -0.299 N 
ATOM     16  C   UNL     1      35.029  22.745   6.636  0.00  0.00    +0.127 C 
ATOM     17  C   UNL     1      33.679  22.891   7.328  0.00  0.00    +0.129 C 
ATOM     18  N   UNL     1      33.697  22.113   8.558  0.00  0.00    -0.275 N 
ATOM     19  C   UNL     1      33.515  22.761   9.759  0.00  0.00    +0.303 C 
ATOM     20  O   UNL     1      33.342  23.976   9.834  0.00  0.00    -0.253 OA
ATOM     21  N   UNL     1      33.571  21.979  10.875  0.00  0.00    -0.292 N 
ATOM     22  C   UNL     1      33.993  20.690   8.368  0.00  0.00    +0.205 C 
ATOM     23  C   UNL     1      34.921  20.323   7.190  0.00  0.00    +0.233 C 
ATOM     24  O   UNL     1      35.247  19.147   7.009  0.00  0.00    -0.274 OA
ATOM     25  H   UNL     1      33.357  20.999  10.779  0.00  0.00    +0.151 HD
BRANCH  15  27
ATOM     26  C   UNL     1      36.930  22.327   4.714  0.00  0.00    +0.024 C 
ATOM     27  C   UNL     1      36.357  21.062   5.339  0.00  0.00    +0.104 C 
ENDBRANCH  15  27
ENDBRANCH   1  21
TORSDOF 2
ENDMDL
MODEL 8
REMARK VINA RESULT:      -5.8      3.247      8.223
REMARK  Name = ZINC000329563636
REMARK  3 active torsions:
REMARK  status: ('A' for Active; 'I' for Inactive)
REMARK    1  A    between atoms: C_1  and  C_2
REMARK    2  A    between atoms: C_2  and  N_3
REMARK    3  A    between atoms: N_9  and  C_10
REMARK                            x       y       z     vdW  Elec       q    Type
REMARK                         _______ _______ _______ _____ _____    ______ ____
ROOT
ATOM      1  C   UNL     1      34.845  20.384  14.928  0.00  0.00    +0.112 C 
ATOM      2  C   UNL     1      35.230  19.733  13.595  0.00  0.00    +0.075 C 
ATOM      3  C   UNL     1      34.075  19.573  12.596  0.00  0.00    +0.113 C 
ATOM      4  C   UNL     1      33.781  20.829  11.735  0.00  0.00    +0.048 C 
ATOM      5  C   UNL     1      34.182  20.472  10.308  0.00  0.00    +0.004 C 
ATOM      6  C   UNL     1      33.948  18.977  10.226  0.00  0.00    +0.004 C 
ATOM      7  C   UNL     1      34.465  18.480  11.566  0.00  0.00    +0.048 C 
ATOM      8  O   UNL     1      32.864  19.130  13.241  0.00  0.00    -0.485 OA
ATOM      9  C   UNL     1      32.461  19.963  14.251  0.00  0.00    +0.126 A 
ATOM     10  C   UNL     1      31.089  20.135  14.430  0.00  0.00    +0.046 A 
ATOM     11  C   UNL     1      30.617  21.004  15.416  0.00  0.00    +0.004 A 
ATOM     12  C   UNL     1      31.517  21.680  16.236  0.00  0.00    +0.001 A 
ATOM     13  C   UNL     1      32.889  21.479  16.075  0.00  0.00    +0.009 A 
ATOM     14  C   UNL     1      33.371  20.618  15.077  0.00  0.00    +0.015 A 
ENDROOT
BRANCH   1  21
ATOM     15  N   UNL     1      36.943  18.127  20.443  0.00  0.00    -0.299 N 
ATOM     16  C   UNL     1      37.600  19.342  19.961  0.00  0.00    +0.127 C 
ATOM     17  C   UNL     1      38.004  19.218  18.496  0.00  0.00    +0.129 C 
ATOM     18  N   UNL     1      36.815  18.948  17.703  0.00  0.00    -0.275 N 
ATOM     19  C   UNL     1      36.448  19.846  16.725  0.00  0.00    +0.303 C 
ATOM     20  O   UNL     1      37.087  20.872  16.499  0.00  0.00    -0.253 OA
ATOM     21  N   UNL     1      35.309  19.549  16.037  0.00  0.00    -0.292 N 
ATOM     22  C   UNL     1      36.079  17.746  18.107  0.00  0.00    +0.205 C 
ATOM     23  C   UNL     1      36.131  17.367  19.603  0.00  0.00    +0.233 C 
ATOM     24  O   UNL     1      35.492  16.394  20.011  0.00  0.00    -0.274 OA
ATOM     25  H   UNL     1      35.024  18.584  15.986  0.00  0.00    +0.151 HD
BRANCH  15  27
ATOM     26  C   UNL     1      35.867  18.851  22.556  0.00  0.00    +0.024 C 
ATOM     27  C   UNL     1      36.861  17.915  21.884  0.00  0.00    +0.104 C 
ENDBRANCH  15  27
ENDBRANCH   1  21
TORSDOF 2
ENDMDL
MODEL 9
REMARK VINA RESULT:      -5.8      2.159      4.210
REMARK  Name = ZINC000329563636
REMARK  3 active torsions:
REMARK  status: ('A' for Active; 'I' for Inactive)
REMARK    1  A    between atoms: C_1  and  C_2
REMARK    2  A    between atoms: C_2  and  N_3
REMARK    3  A    between atoms: N_9  and  C_10
REMARK                            x       y       z     vdW  Elec       q    Type
REMARK                         _______ _______ _______ _____ _____    ______ ____
ROOT
ATOM      1  C   UNL     1      34.172  21.596  17.286  0.00  0.00    +0.112 C 
ATOM      2  C   UNL     1      34.711  20.215  17.676  0.00  0.00    +0.075 C 
ATOM      3  C   UNL     1      35.898  20.235  18.650  0.00  0.00    +0.113 C 
ATOM      4  C   UNL     1      35.509  20.351  20.147  0.00  0.00    +0.048 C 
ATOM      5  C   UNL     1      35.867  19.014  20.786  0.00  0.00    +0.004 C 
ATOM      6  C   UNL     1      37.045  18.521  19.968  0.00  0.00    +0.004 C 
ATOM      7  C   UNL     1      36.641  18.877  18.547  0.00  0.00    +0.048 C 
ATOM      8  O   UNL     1      36.851  21.262  18.313  0.00  0.00    -0.485 OA
ATOM      9  C   UNL     1      36.296  22.514  18.270  0.00  0.00    +0.126 A 
ATOM     10  C   UNL     1      37.083  23.580  18.703  0.00  0.00    +0.046 A 
ATOM     11  C   UNL     1      36.558  24.874  18.721  0.00  0.00    +0.004 A 
ATOM     12  C   UNL     1      35.255  25.102  18.284  0.00  0.00    +0.001 A 
ATOM     13  C   UNL     1      34.482  24.037  17.821  0.00  0.00    +0.009 A 
ATOM     14  C   UNL     1      34.998  22.731  17.812  0.00  0.00    +0.015 A 
ENDROOT
BRANCH   1  21
ATOM     15  N   UNL     1      33.091  23.348  11.313  0.00  0.00    -0.299 N 
ATOM     16  C   UNL     1      31.971  23.515  12.238  0.00  0.00    +0.127 C 
ATOM     17  C   UNL     1      31.742  22.262  13.076  0.00  0.00    +0.129 C 
ATOM     18  N   UNL     1      32.958  21.965  13.817  0.00  0.00    -0.275 N 
ATOM     19  C   UNL     1      32.915  21.957  15.193  0.00  0.00    +0.303 C 
ATOM     20  O   UNL     1      31.885  22.196  15.822  0.00  0.00    -0.253 OA
ATOM     21  N   UNL     1      34.094  21.700  15.827  0.00  0.00    -0.292 N 
ATOM     22  C   UNL     1      34.146  21.778  12.978  0.00  0.00    +0.205 C 
ATOM     23  C   UNL     1      34.202  22.582  11.661  0.00  0.00    +0.233 C 
ATOM     24  O   UNL     1      35.198  22.504  10.938  0.00  0.00    -0.274 OA
ATOM     25  H   UNL     1      34.796  21.176  15.329  0.00  0.00    +0.151 HD
BRANCH  15  27
ATOM     26  C   UNL     1      32.503  23.726   8.935  0.00  0.00    +0.024 C 
ATOM     27  C   UNL     1      33.191  24.263  10.182  0.00  0.00    +0.104 C 
ENDBRANCH  15  27
ENDBRANCH   1  21
TORSDOF 2
ENDMDL
