MODEL 1
REMARK VINA RESULT:      -6.9      0.000      0.000
REMARK  Name = ZINC000543478179
REMARK  8 active torsions:
REMARK  status: ('A' for Active; 'I' for Inactive)
REMARK    1  A    between atoms: C_1  and  C_2
REMARK    2  A    between atoms: C_2  and  N_3
REMARK    3  A    between atoms: N_9  and  C_10
REMARK    4  A    between atoms: C_10  and  C_11
REMARK    5  A    between atoms: C_10  and  C_12
REMARK    6  A    between atoms: C_15  and  O_16
REMARK    7  A    between atoms: O_16  and  C_17
REMARK    8  A    between atoms: C_17  and  C_18
REMARK                            x       y       z     vdW  Elec       q    Type
REMARK                         _______ _______ _______ _____ _____    ______ ____
ROOT
ATOM      1  C   UNL     1      31.237  20.850  15.194  0.00  0.00    +0.102 C 
ATOM      2  C   UNL     1      31.488  21.539  13.851  0.00  0.00    +0.033 C 
ENDROOT
BRANCH   1   9
ATOM      3  N   UNL     1      31.332  23.686  19.834  0.00  0.00    -0.299 N 
ATOM      4  C   UNL     1      29.925  23.290  19.869  0.00  0.00    +0.127 C 
ATOM      5  C   UNL     1      29.264  23.417  18.493  0.00  0.00    +0.129 C 
ATOM      6  N   UNL     1      29.992  22.619  17.502  0.00  0.00    -0.275 N 
ATOM      7  C   UNL     1      29.289  21.830  16.636  0.00  0.00    +0.303 C 
ATOM      8  O   UNL     1      28.057  21.759  16.684  0.00  0.00    -0.253 OA
ATOM      9  N   UNL     1      29.881  21.069  15.690  0.00  0.00    -0.293 N 
ATOM     10  C   UNL     1      31.437  22.776  17.541  0.00  0.00    +0.205 C 
ATOM     11  C   UNL     1      32.084  23.559  18.684  0.00  0.00    +0.233 C 
ATOM     12  O   UNL     1      33.258  23.926  18.596  0.00  0.00    -0.274 OA
ATOM     13  H   UNL     1      29.161  20.562  15.191  0.00  0.00    +0.151 HD
BRANCH   3  15
ATOM     14  C   UNL     1      31.613  23.338  22.240  0.00  0.00    +0.024 C 
ATOM     15  C   UNL     1      31.965  24.194  21.037  0.00  0.00    +0.104 C 
ENDBRANCH   3  15
ENDBRANCH   1   9
BRANCH   1  16
ATOM     16  C   UNL     1      31.536  19.363  15.137  0.00  0.00    -0.024 A 
ATOM     17  C   UNL     1      32.536  18.784  15.927  0.00  0.00    +0.009 A 
ATOM     18  C   UNL     1      32.811  17.418  15.847  0.00  0.00    +0.049 A 
ATOM     19  C   UNL     1      32.115  16.605  14.941  0.00  0.00    +0.156 A 
ATOM     20  C   UNL     1      31.093  17.174  14.184  0.00  0.00    +0.165 A 
ATOM     21  F   UNL     1      30.376  16.421  13.335  0.00  0.00    -0.202 F 
ATOM     22  C   UNL     1      30.809  18.536  14.265  0.00  0.00    +0.047 A 
BRANCH  19  23
ATOM     23  O   UNL     1      32.372  15.278  14.739  0.00  0.00    -0.489 OA
BRANCH  23  24
ATOM     24  C   UNL     1      33.492  15.003  13.898  0.00  0.00    +0.232 C 
BRANCH  24  25
ATOM     25  C   UNL     1      33.007  14.557  12.555  0.00  0.00    +0.027 C 
ATOM     26  C   UNL     1      31.928  13.507  12.474  0.00  0.00    +0.007 C 
ATOM     27  C   UNL     1      33.332  13.174  12.049  0.00  0.00    +0.007 C 
ENDBRANCH  24  25
ENDBRANCH  23  24
ENDBRANCH  19  23
ENDBRANCH   1  16
TORSDOF 6
ENDMDL
MODEL 2
REMARK VINA RESULT:      -6.7      3.439      9.465
REMARK  Name = ZINC000543478179
REMARK  8 active torsions:
REMARK  status: ('A' for Active; 'I' for Inactive)
REMARK    1  A    between atoms: C_1  and  C_2
REMARK    2  A    between atoms: C_2  and  N_3
REMARK    3  A    between atoms: N_9  and  C_10
REMARK    4  A    between atoms: C_10  and  C_11
REMARK    5  A    between atoms: C_10  and  C_12
REMARK    6  A    between atoms: C_15  and  O_16
REMARK    7  A    between atoms: O_16  and  C_17
REMARK    8  A    between atoms: C_17  and  C_18
REMARK                            x       y       z     vdW  Elec       q    Type
REMARK                         _______ _______ _______ _____ _____    ______ ____
ROOT
ATOM      1  C   UNL     1      32.331  17.258  13.939  0.00  0.00    +0.102 C 
ATOM      2  C   UNL     1      32.569  17.330  12.429  0.00  0.00    +0.033 C 
ENDROOT
BRANCH   1   9
ATOM      3  N   UNL     1      32.550  11.849  13.407  0.00  0.00    -0.299 N 
ATOM      4  C   UNL     1      33.555  11.989  14.459  0.00  0.00    +0.127 C 
ATOM      5  C   UNL     1      34.487  13.177  14.202  0.00  0.00    +0.129 C 
ATOM      6  N   UNL     1      33.711  14.414  14.074  0.00  0.00    -0.275 N 
ATOM      7  C   UNL     1      34.132  15.536  14.731  0.00  0.00    +0.303 C 
ATOM      8  O   UNL     1      35.139  15.524  15.447  0.00  0.00    -0.253 OA
ATOM      9  N   UNL     1      33.480  16.717  14.660  0.00  0.00    -0.293 N 
ATOM     10  C   UNL     1      32.544  14.311  13.212  0.00  0.00    +0.205 C 
ATOM     11  C   UNL     1      32.107  12.942  12.690  0.00  0.00    +0.233 C 
ATOM     12  O   UNL     1      31.298  12.863  11.762  0.00  0.00    -0.274 OA
ATOM     13  H   UNL     1      33.966  17.385  15.245  0.00  0.00    +0.151 HD
BRANCH   3  15
ATOM     14  C   UNL     1      33.059   9.555  12.722  0.00  0.00    +0.024 C 
ATOM     15  C   UNL     1      31.981  10.544  13.126  0.00  0.00    +0.104 C 
ENDBRANCH   3  15
ENDBRANCH   1   9
BRANCH   1  16
ATOM     16  C   UNL     1      31.940  18.604  14.521  0.00  0.00    -0.024 A 
ATOM     17  C   UNL     1      32.704  19.225  15.515  0.00  0.00    +0.009 A 
ATOM     18  C   UNL     1      32.317  20.454  16.053  0.00  0.00    +0.049 A 
ATOM     19  C   UNL     1      31.130  21.070  15.634  0.00  0.00    +0.156 A 
ATOM     20  C   UNL     1      30.391  20.471  14.618  0.00  0.00    +0.165 A 
ATOM     21  F   UNL     1      29.270  21.051  14.160  0.00  0.00    -0.202 F 
ATOM     22  C   UNL     1      30.775  19.249  14.071  0.00  0.00    +0.047 A 
BRANCH  19  23
ATOM     23  O   UNL     1      30.635  22.229  16.163  0.00  0.00    -0.489 OA
BRANCH  23  24
ATOM     24  C   UNL     1      30.039  22.097  17.453  0.00  0.00    +0.232 C 
BRANCH  24  25
ATOM     25  C   UNL     1      28.634  22.606  17.405  0.00  0.00    +0.027 C 
ATOM     26  C   UNL     1      27.625  22.079  18.395  0.00  0.00    +0.007 C 
ATOM     27  C   UNL     1      27.514  21.708  16.942  0.00  0.00    +0.007 C 
ENDBRANCH  24  25
ENDBRANCH  23  24
ENDBRANCH  19  23
ENDBRANCH   1  16
TORSDOF 6
ENDMDL
MODEL 3
REMARK VINA RESULT:      -6.4      4.692      8.660
REMARK  Name = ZINC000543478179
REMARK  8 active torsions:
REMARK  status: ('A' for Active; 'I' for Inactive)
REMARK    1  A    between atoms: C_1  and  C_2
REMARK    2  A    between atoms: C_2  and  N_3
REMARK    3  A    between atoms: N_9  and  C_10
REMARK    4  A    between atoms: C_10  and  C_11
REMARK    5  A    between atoms: C_10  and  C_12
REMARK    6  A    between atoms: C_15  and  O_16
REMARK    7  A    between atoms: O_16  and  C_17
REMARK    8  A    between atoms: C_17  and  C_18
REMARK                            x       y       z     vdW  Elec       q    Type
REMARK                         _______ _______ _______ _____ _____    ______ ____
ROOT
ATOM      1  C   UNL     1      30.603  22.274  15.013  0.00  0.00    +0.102 C 
ATOM      2  C   UNL     1      29.592  21.168  14.701  0.00  0.00    +0.033 C 
ENDROOT
BRANCH   1   9
ATOM      3  N   UNL     1      34.316  22.718  11.062  0.00  0.00    -0.299 N 
ATOM      4  C   UNL     1      33.742  24.058  10.950  0.00  0.00    +0.127 C 
ATOM      5  C   UNL     1      32.214  24.032  11.052  0.00  0.00    +0.129 C 
ATOM      6  N   UNL     1      31.797  23.405  12.310  0.00  0.00    -0.275 N 
ATOM      7  C   UNL     1      30.819  23.997  13.057  0.00  0.00    +0.303 C 
ATOM      8  O   UNL     1      30.294  25.059  12.707  0.00  0.00    -0.253 OA
ATOM      9  N   UNL     1      30.373  23.481  14.223  0.00  0.00    -0.293 N 
ATOM     10  C   UNL     1      32.486  22.163  12.625  0.00  0.00    +0.205 C 
ATOM     11  C   UNL     1      33.680  21.723  11.778  0.00  0.00    +0.233 C 
ATOM     12  O   UNL     1      34.103  20.567  11.857  0.00  0.00    -0.274 OA
ATOM     13  H   UNL     1      29.669  24.105  14.600  0.00  0.00    +0.151 HD
BRANCH   3  15
ATOM     14  C   UNL     1      35.426  22.149   8.957  0.00  0.00    +0.024 C 
ATOM     15  C   UNL     1      35.594  22.430  10.439  0.00  0.00    +0.104 C 
ENDBRANCH   3  15
ENDBRANCH   1   9
BRANCH   1  16
ATOM     16  C   UNL     1      30.637  22.618  16.491  0.00  0.00    -0.024 A 
ATOM     17  C   UNL     1      31.840  22.679  17.204  0.00  0.00    +0.009 A 
ATOM     18  C   UNL     1      31.850  22.977  18.567  0.00  0.00    +0.049 A 
ATOM     19  C   UNL     1      30.648  23.180  19.258  0.00  0.00    +0.156 A 
ATOM     20  C   UNL     1      29.454  23.157  18.541  0.00  0.00    +0.165 A 
ATOM     21  F   UNL     1      28.285  23.388  19.159  0.00  0.00    -0.202 F 
ATOM     22  C   UNL     1      29.438  22.868  17.178  0.00  0.00    +0.047 A 
BRANCH  19  23
ATOM     23  O   UNL     1      30.559  23.396  20.605  0.00  0.00    -0.489 OA
BRANCH  23  24
ATOM     24  C   UNL     1      31.626  22.842  21.376  0.00  0.00    +0.232 C 
BRANCH  24  25
ATOM     25  C   UNL     1      32.291  23.930  22.158  0.00  0.00    +0.027 C 
ATOM     26  C   UNL     1      32.845  25.127  21.429  0.00  0.00    +0.007 C 
ATOM     27  C   UNL     1      33.782  24.134  22.061  0.00  0.00    +0.007 C 
ENDBRANCH  24  25
ENDBRANCH  23  24
ENDBRANCH  19  23
ENDBRANCH   1  16
TORSDOF 6
ENDMDL
MODEL 4
REMARK VINA RESULT:      -6.3      2.979      5.374
REMARK  Name = ZINC000543478179
REMARK  8 active torsions:
REMARK  status: ('A' for Active; 'I' for Inactive)
REMARK    1  A    between atoms: C_1  and  C_2
REMARK    2  A    between atoms: C_2  and  N_3
REMARK    3  A    between atoms: N_9  and  C_10
REMARK    4  A    between atoms: C_10  and  C_11
REMARK    5  A    between atoms: C_10  and  C_12
REMARK    6  A    between atoms: C_15  and  O_16
REMARK    7  A    between atoms: O_16  and  C_17
REMARK    8  A    between atoms: C_17  and  C_18
REMARK                            x       y       z     vdW  Elec       q    Type
REMARK                         _______ _______ _______ _____ _____    ______ ____
ROOT
ATOM      1  C   UNL     1      30.971  23.344  19.214  0.00  0.00    +0.102 C 
ATOM      2  C   UNL     1      29.694  23.390  20.056  0.00  0.00    +0.033 C 
ENDROOT
BRANCH   1   9
ATOM      3  N   UNL     1      35.445  26.129  17.866  0.00  0.00    -0.299 N 
ATOM      4  C   UNL     1      36.093  25.065  18.631  0.00  0.00    +0.127 C 
ATOM      5  C   UNL     1      35.323  24.737  19.914  0.00  0.00    +0.129 C 
ATOM      6  N   UNL     1      33.941  24.365  19.598  0.00  0.00    -0.275 N 
ATOM      7  C   UNL     1      33.391  23.269  20.201  0.00  0.00    +0.303 C 
ATOM      8  O   UNL     1      34.040  22.574  20.989  0.00  0.00    -0.253 OA
ATOM      9  N   UNL     1      32.124  22.863  19.970  0.00  0.00    -0.293 N 
ATOM     10  C   UNL     1      33.276  25.251  18.655  0.00  0.00    +0.205 C 
ATOM     11  C   UNL     1      34.081  26.331  17.933  0.00  0.00    +0.233 C 
ATOM     12  O   UNL     1      33.501  27.246  17.344  0.00  0.00    -0.274 OA
ATOM     13  H   UNL     1      31.955  22.023  20.510  0.00  0.00    +0.151 HD
BRANCH   3  15
ATOM     14  C   UNL     1      36.386  26.346  15.618  0.00  0.00    +0.024 C 
ATOM     15  C   UNL     1      36.240  26.972  16.993  0.00  0.00    +0.104 C 
ENDBRANCH   3  15
ENDBRANCH   1   9
BRANCH   1  16
ATOM     16  C   UNL     1      30.794  22.517  17.953  0.00  0.00    -0.024 A 
ATOM     17  C   UNL     1      31.891  21.996  17.256  0.00  0.00    +0.009 A 
ATOM     18  C   UNL     1      31.711  21.255  16.088  0.00  0.00    +0.049 A 
ATOM     19  C   UNL     1      30.425  21.052  15.567  0.00  0.00    +0.156 A 
ATOM     20  C   UNL     1      29.332  21.537  16.281  0.00  0.00    +0.165 A 
ATOM     21  F   UNL     1      28.083  21.328  15.836  0.00  0.00    -0.202 F 
ATOM     22  C   UNL     1      29.505  22.272  17.452  0.00  0.00    +0.047 A 
BRANCH  19  23
ATOM     23  O   UNL     1      30.163  20.410  14.389  0.00  0.00    -0.489 OA
BRANCH  23  24
ATOM     24  C   UNL     1      31.100  19.393  14.035  0.00  0.00    +0.232 C 
BRANCH  24  25
ATOM     25  C   UNL     1      30.804  18.152  14.817  0.00  0.00    +0.027 C 
ATOM     26  C   UNL     1      31.945  17.370  15.416  0.00  0.00    +0.007 C 
ATOM     27  C   UNL     1      31.168  16.798  14.262  0.00  0.00    +0.007 C 
ENDBRANCH  24  25
ENDBRANCH  23  24
ENDBRANCH  19  23
ENDBRANCH   1  16
TORSDOF 6
ENDMDL
MODEL 5
REMARK VINA RESULT:      -6.2      4.878      6.202
REMARK  Name = ZINC000543478179
REMARK  8 active torsions:
REMARK  status: ('A' for Active; 'I' for Inactive)
REMARK    1  A    between atoms: C_1  and  C_2
REMARK    2  A    between atoms: C_2  and  N_3
REMARK    3  A    between atoms: N_9  and  C_10
REMARK    4  A    between atoms: C_10  and  C_11
REMARK    5  A    between atoms: C_10  and  C_12
REMARK    6  A    between atoms: C_15  and  O_16
REMARK    7  A    between atoms: O_16  and  C_17
REMARK    8  A    between atoms: C_17  and  C_18
REMARK                            x       y       z     vdW  Elec       q    Type
REMARK                         _______ _______ _______ _____ _____    ______ ____
ROOT
ATOM      1  C   UNL     1      31.489  23.981  12.555  0.00  0.00    +0.102 C 
ATOM      2  C   UNL     1      30.604  25.187  12.232  0.00  0.00    +0.033 C 
ENDROOT
BRANCH   1   9
ATOM      3  N   UNL     1      33.263  21.770  17.197  0.00  0.00    -0.299 N 
ATOM      4  C   UNL     1      32.397  20.672  16.769  0.00  0.00    +0.127 C 
ATOM      5  C   UNL     1      31.066  21.182  16.210  0.00  0.00    +0.129 C 
ATOM      6  N   UNL     1      31.301  22.107  15.096  0.00  0.00    -0.275 N 
ATOM      7  C   UNL     1      30.563  21.977  13.955  0.00  0.00    +0.303 C 
ATOM      8  O   UNL     1      29.716  21.085  13.832  0.00  0.00    -0.253 OA
ATOM      9  N   UNL     1      30.712  22.790  12.887  0.00  0.00    -0.293 N 
ATOM     10  C   UNL     1      32.323  23.111  15.349  0.00  0.00    +0.205 C 
ATOM     11  C   UNL     1      33.184  23.016  16.608  0.00  0.00    +0.233 C 
ATOM     12  O   UNL     1      33.860  23.982  16.971  0.00  0.00    -0.274 OA
ATOM     13  H   UNL     1      30.075  22.484  12.161  0.00  0.00    +0.151 HD
BRANCH   3  15
ATOM     14  C   UNL     1      33.581  21.385  19.592  0.00  0.00    +0.024 C 
ATOM     15  C   UNL     1      34.247  21.544  18.238  0.00  0.00    +0.104 C 
ENDBRANCH   3  15
ENDBRANCH   1   9
BRANCH   1  16
ATOM     16  C   UNL     1      32.463  23.670  11.432  0.00  0.00    -0.024 A 
ATOM     17  C   UNL     1      32.189  24.019  10.104  0.00  0.00    +0.009 A 
ATOM     18  C   UNL     1      33.086  23.707   9.082  0.00  0.00    +0.049 A 
ATOM     19  C   UNL     1      34.263  23.000   9.362  0.00  0.00    +0.156 A 
ATOM     20  C   UNL     1      34.554  22.687  10.688  0.00  0.00    +0.165 A 
ATOM     21  F   UNL     1      35.691  22.046  11.002  0.00  0.00    -0.202 F 
ATOM     22  C   UNL     1      33.666  23.002  11.714  0.00  0.00    +0.047 A 
BRANCH  19  23
ATOM     23  O   UNL     1      35.157  22.583   8.415  0.00  0.00    -0.489 OA
BRANCH  23  24
ATOM     24  C   UNL     1      34.572  22.110   7.202  0.00  0.00    +0.232 C 
BRANCH  24  25
ATOM     25  C   UNL     1      34.463  20.619   7.253  0.00  0.00    +0.027 C 
ATOM     26  C   UNL     1      35.522  19.827   7.978  0.00  0.00    +0.007 C 
ATOM     27  C   UNL     1      35.429  19.758   6.478  0.00  0.00    +0.007 C 
ENDBRANCH  24  25
ENDBRANCH  23  24
ENDBRANCH  19  23
ENDBRANCH   1  16
TORSDOF 6
ENDMDL
MODEL 6
REMARK VINA RESULT:      -6.2      2.999      8.836
REMARK  Name = ZINC000543478179
REMARK  8 active torsions:
REMARK  status: ('A' for Active; 'I' for Inactive)
REMARK    1  A    between atoms: C_1  and  C_2
REMARK    2  A    between atoms: C_2  and  N_3
REMARK    3  A    between atoms: N_9  and  C_10
REMARK    4  A    between atoms: C_10  and  C_11
REMARK    5  A    between atoms: C_10  and  C_12
REMARK    6  A    between atoms: C_15  and  O_16
REMARK    7  A    between atoms: O_16  and  C_17
REMARK    8  A    between atoms: C_17  and  C_18
REMARK                            x       y       z     vdW  Elec       q    Type
REMARK                         _______ _______ _______ _____ _____    ______ ____
ROOT
ATOM      1  C   UNL     1      30.776  20.964  15.258  0.00  0.00    +0.102 C 
ATOM      2  C   UNL     1      29.467  21.172  14.493  0.00  0.00    +0.033 C 
ENDROOT
BRANCH   1   9
ATOM      3  N   UNL     1      32.876  16.473  13.020  0.00  0.00    -0.299 N 
ATOM      4  C   UNL     1      33.977  17.384  12.714  0.00  0.00    +0.127 C 
ATOM      5  C   UNL     1      33.471  18.745  12.227  0.00  0.00    +0.129 C 
ATOM      6  N   UNL     1      32.579  19.344  13.225  0.00  0.00    -0.275 N 
ATOM      7  C   UNL     1      32.734  20.661  13.551  0.00  0.00    +0.303 C 
ATOM      8  O   UNL     1      33.621  21.352  13.040  0.00  0.00    -0.253 OA
ATOM      9  N   UNL     1      31.951  21.291  14.454  0.00  0.00    -0.293 N 
ATOM     10  C   UNL     1      31.577  18.437  13.763  0.00  0.00    +0.205 C 
ATOM     11  C   UNL     1      31.646  16.947  13.429  0.00  0.00    +0.233 C 
ATOM     12  O   UNL     1      30.676  16.218  13.650  0.00  0.00    -0.274 OA
ATOM     13  H   UNL     1      32.271  22.248  14.542  0.00  0.00    +0.151 HD
BRANCH   3  15
ATOM     14  C   UNL     1      33.335  14.620  11.489  0.00  0.00    +0.024 C 
ATOM     15  C   UNL     1      33.082  15.040  12.925  0.00  0.00    +0.104 C 
ENDBRANCH   3  15
ENDBRANCH   1   9
BRANCH   1  16
ATOM     16  C   UNL     1      30.806  21.741  16.562  0.00  0.00    -0.024 A 
ATOM     17  C   UNL     1      32.011  22.064  17.197  0.00  0.00    +0.009 A 
ATOM     18  C   UNL     1      32.017  22.761  18.406  0.00  0.00    +0.049 A 
ATOM     19  C   UNL     1      30.813  23.116  19.029  0.00  0.00    +0.156 A 
ATOM     20  C   UNL     1      29.616  22.828  18.377  0.00  0.00    +0.165 A 
ATOM     21  F   UNL     1      28.442  23.187  18.921  0.00  0.00    -0.202 F 
ATOM     22  C   UNL     1      29.602  22.139  17.166  0.00  0.00    +0.047 A 
BRANCH  19  23
ATOM     23  O   UNL     1      30.725  23.726  20.249  0.00  0.00    -0.489 OA
BRANCH  23  24
ATOM     24  C   UNL     1      31.302  22.995  21.331  0.00  0.00    +0.232 C 
BRANCH  24  25
ATOM     25  C   UNL     1      32.314  23.851  22.023  0.00  0.00    +0.027 C 
ATOM     26  C   UNL     1      32.912  25.025  21.289  0.00  0.00    +0.007 C 
ATOM     27  C   UNL     1      33.759  23.820  21.592  0.00  0.00    +0.007 C 
ENDBRANCH  24  25
ENDBRANCH  23  24
ENDBRANCH  19  23
ENDBRANCH   1  16
TORSDOF 6
ENDMDL
MODEL 7
REMARK VINA RESULT:      -6.1      3.310      8.753
REMARK  Name = ZINC000543478179
REMARK  8 active torsions:
REMARK  status: ('A' for Active; 'I' for Inactive)
REMARK    1  A    between atoms: C_1  and  C_2
REMARK    2  A    between atoms: C_2  and  N_3
REMARK    3  A    between atoms: N_9  and  C_10
REMARK    4  A    between atoms: C_10  and  C_11
REMARK    5  A    between atoms: C_10  and  C_12
REMARK    6  A    between atoms: C_15  and  O_16
REMARK    7  A    between atoms: O_16  and  C_17
REMARK    8  A    between atoms: C_17  and  C_18
REMARK                            x       y       z     vdW  Elec       q    Type
REMARK                         _______ _______ _______ _____ _____    ______ ____
ROOT
ATOM      1  C   UNL     1      30.409  21.758  15.920  0.00  0.00    +0.102 C 
ATOM      2  C   UNL     1      30.523  22.860  14.865  0.00  0.00    +0.033 C 
ENDROOT
BRANCH   1   9
ATOM      3  N   UNL     1      32.404  16.803  14.891  0.00  0.00    -0.299 N 
ATOM      4  C   UNL     1      33.289  17.150  16.003  0.00  0.00    +0.127 C 
ATOM      5  C   UNL     1      33.782  18.596  15.908  0.00  0.00    +0.129 C 
ATOM      6  N   UNL     1      32.645  19.521  15.857  0.00  0.00    -0.275 N 
ATOM      7  C   UNL     1      32.662  20.641  16.638  0.00  0.00    +0.303 C 
ATOM      8  O   UNL     1      33.603  20.882  17.400  0.00  0.00    -0.253 OA
ATOM      9  N   UNL     1      31.658  21.546  16.646  0.00  0.00    -0.293 N 
ATOM     10  C   UNL     1      31.592  19.135  14.930  0.00  0.00    +0.205 C 
ATOM     11  C   UNL     1      31.639  17.763  14.259  0.00  0.00    +0.233 C 
ATOM     12  O   UNL     1      30.918  17.524  13.287  0.00  0.00    -0.274 OA
ATOM     13  H   UNL     1      31.887  22.271  17.315  0.00  0.00    +0.151 HD
BRANCH   3  15
ATOM     14  C   UNL     1      33.568  14.976  13.752  0.00  0.00    +0.024 C 
ATOM     15  C   UNL     1      32.301  15.422  14.460  0.00  0.00    +0.104 C 
ENDBRANCH   3  15
ENDBRANCH   1   9
BRANCH   1  16
ATOM     16  C   UNL     1      29.278  22.019  16.899  0.00  0.00    -0.024 A 
ATOM     17  C   UNL     1      29.505  22.624  18.140  0.00  0.00    +0.009 A 
ATOM     18  C   UNL     1      28.456  22.838  19.036  0.00  0.00    +0.049 A 
ATOM     19  C   UNL     1      27.158  22.412  18.723  0.00  0.00    +0.156 A 
ATOM     20  C   UNL     1      26.925  21.845  17.473  0.00  0.00    +0.165 A 
ATOM     21  F   UNL     1      25.688  21.461  17.120  0.00  0.00    -0.202 F 
ATOM     22  C   UNL     1      27.967  21.635  16.571  0.00  0.00    +0.047 A 
BRANCH  19  23
ATOM     23  O   UNL     1      26.090  22.507  19.571  0.00  0.00    -0.489 OA
BRANCH  23  24
ATOM     24  C   UNL     1      25.473  23.794  19.620  0.00  0.00    +0.232 C 
BRANCH  24  25
ATOM     25  C   UNL     1      23.987  23.634  19.566  0.00  0.00    +0.027 C 
ATOM     26  C   UNL     1      23.285  23.719  18.234  0.00  0.00    +0.007 C 
ATOM     27  C   UNL     1      23.105  24.815  19.248  0.00  0.00    +0.007 C 
ENDBRANCH  24  25
ENDBRANCH  23  24
ENDBRANCH  19  23
ENDBRANCH   1  16
TORSDOF 6
ENDMDL
MODEL 8
REMARK VINA RESULT:      -6.1      4.328      5.910
REMARK  Name = ZINC000543478179
REMARK  8 active torsions:
REMARK  status: ('A' for Active; 'I' for Inactive)
REMARK    1  A    between atoms: C_1  and  C_2
REMARK    2  A    between atoms: C_2  and  N_3
REMARK    3  A    between atoms: N_9  and  C_10
REMARK    4  A    between atoms: C_10  and  C_11
REMARK    5  A    between atoms: C_10  and  C_12
REMARK    6  A    between atoms: C_15  and  O_16
REMARK    7  A    between atoms: O_16  and  C_17
REMARK    8  A    between atoms: C_17  and  C_18
REMARK                            x       y       z     vdW  Elec       q    Type
REMARK                         _______ _______ _______ _____ _____    ______ ____
ROOT
ATOM      1  C   UNL     1      31.067  21.812  15.028  0.00  0.00    +0.102 C 
ATOM      2  C   UNL     1      29.802  20.959  14.903  0.00  0.00    +0.033 C 
ENDROOT
BRANCH   1   9
ATOM      3  N   UNL     1      32.535  23.858  19.849  0.00  0.00    -0.299 N 
ATOM      4  C   UNL     1      33.685  22.979  19.645  0.00  0.00    +0.127 C 
ATOM      5  C   UNL     1      33.267  21.615  19.089  0.00  0.00    +0.129 C 
ATOM      6  N   UNL     1      32.526  21.780  17.835  0.00  0.00    -0.275 N 
ATOM      7  C   UNL     1      32.831  20.980  16.770  0.00  0.00    +0.303 C 
ATOM      8  O   UNL     1      33.730  20.136  16.834  0.00  0.00    -0.253 OA
ATOM      9  N   UNL     1      32.192  21.064  15.582  0.00  0.00    -0.293 N 
ATOM     10  C   UNL     1      31.495  22.806  17.871  0.00  0.00    +0.205 C 
ATOM     11  C   UNL     1      31.395  23.736  19.080  0.00  0.00    +0.233 C 
ATOM     12  O   UNL     1      30.384  24.422  19.251  0.00  0.00    -0.274 OA
ATOM     13  H   UNL     1      32.606  20.391  14.949  0.00  0.00    +0.151 HD
BRANCH   3  15
ATOM     14  C   UNL     1      33.176  24.368  22.155  0.00  0.00    +0.024 C 
ATOM     15  C   UNL     1      32.597  24.900  20.856  0.00  0.00    +0.104 C 
ENDBRANCH   3  15
ENDBRANCH   1   9
BRANCH   1  16
ATOM     16  C   UNL     1      31.463  22.442  13.705  0.00  0.00    -0.024 A 
ATOM     17  C   UNL     1      32.468  21.892  12.900  0.00  0.00    +0.009 A 
ATOM     18  C   UNL     1      32.833  22.497  11.697  0.00  0.00    +0.049 A 
ATOM     19  C   UNL     1      32.227  23.694  11.291  0.00  0.00    +0.156 A 
ATOM     20  C   UNL     1      31.202  24.221  12.073  0.00  0.00    +0.165 A 
ATOM     21  F   UNL     1      30.568  25.343  11.698  0.00  0.00    -0.202 F 
ATOM     22  C   UNL     1      30.826  23.617  13.272  0.00  0.00    +0.047 A 
BRANCH  19  23
ATOM     23  O   UNL     1      32.578  24.396  10.172  0.00  0.00    -0.489 OA
BRANCH  23  24
ATOM     24  C   UNL     1      33.681  23.856   9.444  0.00  0.00    +0.232 C 
BRANCH  24  25
ATOM     25  C   UNL     1      33.169  23.101   8.258  0.00  0.00    +0.027 C 
ATOM     26  C   UNL     1      33.428  21.618   8.162  0.00  0.00    +0.007 C 
ATOM     27  C   UNL     1      34.129  22.564   7.226  0.00  0.00    +0.007 C 
ENDBRANCH  24  25
ENDBRANCH  23  24
ENDBRANCH  19  23
ENDBRANCH   1  16
TORSDOF 6
ENDMDL
MODEL 9
REMARK VINA RESULT:      -6.0      2.860      8.711
REMARK  Name = ZINC000543478179
REMARK  8 active torsions:
REMARK  status: ('A' for Active; 'I' for Inactive)
REMARK    1  A    between atoms: C_1  and  C_2
REMARK    2  A    between atoms: C_2  and  N_3
REMARK    3  A    between atoms: N_9  and  C_10
REMARK    4  A    between atoms: C_10  and  C_11
REMARK    5  A    between atoms: C_10  and  C_12
REMARK    6  A    between atoms: C_15  and  O_16
REMARK    7  A    between atoms: O_16  and  C_17
REMARK    8  A    between atoms: C_17  and  C_18
REMARK                            x       y       z     vdW  Elec       q    Type
REMARK                         _______ _______ _______ _____ _____    ______ ____
ROOT
ATOM      1  C   UNL     1      30.298  21.404  16.197  0.00  0.00    +0.102 C 
ATOM      2  C   UNL     1      28.785  21.510  15.987  0.00  0.00    +0.033 C 
ENDROOT
BRANCH   1   9
ATOM      3  N   UNL     1      32.959  17.088  14.229  0.00  0.00    -0.299 N 
ATOM      4  C   UNL     1      33.608  18.113  13.414  0.00  0.00    +0.127 C 
ATOM      5  C   UNL     1      32.604  19.143  12.889  0.00  0.00    +0.129 C 
ATOM      6  N   UNL     1      31.880  19.763  14.003  0.00  0.00    -0.275 N 
ATOM      7  C   UNL     1      31.714  21.119  14.017  0.00  0.00    +0.303 C 
ATOM      8  O   UNL     1      32.178  21.835  13.124  0.00  0.00    -0.253 OA
ATOM      9  N   UNL     1      31.055  21.768  15.002  0.00  0.00    -0.293 N 
ATOM     10  C   UNL     1      31.383  18.826  14.999  0.00  0.00    +0.205 C 
ATOM     11  C   UNL     1      31.803  17.358  14.934  0.00  0.00    +0.233 C 
ATOM     12  O   UNL     1      31.196  16.511  15.593  0.00  0.00    -0.274 OA
ATOM     13  H   UNL     1      31.083  22.761  14.805  0.00  0.00    +0.151 HD
BRANCH   3  15
ATOM     14  C   UNL     1      33.003  14.841  13.261  0.00  0.00    +0.024 C 
ATOM     15  C   UNL     1      33.553  15.767  14.330  0.00  0.00    +0.104 C 
ENDBRANCH   3  15
ENDBRANCH   1   9
BRANCH   1  16
ATOM     16  C   UNL     1      30.769  22.228  17.381  0.00  0.00    -0.024 A 
ATOM     17  C   UNL     1      29.868  22.911  18.207  0.00  0.00    +0.009 A 
ATOM     18  C   UNL     1      30.322  23.680  19.279  0.00  0.00    +0.049 A 
ATOM     19  C   UNL     1      31.695  23.817  19.526  0.00  0.00    +0.156 A 
ATOM     20  C   UNL     1      32.589  23.107  18.728  0.00  0.00    +0.165 A 
ATOM     21  F   UNL     1      33.909  23.178  18.957  0.00  0.00    -0.202 F 
ATOM     22  C   UNL     1      32.143  22.330  17.660  0.00  0.00    +0.047 A 
BRANCH  19  23
ATOM     23  O   UNL     1      32.228  24.612  20.501  0.00  0.00    -0.489 OA
BRANCH  23  24
ATOM     24  C   UNL     1      32.415  23.973  21.764  0.00  0.00    +0.232 C 
BRANCH  24  25
ATOM     25  C   UNL     1      33.667  24.489  22.400  0.00  0.00    +0.027 C 
ATOM     26  C   UNL     1      34.694  25.187  21.545  0.00  0.00    +0.007 C 
ATOM     27  C   UNL     1      34.992  23.828  22.117  0.00  0.00    +0.007 C 
ENDBRANCH  24  25
ENDBRANCH  23  24
ENDBRANCH  19  23
ENDBRANCH   1  16
TORSDOF 6
ENDMDL
