MODEL 1
REMARK VINA RESULT:      -6.5      0.000      0.000
REMARK  Name = ZINC000583127796
REMARK  2 active torsions:
REMARK  status: ('A' for Active; 'I' for Inactive)
REMARK    1  A    between atoms: C_2  and  C_4
REMARK    2  A    between atoms: C_7  and  C_8
REMARK                            x       y       z     vdW  Elec       q    Type
REMARK                         _______ _______ _______ _____ _____    ______ ____
ROOT
ATOM      1  C   UNL     1      32.747  18.828  14.608  0.00  0.00    +0.247 C 
ATOM      2  O   UNL     1      33.780  18.666  15.254  0.00  0.00    -0.270 OA
ATOM      3  N   UNL     1      31.909  19.942  14.783  0.00  0.00    -0.297 N 
ATOM      4  C   UNL     1      30.668  20.221  14.056  0.00  0.00    +0.108 C 
ATOM      5  C   UNL     1      30.678  21.590  13.400  0.00  0.00    +0.020 C 
ATOM      6  C   UNL     1      31.068  22.677  14.384  0.00  0.00    +0.011 C 
ATOM      7  C   UNL     1      32.392  22.371  15.128  0.00  0.00    -0.004 C 
ATOM      8  C   UNL     1      32.588  23.486  16.178  0.00  0.00    +0.020 C 
ATOM      9  C   UNL     1      34.056  23.612  16.524  0.00  0.00    +0.070 C 
ATOM     10  S   UNL     1      34.896  23.433  14.942  0.00  0.00    -0.160 S 
ATOM     11  C   UNL     1      33.601  22.424  14.167  0.00  0.00    +0.077 C 
ATOM     12  C   UNL     1      32.284  20.962  15.776  0.00  0.00    +0.115 C 
ENDROOT
BRANCH   1  16
ATOM     13  C   UNL     1      32.054  15.711  11.760  0.00  0.00    +0.037 A 
ATOM     14  C   UNL     1      33.105  16.610  11.547  0.00  0.00    +0.014 A 
ATOM     15  C   UNL     1      33.273  17.701  12.403  0.00  0.00    +0.014 A 
ATOM     16  C   UNL     1      32.459  17.839  13.532  0.00  0.00    +0.037 A 
ATOM     17  C   UNL     1      31.346  16.999  13.685  0.00  0.00    +0.014 A 
ATOM     18  C   UNL     1      31.138  15.944  12.793  0.00  0.00    +0.014 A 
BRANCH  13  20
ATOM     19  N   UNL     1      30.777  14.451  10.120  0.00  0.00    -0.325 N 
ATOM     20  C   UNL     1      31.890  14.503  10.912  0.00  0.00    +0.242 C 
ATOM     21  O   UNL     1      32.737  13.623  10.884  0.00  0.00    -0.270 OA
ATOM     22  H   UNL     1      30.745  13.686   9.455  0.00  0.00    +0.145 HD
ATOM     23  H   UNL     1      30.222  15.269   9.916  0.00  0.00    +0.145 HD
ENDBRANCH  13  20
ENDBRANCH   1  16
TORSDOF 2
ENDMDL
MODEL 2
REMARK VINA RESULT:      -6.3      4.512      7.404
REMARK  Name = ZINC000583127796
REMARK  2 active torsions:
REMARK  status: ('A' for Active; 'I' for Inactive)
REMARK    1  A    between atoms: C_2  and  C_4
REMARK    2  A    between atoms: C_7  and  C_8
REMARK                            x       y       z     vdW  Elec       q    Type
REMARK                         _______ _______ _______ _____ _____    ______ ____
ROOT
ATOM      1  C   UNL     1      33.399  21.475  11.394  0.00  0.00    +0.247 C 
ATOM      2  O   UNL     1      34.011  20.616  10.761  0.00  0.00    -0.270 OA
ATOM      3  N   UNL     1      32.445  21.158  12.375  0.00  0.00    -0.297 N 
ATOM      4  C   UNL     1      31.675  22.110  13.180  0.00  0.00    +0.108 C 
ATOM      5  C   UNL     1      31.821  21.858  14.670  0.00  0.00    +0.020 C 
ATOM      6  C   UNL     1      31.555  20.406  15.019  0.00  0.00    +0.011 C 
ATOM      7  C   UNL     1      32.391  19.418  14.169  0.00  0.00    -0.004 C 
ATOM      8  C   UNL     1      31.921  17.994  14.538  0.00  0.00    +0.020 C 
ATOM      9  C   UNL     1      33.018  16.997  14.235  0.00  0.00    +0.070 C 
ATOM     10  S   UNL     1      34.524  17.827  14.764  0.00  0.00    -0.160 S 
ATOM     11  C   UNL     1      33.895  19.511  14.517  0.00  0.00    +0.077 C 
ATOM     12  C   UNL     1      32.169  19.742  12.665  0.00  0.00    +0.115 C 
ENDROOT
BRANCH   1  16
ATOM     13  C   UNL     1      34.646  25.437  10.369  0.00  0.00    +0.037 A 
ATOM     14  C   UNL     1      35.364  24.723  11.335  0.00  0.00    +0.014 A 
ATOM     15  C   UNL     1      34.904  23.476  11.765  0.00  0.00    +0.014 A 
ATOM     16  C   UNL     1      33.786  22.894  11.158  0.00  0.00    +0.037 A 
ATOM     17  C   UNL     1      33.011  23.653  10.270  0.00  0.00    +0.014 A 
ATOM     18  C   UNL     1      33.435  24.928   9.885  0.00  0.00    +0.014 A 
BRANCH  13  20
ATOM     19  N   UNL     1      35.271  27.758  10.733  0.00  0.00    -0.325 N 
ATOM     20  C   UNL     1      35.144  26.732   9.839  0.00  0.00    +0.242 C 
ATOM     21  O   UNL     1      35.476  26.857   8.670  0.00  0.00    -0.270 OA
ATOM     22  H   UNL     1      35.732  28.591  10.385  0.00  0.00    +0.145 HD
ATOM     23  H   UNL     1      35.275  27.606  11.731  0.00  0.00    +0.145 HD
ENDBRANCH  13  20
ENDBRANCH   1  16
TORSDOF 2
ENDMDL
MODEL 3
REMARK VINA RESULT:      -6.2      3.101      7.123
REMARK  Name = ZINC000583127796
REMARK  2 active torsions:
REMARK  status: ('A' for Active; 'I' for Inactive)
REMARK    1  A    between atoms: C_2  and  C_4
REMARK    2  A    between atoms: C_7  and  C_8
REMARK                            x       y       z     vdW  Elec       q    Type
REMARK                         _______ _______ _______ _____ _____    ______ ____
ROOT
ATOM      1  C   UNL     1      32.594  18.783  12.692  0.00  0.00    +0.247 C 
ATOM      2  O   UNL     1      32.964  19.167  11.584  0.00  0.00    -0.270 OA
ATOM      3  N   UNL     1      32.694  17.444  13.103  0.00  0.00    -0.297 N 
ATOM      4  C   UNL     1      32.287  16.898  14.401  0.00  0.00    +0.108 C 
ATOM      5  C   UNL     1      33.412  16.146  15.090  0.00  0.00    +0.020 C 
ATOM      6  C   UNL     1      34.046  15.122  14.167  0.00  0.00    +0.011 C 
ATOM      7  C   UNL     1      34.484  15.723  12.809  0.00  0.00    -0.004 C 
ATOM      8  C   UNL     1      34.982  14.551  11.936  0.00  0.00    +0.020 C 
ATOM      9  C   UNL     1      35.938  15.066  10.882  0.00  0.00    +0.070 C 
ATOM     10  S   UNL     1      36.933  16.289  11.751  0.00  0.00    -0.160 S 
ATOM     11  C   UNL     1      35.668  16.703  12.984  0.00  0.00    +0.077 C 
ATOM     12  C   UNL     1      33.271  16.458  12.174  0.00  0.00    +0.115 C 
ENDROOT
BRANCH   1  16
ATOM     13  C   UNL     1      31.333  21.523  15.725  0.00  0.00    +0.037 A 
ATOM     14  C   UNL     1      30.370  20.901  14.924  0.00  0.00    +0.014 A 
ATOM     15  C   UNL     1      30.768  20.095  13.855  0.00  0.00    +0.014 A 
ATOM     16  C   UNL     1      32.125  19.825  13.648  0.00  0.00    +0.037 A 
ATOM     17  C   UNL     1      33.088  20.530  14.384  0.00  0.00    +0.014 A 
ATOM     18  C   UNL     1      32.691  21.387  15.414  0.00  0.00    +0.014 A 
BRANCH  13  20
ATOM     19  N   UNL     1      31.811  23.312  17.302  0.00  0.00    -0.325 N 
ATOM     20  C   UNL     1      30.945  22.329  16.911  0.00  0.00    +0.242 C 
ATOM     21  O   UNL     1      29.877  22.156  17.478  0.00  0.00    -0.270 OA
ATOM     22  H   UNL     1      31.474  23.934  18.027  0.00  0.00    +0.145 HD
ATOM     23  H   UNL     1      32.544  23.655  16.697  0.00  0.00    +0.145 HD
ENDBRANCH  13  20
ENDBRANCH   1  16
TORSDOF 2
ENDMDL
MODEL 4
REMARK VINA RESULT:      -6.1      3.340      7.279
REMARK  Name = ZINC000583127796
REMARK  2 active torsions:
REMARK  status: ('A' for Active; 'I' for Inactive)
REMARK    1  A    between atoms: C_2  and  C_4
REMARK    2  A    between atoms: C_7  and  C_8
REMARK                            x       y       z     vdW  Elec       q    Type
REMARK                         _______ _______ _______ _____ _____    ______ ____
ROOT
ATOM      1  C   UNL     1      33.493  17.739  13.633  0.00  0.00    +0.247 C 
ATOM      2  O   UNL     1      33.458  16.716  14.315  0.00  0.00    -0.270 OA
ATOM      3  N   UNL     1      34.095  17.784  12.365  0.00  0.00    -0.297 N 
ATOM      4  C   UNL     1      34.178  18.950  11.481  0.00  0.00    +0.108 C 
ATOM      5  C   UNL     1      33.617  18.670  10.099  0.00  0.00    +0.020 C 
ATOM      6  C   UNL     1      34.209  17.407   9.502  0.00  0.00    +0.011 C 
ATOM      7  C   UNL     1      34.094  16.183  10.444  0.00  0.00    -0.004 C 
ATOM      8  C   UNL     1      34.849  15.019   9.766  0.00  0.00    +0.020 C 
ATOM      9  C   UNL     1      34.319  13.697  10.278  0.00  0.00    +0.070 C 
ATOM     10  S   UNL     1      32.539  13.945  10.373  0.00  0.00    -0.160 S 
ATOM     11  C   UNL     1      32.622  15.742  10.615  0.00  0.00    +0.077 C 
ATOM     12  C   UNL     1      34.703  16.558  11.824  0.00  0.00    +0.115 C 
ENDROOT
BRANCH   1  16
ATOM     13  C   UNL     1      31.485  21.022  15.500  0.00  0.00    +0.037 A 
ATOM     14  C   UNL     1      30.729  20.039  14.852  0.00  0.00    +0.014 A 
ATOM     15  C   UNL     1      31.372  19.024  14.139  0.00  0.00    +0.014 A 
ATOM     16  C   UNL     1      32.767  18.929  14.158  0.00  0.00    +0.037 A 
ATOM     17  C   UNL     1      33.521  19.970  14.718  0.00  0.00    +0.014 A 
ATOM     18  C   UNL     1      32.879  21.022  15.378  0.00  0.00    +0.014 A 
BRANCH  13  20
ATOM     19  N   UNL     1      30.879  23.352  15.844  0.00  0.00    -0.325 N 
ATOM     20  C   UNL     1      30.835  22.073  16.325  0.00  0.00    +0.242 C 
ATOM     21  O   UNL     1      30.244  21.799  17.358  0.00  0.00    -0.270 OA
ATOM     22  H   UNL     1      30.323  24.032  16.348  0.00  0.00    +0.145 HD
ATOM     23  H   UNL     1      31.106  23.557  14.881  0.00  0.00    +0.145 HD
ENDBRANCH  13  20
ENDBRANCH   1  16
TORSDOF 2
ENDMDL
MODEL 5
REMARK VINA RESULT:      -6.0      3.444      7.983
REMARK  Name = ZINC000583127796
REMARK  2 active torsions:
REMARK  status: ('A' for Active; 'I' for Inactive)
REMARK    1  A    between atoms: C_2  and  C_4
REMARK    2  A    between atoms: C_7  and  C_8
REMARK                            x       y       z     vdW  Elec       q    Type
REMARK                         _______ _______ _______ _____ _____    ______ ____
ROOT
ATOM      1  C   UNL     1      34.113  21.578  14.965  0.00  0.00    +0.247 C 
ATOM      2  O   UNL     1      35.197  21.036  15.175  0.00  0.00    -0.270 OA
ATOM      3  N   UNL     1      33.200  21.104  14.008  0.00  0.00    -0.297 N 
ATOM      4  C   UNL     1      31.889  21.678  13.696  0.00  0.00    +0.108 C 
ATOM      5  C   UNL     1      30.770  20.657  13.803  0.00  0.00    +0.020 C 
ATOM      6  C   UNL     1      31.089  19.397  13.020  0.00  0.00    +0.011 C 
ATOM      7  C   UNL     1      32.471  18.797  13.378  0.00  0.00    -0.004 C 
ATOM      8  C   UNL     1      32.711  17.612  12.418  0.00  0.00    +0.020 C 
ATOM      9  C   UNL     1      33.692  16.640  13.038  0.00  0.00    +0.070 C 
ATOM     10  S   UNL     1      33.206  16.571  14.770  0.00  0.00    -0.160 S 
ATOM     11  C   UNL     1      32.483  18.235  14.818  0.00  0.00    +0.077 C 
ATOM     12  C   UNL     1      33.549  19.906  13.228  0.00  0.00    +0.115 C 
ENDROOT
BRANCH   1  16
ATOM     13  C   UNL     1      33.367  24.763  17.721  0.00  0.00    +0.037 A 
ATOM     14  C   UNL     1      32.555  23.624  17.758  0.00  0.00    +0.014 A 
ATOM     15  C   UNL     1      32.710  22.627  16.792  0.00  0.00    +0.014 A 
ATOM     16  C   UNL     1      33.742  22.716  15.852  0.00  0.00    +0.037 A 
ATOM     17  C   UNL     1      34.483  23.902  15.752  0.00  0.00    +0.014 A 
ATOM     18  C   UNL     1      34.286  24.929  16.680  0.00  0.00    +0.014 A 
BRANCH  13  20
ATOM     19  N   UNL     1      32.097  25.894  19.460  0.00  0.00    -0.325 N 
ATOM     20  C   UNL     1      33.276  25.808  18.774  0.00  0.00    +0.242 C 
ATOM     21  O   UNL     1      34.229  26.521  19.048  0.00  0.00    -0.270 OA
ATOM     22  H   UNL     1      32.095  26.520  20.257  0.00  0.00    +0.145 HD
ATOM     23  H   UNL     1      31.412  25.151  19.450  0.00  0.00    +0.145 HD
ENDBRANCH  13  20
ENDBRANCH   1  16
TORSDOF 2
ENDMDL
MODEL 6
REMARK VINA RESULT:      -5.9      3.646      7.648
REMARK  Name = ZINC000583127796
REMARK  2 active torsions:
REMARK  status: ('A' for Active; 'I' for Inactive)
REMARK    1  A    between atoms: C_2  and  C_4
REMARK    2  A    between atoms: C_7  and  C_8
REMARK                            x       y       z     vdW  Elec       q    Type
REMARK                         _______ _______ _______ _____ _____    ______ ____
ROOT
ATOM      1  C   UNL     1      34.177  16.817  12.621  0.00  0.00    +0.247 C 
ATOM      2  O   UNL     1      35.159  16.843  13.361  0.00  0.00    -0.270 OA
ATOM      3  N   UNL     1      34.031  15.879  11.586  0.00  0.00    -0.297 N 
ATOM      4  C   UNL     1      32.897  15.768  10.664  0.00  0.00    +0.108 C 
ATOM      5  C   UNL     1      32.292  14.376  10.656  0.00  0.00    +0.020 C 
ATOM      6  C   UNL     1      33.351  13.308  10.455  0.00  0.00    +0.011 C 
ATOM      7  C   UNL     1      34.531  13.433  11.451  0.00  0.00    -0.004 C 
ATOM      8  C   UNL     1      35.579  12.376  11.043  0.00  0.00    +0.020 C 
ATOM      9  C   UNL     1      36.442  12.022  12.235  0.00  0.00    +0.070 C 
ATOM     10  S   UNL     1      35.282  11.945  13.608  0.00  0.00    -0.160 S 
ATOM     11  C   UNL     1      34.084  13.106  12.894  0.00  0.00    +0.077 C 
ATOM     12  C   UNL     1      35.092  14.880  11.379  0.00  0.00    +0.115 C 
ENDROOT
BRANCH   1  16
ATOM     13  C   UNL     1      31.260  19.752  13.710  0.00  0.00    +0.037 A 
ATOM     14  C   UNL     1      31.221  18.492  14.318  0.00  0.00    +0.014 A 
ATOM     15  C   UNL     1      32.091  17.486  13.891  0.00  0.00    +0.014 A 
ATOM     16  C   UNL     1      33.070  17.765  12.931  0.00  0.00    +0.037 A 
ATOM     17  C   UNL     1      33.039  18.991  12.253  0.00  0.00    +0.014 A 
ATOM     18  C   UNL     1      32.127  19.979  12.634  0.00  0.00    +0.014 A 
BRANCH  13  20
ATOM     19  N   UNL     1      29.899  20.759  15.454  0.00  0.00    -0.325 N 
ATOM     20  C   UNL     1      30.399  20.864  14.187  0.00  0.00    +0.242 C 
ATOM     21  O   UNL     1      30.191  21.850  13.497  0.00  0.00    -0.270 OA
ATOM     22  H   UNL     1      29.423  21.580  15.810  0.00  0.00    +0.145 HD
ATOM     23  H   UNL     1      30.275  20.110  16.130  0.00  0.00    +0.145 HD
ENDBRANCH  13  20
ENDBRANCH   1  16
TORSDOF 2
ENDMDL
MODEL 7
REMARK VINA RESULT:      -5.9      3.030      7.415
REMARK  Name = ZINC000583127796
REMARK  2 active torsions:
REMARK  status: ('A' for Active; 'I' for Inactive)
REMARK    1  A    between atoms: C_2  and  C_4
REMARK    2  A    between atoms: C_7  and  C_8
REMARK                            x       y       z     vdW  Elec       q    Type
REMARK                         _______ _______ _______ _____ _____    ______ ____
ROOT
ATOM      1  C   UNL     1      31.674  18.962  13.845  0.00  0.00    +0.247 C 
ATOM      2  O   UNL     1      30.960  19.229  12.881  0.00  0.00    -0.270 OA
ATOM      3  N   UNL     1      32.164  17.668  14.091  0.00  0.00    -0.297 N 
ATOM      4  C   UNL     1      33.023  17.259  15.205  0.00  0.00    +0.108 C 
ATOM      5  C   UNL     1      34.288  16.564  14.735  0.00  0.00    +0.020 C 
ATOM      6  C   UNL     1      33.979  15.445  13.758  0.00  0.00    +0.011 C 
ATOM      7  C   UNL     1      33.085  15.903  12.579  0.00  0.00    -0.004 C 
ATOM      8  C   UNL     1      32.749  14.643  11.752  0.00  0.00    +0.020 C 
ATOM      9  C   UNL     1      32.407  15.039  10.331  0.00  0.00    +0.070 C 
ATOM     10  S   UNL     1      33.600  16.327   9.936  0.00  0.00    -0.160 S 
ATOM     11  C   UNL     1      33.840  16.879  11.648  0.00  0.00    +0.077 C 
ATOM     12  C   UNL     1      31.814  16.587  13.155  0.00  0.00    +0.115 C 
ENDROOT
BRANCH   1  16
ATOM     13  C   UNL     1      32.740  22.465  16.056  0.00  0.00    +0.037 A 
ATOM     14  C   UNL     1      33.737  21.758  15.376  0.00  0.00    +0.014 A 
ATOM     15  C   UNL     1      33.427  20.550  14.746  0.00  0.00    +0.014 A 
ATOM     16  C   UNL     1      32.104  20.099  14.706  0.00  0.00    +0.037 A 
ATOM     17  C   UNL     1      31.130  20.752  15.474  0.00  0.00    +0.014 A 
ATOM     18  C   UNL     1      31.452  21.928  16.159  0.00  0.00    +0.014 A 
BRANCH  13  20
ATOM     19  N   UNL     1      32.225  24.158  17.724  0.00  0.00    -0.325 N 
ATOM     20  C   UNL     1      33.019  23.786  16.676  0.00  0.00    +0.242 C 
ATOM     21  O   UNL     1      33.949  24.483  16.300  0.00  0.00    -0.270 OA
ATOM     22  H   UNL     1      32.509  24.997  18.216  0.00  0.00    +0.145 HD
ATOM     23  H   UNL     1      31.649  23.496  18.225  0.00  0.00    +0.145 HD
ENDBRANCH  13  20
ENDBRANCH   1  16
TORSDOF 2
ENDMDL
MODEL 8
REMARK VINA RESULT:      -5.9      3.873      8.386
REMARK  Name = ZINC000583127796
REMARK  2 active torsions:
REMARK  status: ('A' for Active; 'I' for Inactive)
REMARK    1  A    between atoms: C_2  and  C_4
REMARK    2  A    between atoms: C_7  and  C_8
REMARK                            x       y       z     vdW  Elec       q    Type
REMARK                         _______ _______ _______ _____ _____    ______ ____
ROOT
ATOM      1  C   UNL     1      33.915  22.825  15.380  0.00  0.00    +0.247 C 
ATOM      2  O   UNL     1      34.844  22.472  14.656  0.00  0.00    -0.270 OA
ATOM      3  N   UNL     1      32.579  22.474  15.124  0.00  0.00    -0.297 N 
ATOM      4  C   UNL     1      31.412  22.841  15.931  0.00  0.00    +0.108 C 
ATOM      5  C   UNL     1      30.599  21.632  16.355  0.00  0.00    +0.020 C 
ATOM      6  C   UNL     1      30.269  20.740  15.173  0.00  0.00    +0.011 C 
ATOM      7  C   UNL     1      31.517  20.349  14.344  0.00  0.00    -0.004 C 
ATOM      8  C   UNL     1      31.015  19.562  13.115  0.00  0.00    +0.020 C 
ATOM      9  C   UNL     1      32.119  18.669  12.591  0.00  0.00    +0.070 C 
ATOM     10  S   UNL     1      32.891  18.009  14.077  0.00  0.00    -0.160 S 
ATOM     11  C   UNL     1      32.450  19.410  15.143  0.00  0.00    +0.077 C 
ATOM     12  C   UNL     1      32.276  21.646  13.946  0.00  0.00    +0.115 C 
ENDROOT
BRANCH   1  16
ATOM     13  C   UNL     1      34.565  24.873  19.079  0.00  0.00    +0.037 A 
ATOM     14  C   UNL     1      34.461  25.614  17.897  0.00  0.00    +0.014 A 
ATOM     15  C   UNL     1      34.365  24.956  16.668  0.00  0.00    +0.014 A 
ATOM     16  C   UNL     1      34.268  23.562  16.625  0.00  0.00    +0.037 A 
ATOM     17  C   UNL     1      34.478  22.820  17.796  0.00  0.00    +0.014 A 
ATOM     18  C   UNL     1      34.638  23.476  19.020  0.00  0.00    +0.014 A 
BRANCH  13  20
ATOM     19  N   UNL     1      33.706  26.554  20.611  0.00  0.00    -0.325 N 
ATOM     20  C   UNL     1      34.598  25.539  20.406  0.00  0.00    +0.242 C 
ATOM     21  O   UNL     1      35.350  25.161  21.291  0.00  0.00    -0.270 OA
ATOM     22  H   UNL     1      33.652  26.910  21.558  0.00  0.00    +0.145 HD
ATOM     23  H   UNL     1      32.903  26.694  20.014  0.00  0.00    +0.145 HD
ENDBRANCH  13  20
ENDBRANCH   1  16
TORSDOF 2
ENDMDL
MODEL 9
REMARK VINA RESULT:      -5.8      3.954      7.359
REMARK  Name = ZINC000583127796
REMARK  2 active torsions:
REMARK  status: ('A' for Active; 'I' for Inactive)
REMARK    1  A    between atoms: C_2  and  C_4
REMARK    2  A    between atoms: C_7  and  C_8
REMARK                            x       y       z     vdW  Elec       q    Type
REMARK                         _______ _______ _______ _____ _____    ______ ____
ROOT
ATOM      1  C   UNL     1      34.286  17.060  14.853  0.00  0.00    +0.247 C 
ATOM      2  O   UNL     1      34.274  16.499  15.947  0.00  0.00    -0.270 OA
ATOM      3  N   UNL     1      35.128  16.658  13.803  0.00  0.00    -0.297 N 
ATOM      4  C   UNL     1      35.206  17.260  12.469  0.00  0.00    +0.108 C 
ATOM      5  C   UNL     1      35.005  16.240  11.362  0.00  0.00    +0.020 C 
ATOM      6  C   UNL     1      35.909  15.035  11.544  0.00  0.00    +0.011 C 
ATOM      7  C   UNL     1      35.798  14.404  12.954  0.00  0.00    -0.004 C 
ATOM      8  C   UNL     1      36.860  13.286  13.032  0.00  0.00    +0.020 C 
ATOM      9  C   UNL     1      36.457  12.269  14.078  0.00  0.00    +0.070 C 
ATOM     10  S   UNL     1      34.682  12.084  13.849  0.00  0.00    -0.160 S 
ATOM     11  C   UNL     1      34.416  13.744  13.166  0.00  0.00    +0.077 C 
ATOM     12  C   UNL     1      36.030  15.514  14.016  0.00  0.00    +0.115 C 
ENDROOT
BRANCH   1  16
ATOM     13  C   UNL     1      31.372  20.183  14.610  0.00  0.00    +0.037 A 
ATOM     14  C   UNL     1      31.000  18.875  14.284  0.00  0.00    +0.014 A 
ATOM     15  C   UNL     1      31.964  17.865  14.246  0.00  0.00    +0.014 A 
ATOM     16  C   UNL     1      33.280  18.137  14.633  0.00  0.00    +0.037 A 
ATOM     17  C   UNL     1      33.672  19.464  14.857  0.00  0.00    +0.014 A 
ATOM     18  C   UNL     1      32.720  20.488  14.833  0.00  0.00    +0.014 A 
BRANCH  13  20
ATOM     19  N   UNL     1      29.706  21.371  15.923  0.00  0.00    -0.325 N 
ATOM     20  C   UNL     1      30.361  21.265  14.729  0.00  0.00    +0.242 C 
ATOM     21  O   UNL     1      30.164  22.056  13.819  0.00  0.00    -0.270 OA
ATOM     22  H   UNL     1      29.117  22.188  16.032  0.00  0.00    +0.145 HD
ATOM     23  H   UNL     1      30.042  20.923  16.764  0.00  0.00    +0.145 HD
ENDBRANCH  13  20
ENDBRANCH   1  16
TORSDOF 2
ENDMDL
