MODEL 1
REMARK VINA RESULT:      -6.4      0.000      0.000
REMARK  Name = ZINC000583127796
REMARK  2 active torsions:
REMARK  status: ('A' for Active; 'I' for Inactive)
REMARK    1  A    between atoms: C_2  and  C_4
REMARK    2  A    between atoms: C_7  and  C_8
REMARK                            x       y       z     vdW  Elec       q    Type
REMARK                         _______ _______ _______ _____ _____    ______ ____
ROOT
ATOM      1  C   UNL     1      32.226  22.886  14.255  0.00  0.00    +0.247 C 
ATOM      2  O   UNL     1      33.146  22.136  14.577  0.00  0.00    -0.270 OA
ATOM      3  N   UNL     1      32.381  23.915  13.312  0.00  0.00    -0.297 N 
ATOM      4  C   UNL     1      31.345  24.849  12.863  0.00  0.00    +0.108 C 
ATOM      5  C   UNL     1      31.183  24.852  11.354  0.00  0.00    +0.020 C 
ATOM      6  C   UNL     1      32.516  25.032  10.650  0.00  0.00    +0.011 C 
ATOM      7  C   UNL     1      33.591  24.024  11.126  0.00  0.00    -0.004 C 
ATOM      8  C   UNL     1      34.912  24.411  10.428  0.00  0.00    +0.020 C 
ATOM      9  C   UNL     1      35.825  23.206  10.354  0.00  0.00    +0.070 C 
ATOM     10  S   UNL     1      34.722  21.846   9.940  0.00  0.00    -0.160 S 
ATOM     11  C   UNL     1      33.242  22.583  10.687  0.00  0.00    +0.077 C 
ATOM     12  C   UNL     1      33.695  24.101  12.674  0.00  0.00    +0.115 C 
ENDROOT
BRANCH   1  16
ATOM     13  C   UNL     1      28.554  21.881  16.205  0.00  0.00    +0.037 A 
ATOM     14  C   UNL     1      28.920  21.193  15.043  0.00  0.00    +0.014 A 
ATOM     15  C   UNL     1      30.056  21.586  14.330  0.00  0.00    +0.014 A 
ATOM     16  C   UNL     1      30.883  22.597  14.831  0.00  0.00    +0.037 A 
ATOM     17  C   UNL     1      30.459  23.351  15.934  0.00  0.00    +0.014 A 
ATOM     18  C   UNL     1      29.289  23.000  16.613  0.00  0.00    +0.014 A 
BRANCH  13  20
ATOM     19  N   UNL     1      26.481  22.403  17.363  0.00  0.00    -0.325 N 
ATOM     20  C   UNL     1      27.394  21.445  17.025  0.00  0.00    +0.242 C 
ATOM     21  O   UNL     1      27.237  20.274  17.336  0.00  0.00    -0.270 OA
ATOM     22  H   UNL     1      25.634  22.068  17.809  0.00  0.00    +0.145 HD
ATOM     23  H   UNL     1      26.437  23.297  16.893  0.00  0.00    +0.145 HD
ENDBRANCH  13  20
ENDBRANCH   1  16
TORSDOF 2
ENDMDL
MODEL 2
REMARK VINA RESULT:      -6.3      3.513      5.345
REMARK  Name = ZINC000583127796
REMARK  2 active torsions:
REMARK  status: ('A' for Active; 'I' for Inactive)
REMARK    1  A    between atoms: C_2  and  C_4
REMARK    2  A    between atoms: C_7  and  C_8
REMARK                            x       y       z     vdW  Elec       q    Type
REMARK                         _______ _______ _______ _____ _____    ______ ____
ROOT
ATOM      1  C   UNL     1      33.182  25.379   9.124  0.00  0.00    +0.247 C 
ATOM      2  O   UNL     1      33.666  26.508   9.058  0.00  0.00    -0.270 OA
ATOM      3  N   UNL     1      33.304  24.440   8.086  0.00  0.00    -0.297 N 
ATOM      4  C   UNL     1      32.769  23.076   8.079  0.00  0.00    +0.108 C 
ATOM      5  C   UNL     1      33.838  22.037   7.793  0.00  0.00    +0.020 C 
ATOM      6  C   UNL     1      34.637  22.388   6.551  0.00  0.00    +0.011 C 
ATOM      7  C   UNL     1      35.208  23.827   6.587  0.00  0.00    -0.004 C 
ATOM      8  C   UNL     1      35.874  24.082   5.218  0.00  0.00    +0.020 C 
ATOM      9  C   UNL     1      36.924  25.164   5.352  0.00  0.00    +0.070 C 
ATOM     10  S   UNL     1      37.734  24.797   6.916  0.00  0.00    -0.160 S 
ATOM     11  C   UNL     1      36.305  23.969   7.667  0.00  0.00    +0.077 C 
ATOM     12  C   UNL     1      34.045  24.817   6.871  0.00  0.00    +0.115 C 
ENDROOT
BRANCH   1  16
ATOM     13  C   UNL     1      31.220  23.939  12.642  0.00  0.00    +0.037 A 
ATOM     14  C   UNL     1      30.665  25.016  11.943  0.00  0.00    +0.014 A 
ATOM     15  C   UNL     1      31.352  25.573  10.861  0.00  0.00    +0.014 A 
ATOM     16  C   UNL     1      32.542  24.991  10.411  0.00  0.00    +0.037 A 
ATOM     17  C   UNL     1      33.146  23.981  11.174  0.00  0.00    +0.014 A 
ATOM     18  C   UNL     1      32.491  23.464  12.295  0.00  0.00    +0.014 A 
BRANCH  13  20
ATOM     19  N   UNL     1      30.477  23.922  14.957  0.00  0.00    -0.325 N 
ATOM     20  C   UNL     1      30.485  23.279  13.751  0.00  0.00    +0.242 C 
ATOM     21  O   UNL     1      29.871  22.236  13.578  0.00  0.00    -0.270 OA
ATOM     22  H   UNL     1      29.866  23.527  15.663  0.00  0.00    +0.145 HD
ATOM     23  H   UNL     1      30.728  24.896  15.050  0.00  0.00    +0.145 HD
ENDBRANCH  13  20
ENDBRANCH   1  16
TORSDOF 2
ENDMDL
MODEL 3
REMARK VINA RESULT:      -6.2      4.659      5.583
REMARK  Name = ZINC000583127796
REMARK  2 active torsions:
REMARK  status: ('A' for Active; 'I' for Inactive)
REMARK    1  A    between atoms: C_2  and  C_4
REMARK    2  A    between atoms: C_7  and  C_8
REMARK                            x       y       z     vdW  Elec       q    Type
REMARK                         _______ _______ _______ _____ _____    ______ ____
ROOT
ATOM      1  C   UNL     1      31.228  16.955  13.861  0.00  0.00    +0.247 C 
ATOM      2  O   UNL     1      30.905  16.308  12.867  0.00  0.00    -0.270 OA
ATOM      3  N   UNL     1      32.567  17.149  14.239  0.00  0.00    -0.297 N 
ATOM      4  C   UNL     1      33.044  17.907  15.398  0.00  0.00    +0.108 C 
ATOM      5  C   UNL     1      34.045  18.982  15.014  0.00  0.00    +0.020 C 
ATOM      6  C   UNL     1      35.158  18.423  14.148  0.00  0.00    +0.011 C 
ATOM      7  C   UNL     1      34.632  17.641  12.919  0.00  0.00    -0.004 C 
ATOM      8  C   UNL     1      35.862  17.026  12.216  0.00  0.00    +0.020 C 
ATOM      9  C   UNL     1      35.543  16.765  10.759  0.00  0.00    +0.070 C 
ATOM     10  S   UNL     1      34.596  18.210  10.253  0.00  0.00    -0.160 S 
ATOM     11  C   UNL     1      33.945  18.584  11.905  0.00  0.00    +0.077 C 
ATOM     12  C   UNL     1      33.630  16.559  13.409  0.00  0.00    +0.115 C 
ENDROOT
BRANCH   1  16
ATOM     13  C   UNL     1      28.367  19.070  16.237  0.00  0.00    +0.037 A 
ATOM     14  C   UNL     1      28.487  17.684  16.386  0.00  0.00    +0.014 A 
ATOM     15  C   UNL     1      29.332  16.963  15.538  0.00  0.00    +0.014 A 
ATOM     16  C   UNL     1      30.135  17.635  14.611  0.00  0.00    +0.037 A 
ATOM     17  C   UNL     1      29.936  19.006  14.393  0.00  0.00    +0.014 A 
ATOM     18  C   UNL     1      29.044  19.719  15.198  0.00  0.00    +0.014 A 
BRANCH  13  20
ATOM     19  N   UNL     1      26.577  19.205  17.878  0.00  0.00    -0.325 N 
ATOM     20  C   UNL     1      27.533  19.875  17.166  0.00  0.00    +0.242 C 
ATOM     21  O   UNL     1      27.728  21.070  17.325  0.00  0.00    -0.270 OA
ATOM     22  H   UNL     1      26.107  19.741  18.597  0.00  0.00    +0.145 HD
ATOM     23  H   UNL     1      26.584  18.199  17.975  0.00  0.00    +0.145 HD
ENDBRANCH  13  20
ENDBRANCH   1  16
TORSDOF 2
ENDMDL
MODEL 4
REMARK VINA RESULT:      -6.2      3.000      3.701
REMARK  Name = ZINC000583127796
REMARK  2 active torsions:
REMARK  status: ('A' for Active; 'I' for Inactive)
REMARK    1  A    between atoms: C_2  and  C_4
REMARK    2  A    between atoms: C_7  and  C_8
REMARK                            x       y       z     vdW  Elec       q    Type
REMARK                         _______ _______ _______ _____ _____    ______ ____
ROOT
ATOM      1  C   UNL     1      32.361  20.138  12.858  0.00  0.00    +0.247 C 
ATOM      2  O   UNL     1      32.552  19.907  11.666  0.00  0.00    -0.270 OA
ATOM      3  N   UNL     1      32.999  21.187  13.540  0.00  0.00    -0.297 N 
ATOM      4  C   UNL     1      32.828  21.540  14.952  0.00  0.00    +0.108 C 
ATOM      5  C   UNL     1      32.433  22.994  15.141  0.00  0.00    +0.020 C 
ATOM      6  C   UNL     1      33.361  23.927  14.386  0.00  0.00    +0.011 C 
ATOM      7  C   UNL     1      33.514  23.547  12.892  0.00  0.00    -0.004 C 
ATOM      8  C   UNL     1      34.577  24.492  12.293  0.00  0.00    +0.020 C 
ATOM      9  C   UNL     1      34.378  24.605  10.796  0.00  0.00    +0.070 C 
ATOM     10  S   UNL     1      32.592  24.695  10.598  0.00  0.00    -0.160 S 
ATOM     11  C   UNL     1      32.197  23.782  12.116  0.00  0.00    +0.077 C 
ATOM     12  C   UNL     1      33.930  22.053  12.798  0.00  0.00    +0.115 C 
ENDROOT
BRANCH   1  16
ATOM     13  C   UNL     1      29.519  17.938  15.178  0.00  0.00    +0.037 A 
ATOM     14  C   UNL     1      30.597  17.261  14.598  0.00  0.00    +0.014 A 
ATOM     15  C   UNL     1      31.468  17.941  13.744  0.00  0.00    +0.014 A 
ATOM     16  C   UNL     1      31.326  19.319  13.549  0.00  0.00    +0.037 A 
ATOM     17  C   UNL     1      30.189  19.971  14.046  0.00  0.00    +0.014 A 
ATOM     18  C   UNL     1      29.280  19.277  14.850  0.00  0.00    +0.014 A 
BRANCH  13  20
ATOM     19  N   UNL     1      28.480  15.908  16.023  0.00  0.00    -0.325 N 
ATOM     20  C   UNL     1      28.616  17.262  16.146  0.00  0.00    +0.242 C 
ATOM     21  O   UNL     1      28.064  17.882  17.042  0.00  0.00    -0.270 OA
ATOM     22  H   UNL     1      27.967  15.447  16.766  0.00  0.00    +0.145 HD
ATOM     23  H   UNL     1      29.128  15.348  15.487  0.00  0.00    +0.145 HD
ENDBRANCH  13  20
ENDBRANCH   1  16
TORSDOF 2
ENDMDL
MODEL 5
REMARK VINA RESULT:      -6.0      5.592      6.569
REMARK  Name = ZINC000583127796
REMARK  2 active torsions:
REMARK  status: ('A' for Active; 'I' for Inactive)
REMARK    1  A    between atoms: C_2  and  C_4
REMARK    2  A    between atoms: C_7  and  C_8
REMARK                            x       y       z     vdW  Elec       q    Type
REMARK                         _______ _______ _______ _____ _____    ______ ____
ROOT
ATOM      1  C   UNL     1      32.108  16.611  13.304  0.00  0.00    +0.247 C 
ATOM      2  O   UNL     1      31.746  15.871  12.391  0.00  0.00    -0.270 OA
ATOM      3  N   UNL     1      33.364  16.495  13.922  0.00  0.00    -0.297 N 
ATOM      4  C   UNL     1      33.882  17.332  15.007  0.00  0.00    +0.108 C 
ATOM      5  C   UNL     1      35.223  17.956  14.667  0.00  0.00    +0.020 C 
ATOM      6  C   UNL     1      36.212  16.917  14.172  0.00  0.00    +0.011 C 
ATOM      7  C   UNL     1      35.651  16.056  13.013  0.00  0.00    -0.004 C 
ATOM      8  C   UNL     1      36.705  14.969  12.708  0.00  0.00    +0.020 C 
ATOM      9  C   UNL     1      36.542  14.481  11.284  0.00  0.00    +0.070 C 
ATOM     10  S   UNL     1      36.203  15.978  10.344  0.00  0.00    -0.160 S 
ATOM     11  C   UNL     1      35.468  16.895  11.727  0.00  0.00    +0.077 C 
ATOM     12  C   UNL     1      34.290  15.450  13.455  0.00  0.00    +0.115 C 
ENDROOT
BRANCH   1  16
ATOM     13  C   UNL     1      29.785  19.975  14.564  0.00  0.00    +0.037 A 
ATOM     14  C   UNL     1      29.518  18.716  15.114  0.00  0.00    +0.014 A 
ATOM     15  C   UNL     1      30.187  17.589  14.630  0.00  0.00    +0.014 A 
ATOM     16  C   UNL     1      31.195  17.729  13.672  0.00  0.00    +0.037 A 
ATOM     17  C   UNL     1      31.387  18.972  13.050  0.00  0.00    +0.014 A 
ATOM     18  C   UNL     1      30.673  20.090  13.489  0.00  0.00    +0.014 A 
BRANCH  13  20
ATOM     19  N   UNL     1      29.485  22.387  14.514  0.00  0.00    -0.325 N 
ATOM     20  C   UNL     1      29.144  21.202  15.102  0.00  0.00    +0.242 C 
ATOM     21  O   UNL     1      28.310  21.147  15.994  0.00  0.00    -0.270 OA
ATOM     22  H   UNL     1      28.946  23.195  14.804  0.00  0.00    +0.145 HD
ATOM     23  H   UNL     1      29.942  22.430  13.614  0.00  0.00    +0.145 HD
ENDBRANCH  13  20
ENDBRANCH   1  16
TORSDOF 2
ENDMDL
MODEL 6
REMARK VINA RESULT:      -6.0      4.668      5.788
REMARK  Name = ZINC000583127796
REMARK  2 active torsions:
REMARK  status: ('A' for Active; 'I' for Inactive)
REMARK    1  A    between atoms: C_2  and  C_4
REMARK    2  A    between atoms: C_7  and  C_8
REMARK                            x       y       z     vdW  Elec       q    Type
REMARK                         _______ _______ _______ _____ _____    ______ ____
ROOT
ATOM      1  C   UNL     1      31.734  18.873  12.869  0.00  0.00    +0.247 C 
ATOM      2  O   UNL     1      31.834  18.989  11.649  0.00  0.00    -0.270 OA
ATOM      3  N   UNL     1      32.262  17.777  13.572  0.00  0.00    -0.297 N 
ATOM      4  C   UNL     1      32.198  17.558  15.019  0.00  0.00    +0.108 C 
ATOM      5  C   UNL     1      33.569  17.330  15.631  0.00  0.00    +0.020 C 
ATOM      6  C   UNL     1      34.341  16.259  14.883  0.00  0.00    +0.011 C 
ATOM      7  C   UNL     1      34.412  16.519  13.358  0.00  0.00    -0.004 C 
ATOM      8  C   UNL     1      35.104  15.294  12.724  0.00  0.00    +0.020 C 
ATOM      9  C   UNL     1      35.730  15.685  11.402  0.00  0.00    +0.070 C 
ATOM     10  S   UNL     1      36.442  17.308  11.718  0.00  0.00    -0.160 S 
ATOM     11  C   UNL     1      35.282  17.757  13.040  0.00  0.00    +0.077 C 
ATOM     12  C   UNL     1      32.969  16.726  12.821  0.00  0.00    +0.115 C 
ENDROOT
BRANCH   1  16
ATOM     13  C   UNL     1      30.107  21.975  15.324  0.00  0.00    +0.037 A 
ATOM     14  C   UNL     1      29.246  21.027  14.762  0.00  0.00    +0.014 A 
ATOM     15  C   UNL     1      29.744  20.078  13.866  0.00  0.00    +0.014 A 
ATOM     16  C   UNL     1      31.117  20.008  13.610  0.00  0.00    +0.037 A 
ATOM     17  C   UNL     1      31.960  21.021  14.090  0.00  0.00    +0.014 A 
ATOM     18  C   UNL     1      31.452  22.010  14.937  0.00  0.00    +0.014 A 
BRANCH  13  20
ATOM     19  N   UNL     1      28.274  23.018  16.533  0.00  0.00    -0.325 N 
ATOM     20  C   UNL     1      29.624  22.953  16.333  0.00  0.00    +0.242 C 
ATOM     21  O   UNL     1      30.401  23.628  16.990  0.00  0.00    -0.270 OA
ATOM     22  H   UNL     1      27.971  23.592  17.311  0.00  0.00    +0.145 HD
ATOM     23  H   UNL     1      27.646  22.291  16.218  0.00  0.00    +0.145 HD
ENDBRANCH  13  20
ENDBRANCH   1  16
TORSDOF 2
ENDMDL
MODEL 7
REMARK VINA RESULT:      -5.8      3.409      4.037
REMARK  Name = ZINC000583127796
REMARK  2 active torsions:
REMARK  status: ('A' for Active; 'I' for Inactive)
REMARK    1  A    between atoms: C_2  and  C_4
REMARK    2  A    between atoms: C_7  and  C_8
REMARK                            x       y       z     vdW  Elec       q    Type
REMARK                         _______ _______ _______ _____ _____    ______ ____
ROOT
ATOM      1  C   UNL     1      33.737  21.784  12.028  0.00  0.00    +0.247 C 
ATOM      2  O   UNL     1      34.750  21.623  11.350  0.00  0.00    -0.270 OA
ATOM      3  N   UNL     1      33.133  23.040  12.205  0.00  0.00    -0.297 N 
ATOM      4  C   UNL     1      31.927  23.325  12.986  0.00  0.00    +0.108 C 
ATOM      5  C   UNL     1      30.868  24.047  12.172  0.00  0.00    +0.020 C 
ATOM      6  C   UNL     1      31.441  25.262  11.466  0.00  0.00    +0.011 C 
ATOM      7  C   UNL     1      32.704  24.936  10.632  0.00  0.00    -0.004 C 
ATOM      8  C   UNL     1      33.244  26.276  10.088  0.00  0.00    +0.020 C 
ATOM      9  C   UNL     1      34.069  26.029   8.843  0.00  0.00    +0.070 C 
ATOM     10  S   UNL     1      33.145  24.771   7.947  0.00  0.00    -0.160 S 
ATOM     11  C   UNL     1      32.359  24.048   9.414  0.00  0.00    +0.077 C 
ATOM     12  C   UNL     1      33.732  24.213  11.547  0.00  0.00    +0.115 C 
ENDROOT
BRANCH   1  16
ATOM     13  C   UNL     1      31.543  18.415  13.491  0.00  0.00    +0.037 A 
ATOM     14  C   UNL     1      32.054  19.345  14.403  0.00  0.00    +0.014 A 
ATOM     15  C   UNL     1      32.870  20.386  13.952  0.00  0.00    +0.014 A 
ATOM     16  C   UNL     1      33.091  20.561  12.583  0.00  0.00    +0.037 A 
ATOM     17  C   UNL     1      32.667  19.572  11.684  0.00  0.00    +0.014 A 
ATOM     18  C   UNL     1      31.904  18.494  12.141  0.00  0.00    +0.014 A 
BRANCH  13  20
ATOM     19  N   UNL     1      29.893  17.568  15.063  0.00  0.00    -0.325 N 
ATOM     20  C   UNL     1      30.617  17.339  13.926  0.00  0.00    +0.242 C 
ATOM     21  O   UNL     1      30.470  16.320  13.269  0.00  0.00    -0.270 OA
ATOM     22  H   UNL     1      29.175  16.884  15.274  0.00  0.00    +0.145 HD
ATOM     23  H   UNL     1      29.787  18.492  15.457  0.00  0.00    +0.145 HD
ENDBRANCH  13  20
ENDBRANCH   1  16
TORSDOF 2
ENDMDL
MODEL 8
REMARK VINA RESULT:      -5.8      3.748      7.891
REMARK  Name = ZINC000583127796
REMARK  2 active torsions:
REMARK  status: ('A' for Active; 'I' for Inactive)
REMARK    1  A    between atoms: C_2  and  C_4
REMARK    2  A    between atoms: C_7  and  C_8
REMARK                            x       y       z     vdW  Elec       q    Type
REMARK                         _______ _______ _______ _____ _____    ______ ____
ROOT
ATOM      1  C   UNL     1      32.222  24.567  11.097  0.00  0.00    +0.247 C 
ATOM      2  O   UNL     1      31.069  24.975  11.225  0.00  0.00    -0.270 OA
ATOM      3  N   UNL     1      33.001  24.141  12.185  0.00  0.00    -0.297 N 
ATOM      4  C   UNL     1      34.375  23.635  12.128  0.00  0.00    +0.108 C 
ATOM      5  C   UNL     1      34.516  22.272  12.783  0.00  0.00    +0.020 C 
ATOM      6  C   UNL     1      33.917  22.258  14.176  0.00  0.00    +0.011 C 
ATOM      7  C   UNL     1      32.459  22.780  14.212  0.00  0.00    -0.004 C 
ATOM      8  C   UNL     1      32.034  22.833  15.695  0.00  0.00    +0.020 C 
ATOM      9  C   UNL     1      30.526  22.755  15.800  0.00  0.00    +0.070 C 
ATOM     10  S   UNL     1      30.064  21.528  14.567  0.00  0.00    -0.160 S 
ATOM     11  C   UNL     1      31.497  21.809  13.490  0.00  0.00    +0.077 C 
ATOM     12  C   UNL     1      32.415  24.179  13.535  0.00  0.00    +0.115 C 
ENDROOT
BRANCH   1  16
ATOM     13  C   UNL     1      34.020  23.983   7.259  0.00  0.00    +0.037 A 
ATOM     14  C   UNL     1      34.036  25.258   7.833  0.00  0.00    +0.014 A 
ATOM     15  C   UNL     1      33.353  25.492   9.030  0.00  0.00    +0.014 A 
ATOM     16  C   UNL     1      32.743  24.432   9.708  0.00  0.00    +0.037 A 
ATOM     17  C   UNL     1      32.639  23.182   9.081  0.00  0.00    +0.014 A 
ATOM     18  C   UNL     1      33.268  22.962   7.852  0.00  0.00    +0.014 A 
BRANCH  13  20
ATOM     19  N   UNL     1      35.008  24.722   5.164  0.00  0.00    -0.325 N 
ATOM     20  C   UNL     1      34.792  23.684   6.026  0.00  0.00    +0.242 C 
ATOM     21  O   UNL     1      35.259  22.574   5.820  0.00  0.00    -0.270 OA
ATOM     22  H   UNL     1      35.642  24.534   4.397  0.00  0.00    +0.145 HD
ATOM     23  H   UNL     1      34.882  25.686   5.439  0.00  0.00    +0.145 HD
ENDBRANCH  13  20
ENDBRANCH   1  16
TORSDOF 2
ENDMDL
MODEL 9
REMARK VINA RESULT:      -5.7      6.346      8.170
REMARK  Name = ZINC000583127796
REMARK  2 active torsions:
REMARK  status: ('A' for Active; 'I' for Inactive)
REMARK    1  A    between atoms: C_2  and  C_4
REMARK    2  A    between atoms: C_7  and  C_8
REMARK                            x       y       z     vdW  Elec       q    Type
REMARK                         _______ _______ _______ _____ _____    ______ ____
ROOT
ATOM      1  C   UNL     1      33.557  23.773  19.490  0.00  0.00    +0.247 C 
ATOM      2  O   UNL     1      33.608  24.811  20.147  0.00  0.00    -0.270 OA
ATOM      3  N   UNL     1      34.438  22.698  19.699  0.00  0.00    -0.297 N 
ATOM      4  C   UNL     1      34.447  21.426  18.972  0.00  0.00    +0.108 C 
ATOM      5  C   UNL     1      34.358  20.228  19.901  0.00  0.00    +0.020 C 
ATOM      6  C   UNL     1      35.389  20.307  21.012  0.00  0.00    +0.011 C 
ATOM      7  C   UNL     1      35.350  21.652  21.779  0.00  0.00    -0.004 C 
ATOM      8  C   UNL     1      36.528  21.637  22.776  0.00  0.00    +0.020 C 
ATOM      9  C   UNL     1      36.240  22.581  23.924  0.00  0.00    +0.070 C 
ATOM     10  S   UNL     1      34.495  22.320  24.280  0.00  0.00    -0.160 S 
ATOM     11  C   UNL     1      34.049  21.791  22.602  0.00  0.00    +0.077 C 
ATOM     12  C   UNL     1      35.460  22.813  20.752  0.00  0.00    +0.115 C 
ENDROOT
BRANCH   1  16
ATOM     13  C   UNL     1      30.353  23.016  16.759  0.00  0.00    +0.037 A 
ATOM     14  C   UNL     1      31.613  23.357  16.255  0.00  0.00    +0.014 A 
ATOM     15  C   UNL     1      32.638  23.720  17.132  0.00  0.00    +0.014 A 
ATOM     16  C   UNL     1      32.439  23.643  18.514  0.00  0.00    +0.037 A 
ATOM     17  C   UNL     1      31.151  23.403  19.012  0.00  0.00    +0.014 A 
ATOM     18  C   UNL     1      30.106  23.101  18.134  0.00  0.00    +0.014 A 
BRANCH  13  20
ATOM     19  N   UNL     1      29.568  22.426  14.534  0.00  0.00    -0.325 N 
ATOM     20  C   UNL     1      29.263  22.557  15.860  0.00  0.00    +0.242 C 
ATOM     21  O   UNL     1      28.160  22.261  16.295  0.00  0.00    -0.270 OA
ATOM     22  H   UNL     1      28.856  21.991  13.959  0.00  0.00    +0.145 HD
ATOM     23  H   UNL     1      30.521  22.391  14.202  0.00  0.00    +0.145 HD
ENDBRANCH  13  20
ENDBRANCH   1  16
TORSDOF 2
ENDMDL
