MODEL 1
REMARK VINA RESULT:      -6.7      0.000      0.000
REMARK  Name = ZINC000560333501
REMARK  5 active torsions:
REMARK  status: ('A' for Active; 'I' for Inactive)
REMARK    1  A    between atoms: C_2  and  C_3
REMARK    2  A    between atoms: C_7  and  C_8
REMARK    3  A    between atoms: C_8  and  C_9
REMARK    4  A    between atoms: N_11  and  C_12
REMARK    5  A    between atoms: C_12  and  C_13
REMARK                            x       y       z     vdW  Elec       q    Type
REMARK                         _______ _______ _______ _____ _____    ______ ____
ROOT
ATOM      1  C   UNL     1      31.279  22.980  12.623  0.00  0.00    +0.217 C 
ATOM      2  O   UNL     1      32.259  22.236  12.527  0.00  0.00    -0.275 OA
ATOM      3  N   UNL     1      30.431  22.978  13.717  0.00  0.00    -0.315 N 
ATOM      4  H   UNL     1      29.858  23.805  13.834  0.00  0.00    +0.149 HD
ENDROOT
BRANCH   1   5
ATOM      5  C   UNL     1      30.937  23.956  11.522  0.00  0.00    +0.131 C 
BRANCH   5  10
ATOM      6  C   UNL     1      33.503  24.337   8.699  0.00  0.00    +0.052 A 
ATOM      7  C   UNL     1      34.188  25.485   9.114  0.00  0.00    +0.019 A 
ATOM      8  C   UNL     1      33.835  26.111  10.309  0.00  0.00    +0.002 A 
ATOM      9  C   UNL     1      32.804  25.593  11.094  0.00  0.00    +0.004 A 
ATOM     10  C   UNL     1      32.111  24.440  10.698  0.00  0.00    -0.037 A 
ATOM     11  C   UNL     1      32.465  23.822   9.487  0.00  0.00    +0.023 A 
BRANCH   6  13
ATOM     12  N   UNL     1      34.135  23.202   6.453  0.00  0.00    -0.191 NA
ATOM     13  C   UNL     1      33.854  23.706   7.460  0.00  0.00    +0.099 C 
ENDBRANCH   6  13
ENDBRANCH   5  10
ENDBRANCH   1   5
BRANCH   3  14
ATOM     14  C   UNL     1      30.879  22.319  14.930  0.00  0.00    +0.108 C 
BRANCH  14  15
ATOM     15  C   UNL     1      29.780  21.798  15.875  0.00  0.00    +0.011 C 
ATOM     16  C   UNL     1      30.224  21.699  17.331  0.00  0.00    +0.033 C 
ATOM     17  C   UNL     1      31.393  20.736  17.472  0.00  0.00    +0.161 C 
ATOM     18  O   UNL     1      31.190  19.487  16.816  0.00  0.00    -0.373 OA
ATOM     19  C   UNL     1      30.503  19.399  15.535  0.00  0.00    +0.070 C 
ATOM     20  C   UNL     1      31.369  19.356  14.228  0.00  0.00    +0.035 C 
ATOM     21  C   UNL     1      31.438  17.836  14.370  0.00  0.00    +0.006 C 
ATOM     22  C   UNL     1      30.136  17.915  15.190  0.00  0.00    +0.035 C 
ATOM     23  C   UNL     1      29.327  20.382  15.461  0.00  0.00    +0.040 C 
ENDBRANCH  14  15
ENDBRANCH   3  14
TORSDOF 5
ENDMDL
MODEL 2
REMARK VINA RESULT:      -6.7      1.370      1.882
REMARK  Name = ZINC000560333501
REMARK  5 active torsions:
REMARK  status: ('A' for Active; 'I' for Inactive)
REMARK    1  A    between atoms: C_2  and  C_3
REMARK    2  A    between atoms: C_7  and  C_8
REMARK    3  A    between atoms: C_8  and  C_9
REMARK    4  A    between atoms: N_11  and  C_12
REMARK    5  A    between atoms: C_12  and  C_13
REMARK                            x       y       z     vdW  Elec       q    Type
REMARK                         _______ _______ _______ _____ _____    ______ ____
ROOT
ATOM      1  C   UNL     1      31.389  23.178  12.850  0.00  0.00    +0.217 C 
ATOM      2  O   UNL     1      32.546  22.761  12.945  0.00  0.00    -0.275 OA
ATOM      3  N   UNL     1      30.408  22.909  13.789  0.00  0.00    -0.315 N 
ATOM      4  H   UNL     1      29.606  23.527  13.780  0.00  0.00    +0.149 HD
ENDROOT
BRANCH   1   5
ATOM      5  C   UNL     1      30.964  24.024  11.673  0.00  0.00    +0.131 C 
BRANCH   5  10
ATOM      6  C   UNL     1      33.794  25.783   9.777  0.00  0.00    +0.052 A 
ATOM      7  C   UNL     1      34.188  24.775   8.890  0.00  0.00    +0.019 A 
ATOM      8  C   UNL     1      33.525  23.549   8.892  0.00  0.00    +0.002 A 
ATOM      9  C   UNL     1      32.466  23.326   9.775  0.00  0.00    +0.004 A 
ATOM     10  C   UNL     1      32.052  24.326  10.666  0.00  0.00    -0.037 A 
ATOM     11  C   UNL     1      32.733  25.555  10.664  0.00  0.00    +0.023 A 
BRANCH   6  13
ATOM     12  N   UNL     1      35.057  28.050   9.788  0.00  0.00    -0.191 NA
ATOM     13  C   UNL     1      34.489  27.037   9.787  0.00  0.00    +0.099 C 
ENDBRANCH   6  13
ENDBRANCH   5  10
ENDBRANCH   1   5
BRANCH   3  14
ATOM     14  C   UNL     1      30.821  22.397  15.084  0.00  0.00    +0.108 C 
BRANCH  14  15
ATOM     15  C   UNL     1      29.734  21.705  15.927  0.00  0.00    +0.011 C 
ATOM     16  C   UNL     1      30.154  21.446  17.371  0.00  0.00    +0.033 C 
ATOM     17  C   UNL     1      31.372  20.535  17.421  0.00  0.00    +0.161 C 
ATOM     18  O   UNL     1      31.249  19.370  16.609  0.00  0.00    -0.373 OA
ATOM     19  C   UNL     1      30.592  19.409  15.309  0.00  0.00    +0.070 C 
ATOM     20  C   UNL     1      31.484  19.575  14.030  0.00  0.00    +0.035 C 
ATOM     21  C   UNL     1      31.633  18.055  13.983  0.00  0.00    +0.006 C 
ATOM     22  C   UNL     1      30.313  17.963  14.772  0.00  0.00    +0.035 C 
ATOM     23  C   UNL     1      29.366  20.331  15.328  0.00  0.00    +0.040 C 
ENDBRANCH  14  15
ENDBRANCH   3  14
TORSDOF 5
ENDMDL
MODEL 3
REMARK VINA RESULT:      -6.6      5.039      9.167
REMARK  Name = ZINC000560333501
REMARK  5 active torsions:
REMARK  status: ('A' for Active; 'I' for Inactive)
REMARK    1  A    between atoms: C_2  and  C_3
REMARK    2  A    between atoms: C_7  and  C_8
REMARK    3  A    between atoms: C_8  and  C_9
REMARK    4  A    between atoms: N_11  and  C_12
REMARK    5  A    between atoms: C_12  and  C_13
REMARK                            x       y       z     vdW  Elec       q    Type
REMARK                         _______ _______ _______ _____ _____    ______ ____
ROOT
ATOM      1  C   UNL     1      26.254  21.481  17.253  0.00  0.00    +0.217 C 
ATOM      2  O   UNL     1      25.811  21.721  16.127  0.00  0.00    -0.275 OA
ATOM      3  N   UNL     1      27.557  21.076  17.485  0.00  0.00    -0.315 N 
ATOM      4  H   UNL     1      27.897  21.197  18.431  0.00  0.00    +0.149 HD
ENDROOT
BRANCH   1   5
ATOM      5  C   UNL     1      25.376  21.612  18.475  0.00  0.00    +0.131 C 
BRANCH   5  10
ATOM      6  C   UNL     1      23.809  24.954  19.516  0.00  0.00    +0.052 A 
ATOM      7  C   UNL     1      24.893  25.571  20.150  0.00  0.00    +0.019 A 
ATOM      8  C   UNL     1      26.123  24.918  20.216  0.00  0.00    +0.002 A 
ATOM      9  C   UNL     1      26.277  23.653  19.647  0.00  0.00    +0.004 A 
ATOM     10  C   UNL     1      25.204  23.022  19.001  0.00  0.00    -0.037 A 
ATOM     11  C   UNL     1      23.965  23.682  18.948  0.00  0.00    +0.023 A 
BRANCH   6  13
ATOM     12  N   UNL     1      21.508  26.148  19.425  0.00  0.00    -0.191 NA
ATOM     13  C   UNL     1      22.540  25.618  19.466  0.00  0.00    +0.099 C 
ENDBRANCH   6  13
ENDBRANCH   5  10
ENDBRANCH   1   5
BRANCH   3  14
ATOM     14  C   UNL     1      28.527  21.248  16.417  0.00  0.00    +0.108 C 
BRANCH  14  15
ATOM     15  C   UNL     1      29.949  21.660  16.842  0.00  0.00    +0.011 C 
ATOM     16  C   UNL     1      30.630  22.606  15.857  0.00  0.00    +0.033 C 
ATOM     17  C   UNL     1      30.770  21.949  14.491  0.00  0.00    +0.161 C 
ATOM     18  O   UNL     1      31.315  20.633  14.541  0.00  0.00    -0.373 OA
ATOM     19  C   UNL     1      30.977  19.705  15.612  0.00  0.00    +0.070 C 
ATOM     20  C   UNL     1      29.832  18.663  15.358  0.00  0.00    +0.035 C 
ATOM     21  C   UNL     1      30.879  17.713  14.776  0.00  0.00    +0.006 C 
ATOM     22  C   UNL     1      31.935  18.465  15.609  0.00  0.00    +0.035 C 
ATOM     23  C   UNL     1      30.865  20.424  16.963  0.00  0.00    +0.040 C 
ENDBRANCH  14  15
ENDBRANCH   3  14
TORSDOF 5
ENDMDL
MODEL 4
REMARK VINA RESULT:      -6.6      4.913      7.665
REMARK  Name = ZINC000560333501
REMARK  5 active torsions:
REMARK  status: ('A' for Active; 'I' for Inactive)
REMARK    1  A    between atoms: C_2  and  C_3
REMARK    2  A    between atoms: C_7  and  C_8
REMARK    3  A    between atoms: C_8  and  C_9
REMARK    4  A    between atoms: N_11  and  C_12
REMARK    5  A    between atoms: C_12  and  C_13
REMARK                            x       y       z     vdW  Elec       q    Type
REMARK                         _______ _______ _______ _____ _____    ______ ____
ROOT
ATOM      1  C   UNL     1      30.304  20.189  14.469  0.00  0.00    +0.217 C 
ATOM      2  O   UNL     1      31.307  20.789  14.074  0.00  0.00    -0.275 OA
ATOM      3  N   UNL     1      30.291  18.832  14.742  0.00  0.00    -0.315 N 
ATOM      4  H   UNL     1      29.534  18.506  15.330  0.00  0.00    +0.149 HD
ENDROOT
BRANCH   1   5
ATOM      5  C   UNL     1      28.997  20.918  14.677  0.00  0.00    +0.131 C 
BRANCH   5  10
ATOM      6  C   UNL     1      29.009  21.718  18.427  0.00  0.00    +0.052 A 
ATOM      7  C   UNL     1      27.664  21.504  18.750  0.00  0.00    +0.019 A 
ATOM      8  C   UNL     1      26.772  21.081  17.765  0.00  0.00    +0.002 A 
ATOM      9  C   UNL     1      27.218  20.867  16.460  0.00  0.00    +0.004 A 
ATOM     10  C   UNL     1      28.563  21.069  16.119  0.00  0.00    -0.037 A 
ATOM     11  C   UNL     1      29.453  21.506  17.115  0.00  0.00    +0.023 A 
BRANCH   6  13
ATOM     12  N   UNL     1      30.663  22.532  20.253  0.00  0.00    -0.191 NA
ATOM     13  C   UNL     1      29.921  22.172  19.435  0.00  0.00    +0.099 C 
ENDBRANCH   6  13
ENDBRANCH   5  10
ENDBRANCH   1   5
BRANCH   3  14
ATOM     14  C   UNL     1      31.565  18.150  14.882  0.00  0.00    +0.108 C 
BRANCH  14  15
ATOM     15  C   UNL     1      31.544  16.617  14.729  0.00  0.00    +0.011 C 
ATOM     16  C   UNL     1      32.763  15.927  15.335  0.00  0.00    +0.033 C 
ATOM     17  C   UNL     1      34.040  16.401  14.659  0.00  0.00    +0.161 C 
ATOM     18  O   UNL     1      33.978  16.378  13.235  0.00  0.00    -0.373 OA
ATOM     19  C   UNL     1      32.761  16.733  12.517  0.00  0.00    +0.070 C 
ATOM     20  C   UNL     1      32.615  18.201  11.983  0.00  0.00    +0.035 C 
ATOM     21  C   UNL     1      33.323  17.763  10.701  0.00  0.00    +0.006 C 
ATOM     22  C   UNL     1      32.857  16.327  11.007  0.00  0.00    +0.035 C 
ATOM     23  C   UNL     1      31.511  16.215  13.240  0.00  0.00    +0.040 C 
ENDBRANCH  14  15
ENDBRANCH   3  14
TORSDOF 5
ENDMDL
MODEL 5
REMARK VINA RESULT:      -6.5      5.077      8.864
REMARK  Name = ZINC000560333501
REMARK  5 active torsions:
REMARK  status: ('A' for Active; 'I' for Inactive)
REMARK    1  A    between atoms: C_2  and  C_3
REMARK    2  A    between atoms: C_7  and  C_8
REMARK    3  A    between atoms: C_8  and  C_9
REMARK    4  A    between atoms: N_11  and  C_12
REMARK    5  A    between atoms: C_12  and  C_13
REMARK                            x       y       z     vdW  Elec       q    Type
REMARK                         _______ _______ _______ _____ _____    ______ ____
ROOT
ATOM      1  C   UNL     1      28.933  22.618  19.433  0.00  0.00    +0.217 C 
ATOM      2  O   UNL     1      29.788  23.121  20.167  0.00  0.00    -0.275 OA
ATOM      3  N   UNL     1      29.117  22.432  18.074  0.00  0.00    -0.315 N 
ATOM      4  H   UNL     1      28.503  21.758  17.633  0.00  0.00    +0.149 HD
ENDROOT
BRANCH   1   5
ATOM      5  C   UNL     1      27.602  22.171  19.988  0.00  0.00    +0.131 C 
BRANCH   5  10
ATOM      6  C   UNL     1      25.376  25.256  19.508  0.00  0.00    +0.052 A 
ATOM      7  C   UNL     1      24.289  24.698  18.826  0.00  0.00    +0.019 A 
ATOM      8  C   UNL     1      24.270  23.331  18.549  0.00  0.00    +0.002 A 
ATOM      9  C   UNL     1      25.331  22.519  18.954  0.00  0.00    +0.004 A 
ATOM     10  C   UNL     1      26.425  23.059  19.644  0.00  0.00    -0.037 A 
ATOM     11  C   UNL     1      26.441  24.439  19.910  0.00  0.00    +0.023 A 
BRANCH   6  13
ATOM     12  N   UNL     1      25.434  27.805  19.991  0.00  0.00    -0.191 NA
ATOM     13  C   UNL     1      25.403  26.664  19.775  0.00  0.00    +0.099 C 
ENDBRANCH   6  13
ENDBRANCH   5  10
ENDBRANCH   1   5
BRANCH   3  14
ATOM     14  C   UNL     1      30.467  22.528  17.546  0.00  0.00    +0.108 C 
BRANCH  14  15
ATOM     15  C   UNL     1      31.335  21.259  17.645  0.00  0.00    +0.011 C 
ATOM     16  C   UNL     1      32.783  21.476  17.215  0.00  0.00    +0.033 C 
ATOM     17  C   UNL     1      32.850  21.921  15.762  0.00  0.00    +0.161 C 
ATOM     18  O   UNL     1      32.071  21.117  14.880  0.00  0.00    -0.373 OA
ATOM     19  C   UNL     1      30.774  20.584  15.275  0.00  0.00    +0.070 C 
ATOM     20  C   UNL     1      29.486  21.375  14.859  0.00  0.00    +0.035 C 
ATOM     21  C   UNL     1      29.480  20.597  13.543  0.00  0.00    +0.006 C 
ATOM     22  C   UNL     1      30.279  19.494  14.264  0.00  0.00    +0.035 C 
ATOM     23  C   UNL     1      30.775  20.139  16.743  0.00  0.00    +0.040 C 
ENDBRANCH  14  15
ENDBRANCH   3  14
TORSDOF 5
ENDMDL
MODEL 6
REMARK VINA RESULT:      -6.5      1.793      2.294
REMARK  Name = ZINC000560333501
REMARK  5 active torsions:
REMARK  status: ('A' for Active; 'I' for Inactive)
REMARK    1  A    between atoms: C_2  and  C_3
REMARK    2  A    between atoms: C_7  and  C_8
REMARK    3  A    between atoms: C_8  and  C_9
REMARK    4  A    between atoms: N_11  and  C_12
REMARK    5  A    between atoms: C_12  and  C_13
REMARK                            x       y       z     vdW  Elec       q    Type
REMARK                         _______ _______ _______ _____ _____    ______ ____
ROOT
ATOM      1  C   UNL     1      31.729  23.334  12.312  0.00  0.00    +0.217 C 
ATOM      2  O   UNL     1      32.706  23.431  13.059  0.00  0.00    -0.275 OA
ATOM      3  N   UNL     1      30.644  22.519  12.586  0.00  0.00    -0.315 N 
ATOM      4  H   UNL     1      29.791  22.734  12.085  0.00  0.00    +0.149 HD
ENDROOT
BRANCH   1   5
ATOM      5  C   UNL     1      31.659  24.115  11.021  0.00  0.00    +0.131 C 
BRANCH   5  10
ATOM      6  C   UNL     1      33.888  21.816   8.911  0.00  0.00    +0.052 A 
ATOM      7  C   UNL     1      33.895  22.499   7.689  0.00  0.00    +0.019 A 
ATOM      8  C   UNL     1      33.204  23.704   7.563  0.00  0.00    +0.002 A 
ATOM      9  C   UNL     1      32.509  24.232   8.652  0.00  0.00    +0.004 A 
ATOM     10  C   UNL     1      32.497  23.566   9.886  0.00  0.00    -0.037 A 
ATOM     11  C   UNL     1      33.186  22.347  10.002  0.00  0.00    +0.023 A 
BRANCH   6  13
ATOM     12  N   UNL     1      35.152  19.561   9.132  0.00  0.00    -0.191 NA
ATOM     13  C   UNL     1      34.582  20.569   9.035  0.00  0.00    +0.099 C 
ENDBRANCH   6  13
ENDBRANCH   5  10
ENDBRANCH   1   5
BRANCH   3  14
ATOM     14  C   UNL     1      30.495  22.009  13.937  0.00  0.00    +0.108 C 
BRANCH  14  15
ATOM     15  C   UNL     1      29.415  20.932  14.149  0.00  0.00    +0.011 C 
ATOM     16  C   UNL     1      28.539  21.178  15.375  0.00  0.00    +0.033 C 
ATOM     17  C   UNL     1      29.381  21.189  16.642  0.00  0.00    +0.161 C 
ATOM     18  O   UNL     1      30.271  20.080  16.748  0.00  0.00    -0.373 OA
ATOM     19  C   UNL     1      30.961  19.539  15.585  0.00  0.00    +0.070 C 
ATOM     20  C   UNL     1      32.424  20.024  15.297  0.00  0.00    +0.035 C 
ATOM     21  C   UNL     1      32.933  18.902  16.202  0.00  0.00    +0.006 C 
ATOM     22  C   UNL     1      31.618  18.155  15.910  0.00  0.00    +0.035 C 
ATOM     23  C   UNL     1      30.057  19.542  14.345  0.00  0.00    +0.040 C 
ENDBRANCH  14  15
ENDBRANCH   3  14
TORSDOF 5
ENDMDL
MODEL 7
REMARK VINA RESULT:      -6.5      4.304      8.708
REMARK  Name = ZINC000560333501
REMARK  5 active torsions:
REMARK  status: ('A' for Active; 'I' for Inactive)
REMARK    1  A    between atoms: C_2  and  C_3
REMARK    2  A    between atoms: C_7  and  C_8
REMARK    3  A    between atoms: C_8  and  C_9
REMARK    4  A    between atoms: N_11  and  C_12
REMARK    5  A    between atoms: C_12  and  C_13
REMARK                            x       y       z     vdW  Elec       q    Type
REMARK                         _______ _______ _______ _____ _____    ______ ____
ROOT
ATOM      1  C   UNL     1      28.018  21.312  17.474  0.00  0.00    +0.217 C 
ATOM      2  O   UNL     1      29.048  21.349  18.152  0.00  0.00    -0.275 OA
ATOM      3  N   UNL     1      28.007  21.489  16.101  0.00  0.00    -0.315 N 
ATOM      4  H   UNL     1      27.186  21.148  15.617  0.00  0.00    +0.149 HD
ENDROOT
BRANCH   1   5
ATOM      5  C   UNL     1      26.674  21.069  18.120  0.00  0.00    +0.131 C 
BRANCH   5  10
ATOM      6  C   UNL     1      24.088  23.885  18.417  0.00  0.00    +0.052 A 
ATOM      7  C   UNL     1      24.521  24.522  19.585  0.00  0.00    +0.019 A 
ATOM      8  C   UNL     1      25.653  24.057  20.252  0.00  0.00    +0.002 A 
ATOM      9  C   UNL     1      26.359  22.959  19.755  0.00  0.00    +0.004 A 
ATOM     10  C   UNL     1      25.944  22.312  18.583  0.00  0.00    -0.037 A 
ATOM     11  C   UNL     1      24.796  22.780  17.922  0.00  0.00    +0.023 A 
BRANCH   6  13
ATOM     12  N   UNL     1      21.962  24.738  17.199  0.00  0.00    -0.191 NA
ATOM     13  C   UNL     1      22.912  24.352  17.743  0.00  0.00    +0.099 C 
ENDBRANCH   6  13
ENDBRANCH   5  10
ENDBRANCH   1   5
BRANCH   3  14
ATOM     14  C   UNL     1      29.269  21.394  15.389  0.00  0.00    +0.108 C 
BRANCH  14  15
ATOM     15  C   UNL     1      29.650  20.003  14.848  0.00  0.00    +0.011 C 
ATOM     16  C   UNL     1      30.499  19.184  15.816  0.00  0.00    +0.033 C 
ATOM     17  C   UNL     1      31.810  19.895  16.116  0.00  0.00    +0.161 C 
ATOM     18  O   UNL     1      32.493  20.351  14.950  0.00  0.00    -0.373 OA
ATOM     19  C   UNL     1      31.774  20.893  13.805  0.00  0.00    +0.070 C 
ATOM     20  C   UNL     1      31.619  22.450  13.694  0.00  0.00    +0.035 C 
ATOM     21  C   UNL     1      32.958  22.491  12.957  0.00  0.00    +0.006 C 
ATOM     22  C   UNL     1      32.713  21.024  12.558  0.00  0.00    +0.035 C 
ATOM     23  C   UNL     1      30.471  20.126  13.547  0.00  0.00    +0.040 C 
ENDBRANCH  14  15
ENDBRANCH   3  14
TORSDOF 5
ENDMDL
MODEL 8
REMARK VINA RESULT:      -6.4      4.894      8.130
REMARK  Name = ZINC000560333501
REMARK  5 active torsions:
REMARK  status: ('A' for Active; 'I' for Inactive)
REMARK    1  A    between atoms: C_2  and  C_3
REMARK    2  A    between atoms: C_7  and  C_8
REMARK    3  A    between atoms: C_8  and  C_9
REMARK    4  A    between atoms: N_11  and  C_12
REMARK    5  A    between atoms: C_12  and  C_13
REMARK                            x       y       z     vdW  Elec       q    Type
REMARK                         _______ _______ _______ _____ _____    ______ ____
ROOT
ATOM      1  C   UNL     1      30.135  19.245  14.706  0.00  0.00    +0.217 C 
ATOM      2  O   UNL     1      29.799  18.288  15.409  0.00  0.00    -0.275 OA
ATOM      3  N   UNL     1      31.174  19.186  13.793  0.00  0.00    -0.315 N 
ATOM      4  H   UNL     1      31.172  19.899  13.074  0.00  0.00    +0.149 HD
ENDROOT
BRANCH   1   5
ATOM      5  C   UNL     1      29.416  20.569  14.805  0.00  0.00    +0.131 C 
BRANCH   5  10
ATOM      6  C   UNL     1      28.860  21.694  18.429  0.00  0.00    +0.052 A 
ATOM      7  C   UNL     1      27.475  21.534  18.549  0.00  0.00    +0.019 A 
ATOM      8  C   UNL     1      26.737  21.043  17.473  0.00  0.00    +0.002 A 
ATOM      9  C   UNL     1      27.376  20.707  16.278  0.00  0.00    +0.004 A 
ATOM     10  C   UNL     1      28.764  20.854  16.141  0.00  0.00    -0.037 A 
ATOM     11  C   UNL     1      29.499  21.359  17.227  0.00  0.00    +0.023 A 
BRANCH   6  13
ATOM     12  N   UNL     1      30.235  22.639  20.416  0.00  0.00    -0.191 NA
ATOM     13  C   UNL     1      29.616  22.218  19.529  0.00  0.00    +0.099 C 
ENDBRANCH   6  13
ENDBRANCH   5  10
ENDBRANCH   1   5
BRANCH   3  14
ATOM     14  C   UNL     1      31.679  17.878  13.413  0.00  0.00    +0.108 C 
BRANCH  14  15
ATOM     15  C   UNL     1      33.163  17.806  13.010  0.00  0.00    +0.011 C 
ATOM     16  C   UNL     1      33.426  18.238  11.570  0.00  0.00    +0.033 C 
ATOM     17  C   UNL     1      32.679  17.341  10.595  0.00  0.00    +0.161 C 
ATOM     18  O   UNL     1      32.853  15.949  10.850  0.00  0.00    -0.373 OA
ATOM     19  C   UNL     1      32.920  15.422  12.207  0.00  0.00    +0.070 C 
ATOM     20  C   UNL     1      31.608  14.848  12.847  0.00  0.00    +0.035 C 
ATOM     21  C   UNL     1      31.949  13.490  12.232  0.00  0.00    +0.006 C 
ATOM     22  C   UNL     1      33.423  13.938  12.213  0.00  0.00    +0.035 C 
ATOM     23  C   UNL     1      33.697  16.364  13.136  0.00  0.00    +0.040 C 
ENDBRANCH  14  15
ENDBRANCH   3  14
TORSDOF 5
ENDMDL
MODEL 9
REMARK VINA RESULT:      -6.4      4.330      6.319
REMARK  Name = ZINC000560333501
REMARK  5 active torsions:
REMARK  status: ('A' for Active; 'I' for Inactive)
REMARK    1  A    between atoms: C_2  and  C_3
REMARK    2  A    between atoms: C_7  and  C_8
REMARK    3  A    between atoms: C_8  and  C_9
REMARK    4  A    between atoms: N_11  and  C_12
REMARK    5  A    between atoms: C_12  and  C_13
REMARK                            x       y       z     vdW  Elec       q    Type
REMARK                         _______ _______ _______ _____ _____    ______ ____
ROOT
ATOM      1  C   UNL     1      29.187  21.475  16.496  0.00  0.00    +0.217 C 
ATOM      2  O   UNL     1      28.688  21.091  17.557  0.00  0.00    -0.275 OA
ATOM      3  N   UNL     1      30.068  22.540  16.416  0.00  0.00    -0.315 N 
ATOM      4  H   UNL     1      30.638  22.581  15.580  0.00  0.00    +0.149 HD
ENDROOT
BRANCH   1   5
ATOM      5  C   UNL     1      28.855  20.791  15.191  0.00  0.00    +0.131 C 
BRANCH   5  10
ATOM      6  C   UNL     1      31.735  19.107  13.300  0.00  0.00    +0.052 A 
ATOM      7  C   UNL     1      31.844  17.900  14.001  0.00  0.00    +0.019 A 
ATOM      8  C   UNL     1      30.976  17.629  15.058  0.00  0.00    +0.002 A 
ATOM      9  C   UNL     1      29.996  18.556  15.416  0.00  0.00    +0.004 A 
ATOM     10  C   UNL     1      29.866  19.767  14.721  0.00  0.00    -0.037 A 
ATOM     11  C   UNL     1      30.752  20.037  13.665  0.00  0.00    +0.023 A 
BRANCH   6  13
ATOM     12  N   UNL     1      33.367  19.627  11.352  0.00  0.00    -0.191 NA
ATOM     13  C   UNL     1      32.640  19.393  12.227  0.00  0.00    +0.099 C 
ENDBRANCH   6  13
ENDBRANCH   5  10
ENDBRANCH   1   5
BRANCH   3  14
ATOM     14  C   UNL     1      30.677  23.020  17.644  0.00  0.00    +0.108 C 
BRANCH  14  15
ATOM     15  C   UNL     1      32.215  23.112  17.657  0.00  0.00    +0.011 C 
ATOM     16  C   UNL     1      32.907  21.812  17.256  0.00  0.00    +0.033 C 
ATOM     17  C   UNL     1      32.542  20.690  18.216  0.00  0.00    +0.161 C 
ATOM     18  O   UNL     1      32.675  21.046  19.590  0.00  0.00    -0.373 OA
ATOM     19  C   UNL     1      32.325  22.376  20.073  0.00  0.00    +0.070 C 
ATOM     20  C   UNL     1      30.899  22.591  20.690  0.00  0.00    +0.035 C 
ATOM     21  C   UNL     1      31.465  22.175  22.047  0.00  0.00    +0.006 C 
ATOM     22  C   UNL     1      32.852  22.605  21.531  0.00  0.00    +0.035 C 
ATOM     23  C   UNL     1      32.731  23.462  19.069  0.00  0.00    +0.040 C 
ENDBRANCH  14  15
ENDBRANCH   3  14
TORSDOF 5
ENDMDL
