MODEL 1
REMARK VINA RESULT:      -7.6      0.000      0.000
REMARK  Name = ZINC000826139982
REMARK  4 active torsions:
REMARK  status: ('A' for Active; 'I' for Inactive)
REMARK    1  A    between atoms: C_2  and  C_4
REMARK    2  A    between atoms: C_8  and  C_10
REMARK    3  A    between atoms: C_14  and  S_15
REMARK    4  A    between atoms: S_15  and  C_16
REMARK                            x       y       z     vdW  Elec       q    Type
REMARK                         _______ _______ _______ _____ _____    ______ ____
ROOT
ATOM      1  C   UNL     1      12.898   4.761   6.099  0.00  0.00    +0.093 C 
ATOM      2  C   UNL     1      13.352   6.113   5.538  0.00  0.00    +0.033 C 
ATOM      3  C   UNL     1      14.071   6.807   6.687  0.00  0.00    +0.109 C 
ATOM      4  N   UNL     1      13.464   6.247   7.876  0.00  0.00    -0.297 N 
ATOM      5  C   UNL     1      13.438   6.945   9.077  0.00  0.00    +0.247 C 
ATOM      6  O   UNL     1      13.856   8.100   9.157  0.00  0.00    -0.270 OA
ATOM      7  C   UNL     1      13.063   4.875   7.609  0.00  0.00    +0.120 C 
ENDROOT
BRANCH   5   8
ATOM      8  C   UNL     1      12.830   6.339  10.307  0.00  0.00    +0.038 A 
ATOM      9  C   UNL     1      11.507   6.559  10.702  0.00  0.00    +0.013 A 
ATOM     10  C   UNL     1      11.030   6.072  11.919  0.00  0.00    +0.002 A 
ATOM     11  C   UNL     1      11.843   5.267  12.709  0.00  0.00    +0.015 A 
ATOM     12  C   UNL     1      13.123   4.917  12.271  0.00  0.00    +0.017 A 
ATOM     13  C   UNL     1      13.625   5.484  11.090  0.00  0.00    +0.028 A 
BRANCH  12  14
ATOM     14  S   UNL     1      14.134   3.796  13.215  0.00  0.00    -0.016 S 
BRANCH  14  15
ATOM     15  C   UNL     1      13.698   4.267  14.902  0.00  0.00    +0.448 C 
ATOM     16  F   UNL     1      14.756   4.353  15.742  0.00  0.00    -0.160 F 
ATOM     17  F   UNL     1      13.077   5.471  14.922  0.00  0.00    -0.160 F 
ATOM     18  F   UNL     1      12.839   3.367  15.442  0.00  0.00    -0.160 F 
ENDBRANCH  14  15
ENDBRANCH  12  14
ENDBRANCH   5   8
BRANCH   1  20
ATOM     19  N   UNL     1      13.318   2.368   6.097  0.00  0.00    -0.329 N 
ATOM     20  C   UNL     1      13.642   3.566   5.532  0.00  0.00    +0.215 C 
ATOM     21  O   UNL     1      14.517   3.628   4.681  0.00  0.00    -0.276 OA
ATOM     22  H   UNL     1      13.841   1.554   5.797  0.00  0.00    +0.145 HD
ATOM     23  H   UNL     1      12.655   2.269   6.852  0.00  0.00    +0.145 HD
ENDBRANCH   1  20
TORSDOF 4
ENDMDL
MODEL 2
REMARK VINA RESULT:      -7.3      3.541      5.292
REMARK  Name = ZINC000826139982
REMARK  4 active torsions:
REMARK  status: ('A' for Active; 'I' for Inactive)
REMARK    1  A    between atoms: C_2  and  C_4
REMARK    2  A    between atoms: C_8  and  C_10
REMARK    3  A    between atoms: C_14  and  S_15
REMARK    4  A    between atoms: S_15  and  C_16
REMARK                            x       y       z     vdW  Elec       q    Type
REMARK                         _______ _______ _______ _____ _____    ______ ____
ROOT
ATOM      1  C   UNL     1      16.941   3.850   9.032  0.00  0.00    +0.093 C 
ATOM      2  C   UNL     1      17.114   2.597   8.166  0.00  0.00    +0.033 C 
ATOM      3  C   UNL     1      16.590   2.981   6.789  0.00  0.00    +0.109 C 
ATOM      4  N   UNL     1      15.616   4.019   7.057  0.00  0.00    -0.297 N 
ATOM      5  C   UNL     1      14.561   4.267   6.187  0.00  0.00    +0.247 C 
ATOM      6  O   UNL     1      14.364   3.561   5.198  0.00  0.00    -0.270 OA
ATOM      7  C   UNL     1      16.024   4.769   8.233  0.00  0.00    +0.120 C 
ENDROOT
BRANCH   5   8
ATOM      8  C   UNL     1      13.576   5.364   6.464  0.00  0.00    +0.038 A 
ATOM      9  C   UNL     1      13.421   6.487   5.646  0.00  0.00    +0.013 A 
ATOM     10  C   UNL     1      12.580   7.536   6.016  0.00  0.00    +0.002 A 
ATOM     11  C   UNL     1      11.799   7.426   7.162  0.00  0.00    +0.015 A 
ATOM     12  C   UNL     1      11.832   6.254   7.923  0.00  0.00    +0.017 A 
ATOM     13  C   UNL     1      12.746   5.244   7.592  0.00  0.00    +0.028 A 
BRANCH  12  14
ATOM     14  S   UNL     1      10.755   6.051   9.327  0.00  0.00    -0.016 S 
BRANCH  14  15
ATOM     15  C   UNL     1      11.884   6.414  10.689  0.00  0.00    +0.448 C 
ATOM     16  F   UNL     1      11.337   7.166  11.673  0.00  0.00    -0.160 F 
ATOM     17  F   UNL     1      12.330   5.272  11.264  0.00  0.00    -0.160 F 
ATOM     18  F   UNL     1      12.973   7.085  10.239  0.00  0.00    -0.160 F 
ENDBRANCH  14  15
ENDBRANCH  12  14
ENDBRANCH   5   8
BRANCH   1  20
ATOM     19  N   UNL     1      19.346   3.735   9.353  0.00  0.00    -0.329 N 
ATOM     20  C   UNL     1      18.241   4.532   9.413  0.00  0.00    +0.215 C 
ATOM     21  O   UNL     1      18.335   5.684   9.811  0.00  0.00    -0.276 OA
ATOM     22  H   UNL     1      20.224   4.131   9.666  0.00  0.00    +0.145 HD
ATOM     23  H   UNL     1      19.316   2.758   9.101  0.00  0.00    +0.145 HD
ENDBRANCH   1  20
TORSDOF 4
ENDMDL
MODEL 3
REMARK VINA RESULT:      -6.9      2.621      3.278
REMARK  Name = ZINC000826139982
REMARK  4 active torsions:
REMARK  status: ('A' for Active; 'I' for Inactive)
REMARK    1  A    between atoms: C_2  and  C_4
REMARK    2  A    between atoms: C_8  and  C_10
REMARK    3  A    between atoms: C_14  and  S_15
REMARK    4  A    between atoms: S_15  and  C_16
REMARK                            x       y       z     vdW  Elec       q    Type
REMARK                         _______ _______ _______ _____ _____    ______ ____
ROOT
ATOM      1  C   UNL     1      15.217   3.219   4.724  0.00  0.00    +0.093 C 
ATOM      2  C   UNL     1      15.592   4.413   3.839  0.00  0.00    +0.033 C 
ATOM      3  C   UNL     1      15.494   5.634   4.744  0.00  0.00    +0.109 C 
ATOM      4  N   UNL     1      14.517   5.257   5.744  0.00  0.00    -0.297 N 
ATOM      5  C   UNL     1      13.762   6.210   6.418  0.00  0.00    +0.247 C 
ATOM      6  O   UNL     1      13.835   7.405   6.133  0.00  0.00    -0.270 OA
ATOM      7  C   UNL     1      14.596   3.824   5.977  0.00  0.00    +0.120 C 
ENDROOT
BRANCH   5   8
ATOM      8  C   UNL     1      12.774   5.806   7.471  0.00  0.00    +0.038 A 
ATOM      9  C   UNL     1      11.468   5.394   7.186  0.00  0.00    +0.013 A 
ATOM     10  C   UNL     1      10.553   5.149   8.209  0.00  0.00    +0.002 A 
ATOM     11  C   UNL     1      10.964   5.209   9.536  0.00  0.00    +0.015 A 
ATOM     12  C   UNL     1      12.300   5.482   9.844  0.00  0.00    +0.017 A 
ATOM     13  C   UNL     1      13.190   5.815   8.813  0.00  0.00    +0.028 A 
BRANCH  12  14
ATOM     14  S   UNL     1      12.869   5.450  11.532  0.00  0.00    -0.016 S 
BRANCH  14  15
ATOM     15  C   UNL     1      14.097   4.129  11.463  0.00  0.00    +0.448 C 
ATOM     16  F   UNL     1      13.745   3.089  10.670  0.00  0.00    -0.160 F 
ATOM     17  F   UNL     1      15.283   4.595  11.003  0.00  0.00    -0.160 F 
ATOM     18  F   UNL     1      14.322   3.622  12.700  0.00  0.00    -0.160 F 
ENDBRANCH  14  15
ENDBRANCH  12  14
ENDBRANCH   5   8
BRANCH   1  20
ATOM     19  N   UNL     1      16.398   1.837   6.336  0.00  0.00    -0.329 N 
ATOM     20  C   UNL     1      16.375   2.294   5.051  0.00  0.00    +0.215 C 
ATOM     21  O   UNL     1      17.276   2.003   4.278  0.00  0.00    -0.276 OA
ATOM     22  H   UNL     1      17.191   1.273   6.616  0.00  0.00    +0.145 HD
ATOM     23  H   UNL     1      15.720   2.103   7.035  0.00  0.00    +0.145 HD
ENDBRANCH   1  20
TORSDOF 4
ENDMDL
MODEL 4
REMARK VINA RESULT:      -6.9     21.368     22.837
REMARK  Name = ZINC000826139982
REMARK  4 active torsions:
REMARK  status: ('A' for Active; 'I' for Inactive)
REMARK    1  A    between atoms: C_2  and  C_4
REMARK    2  A    between atoms: C_8  and  C_10
REMARK    3  A    between atoms: C_14  and  S_15
REMARK    4  A    between atoms: S_15  and  C_16
REMARK                            x       y       z     vdW  Elec       q    Type
REMARK                         _______ _______ _______ _____ _____    ______ ____
ROOT
ATOM      1  C   UNL     1      29.593  20.955  17.490  0.00  0.00    +0.093 C 
ATOM      2  C   UNL     1      29.909  22.286  16.799  0.00  0.00    +0.033 C 
ATOM      3  C   UNL     1      30.022  21.956  15.317  0.00  0.00    +0.109 C 
ATOM      4  N   UNL     1      30.435  20.568  15.293  0.00  0.00    -0.297 N 
ATOM      5  C   UNL     1      31.141  20.038  14.220  0.00  0.00    +0.247 C 
ATOM      6  O   UNL     1      31.516  20.746  13.285  0.00  0.00    -0.270 OA
ATOM      7  C   UNL     1      29.877  19.881  16.447  0.00  0.00    +0.120 C 
ENDROOT
BRANCH   5   8
ATOM      8  C   UNL     1      31.537  18.591  14.197  0.00  0.00    +0.038 A 
ATOM      9  C   UNL     1      32.862  18.156  14.090  0.00  0.00    +0.013 A 
ATOM     10  C   UNL     1      33.164  16.802  13.950  0.00  0.00    +0.002 A 
ATOM     11  C   UNL     1      32.148  15.855  14.021  0.00  0.00    +0.015 A 
ATOM     12  C   UNL     1      30.832  16.255  14.268  0.00  0.00    +0.017 A 
ATOM     13  C   UNL     1      30.526  17.623  14.318  0.00  0.00    +0.028 A 
BRANCH  12  14
ATOM     14  S   UNL     1      29.538  15.049  14.476  0.00  0.00    -0.016 S 
BRANCH  14  15
ATOM     15  C   UNL     1      29.147  14.655  12.758  0.00  0.00    +0.448 C 
ATOM     16  F   UNL     1      28.067  13.852  12.608  0.00  0.00    -0.160 F 
ATOM     17  F   UNL     1      28.905  15.782  12.047  0.00  0.00    -0.160 F 
ATOM     18  F   UNL     1      30.191  14.025  12.164  0.00  0.00    -0.160 F 
ENDBRANCH  14  15
ENDBRANCH  12  14
ENDBRANCH   5   8
BRANCH   1  20
ATOM     19  N   UNL     1      27.467  19.784  17.595  0.00  0.00    -0.329 N 
ATOM     20  C   UNL     1      28.183  20.855  18.042  0.00  0.00    +0.215 C 
ATOM     21  O   UNL     1      27.662  21.677  18.780  0.00  0.00    -0.276 OA
ATOM     22  H   UNL     1      26.499  19.716  17.884  0.00  0.00    +0.145 HD
ATOM     23  H   UNL     1      27.823  19.114  16.929  0.00  0.00    +0.145 HD
ENDBRANCH   1  20
TORSDOF 4
ENDMDL
MODEL 5
REMARK VINA RESULT:      -6.8      5.419      7.738
REMARK  Name = ZINC000826139982
REMARK  4 active torsions:
REMARK  status: ('A' for Active; 'I' for Inactive)
REMARK    1  A    between atoms: C_2  and  C_4
REMARK    2  A    between atoms: C_8  and  C_10
REMARK    3  A    between atoms: C_14  and  S_15
REMARK    4  A    between atoms: S_15  and  C_16
REMARK                            x       y       z     vdW  Elec       q    Type
REMARK                         _______ _______ _______ _____ _____    ______ ____
ROOT
ATOM      1  C   UNL     1      12.697   4.757  10.319  0.00  0.00    +0.093 C 
ATOM      2  C   UNL     1      13.784   4.829  11.397  0.00  0.00    +0.033 C 
ATOM      3  C   UNL     1      15.097   4.975  10.638  0.00  0.00    +0.109 C 
ATOM      4  N   UNL     1      14.841   4.342   9.361  0.00  0.00    -0.297 N 
ATOM      5  C   UNL     1      15.869   3.798   8.601  0.00  0.00    +0.247 C 
ATOM      6  O   UNL     1      17.025   3.757   9.020  0.00  0.00    -0.270 OA
ATOM      7  C   UNL     1      13.441   4.517   9.011  0.00  0.00    +0.120 C 
ENDROOT
BRANCH   5   8
ATOM      8  C   UNL     1      15.591   3.171   7.267  0.00  0.00    +0.038 A 
ATOM      9  C   UNL     1      15.081   1.878   7.113  0.00  0.00    +0.013 A 
ATOM     10  C   UNL     1      14.958   1.299   5.851  0.00  0.00    +0.002 A 
ATOM     11  C   UNL     1      15.245   2.048   4.714  0.00  0.00    +0.015 A 
ATOM     12  C   UNL     1      15.623   3.388   4.835  0.00  0.00    +0.017 A 
ATOM     13  C   UNL     1      15.830   3.933   6.111  0.00  0.00    +0.028 A 
BRANCH  12  14
ATOM     14  S   UNL     1      15.884   4.394   3.388  0.00  0.00    -0.016 S 
BRANCH  14  15
ATOM     15  C   UNL     1      14.401   5.422   3.405  0.00  0.00    +0.448 C 
ATOM     16  F   UNL     1      14.096   5.970   2.205  0.00  0.00    -0.160 F 
ATOM     17  F   UNL     1      13.321   4.705   3.799  0.00  0.00    -0.160 F 
ATOM     18  F   UNL     1      14.541   6.447   4.281  0.00  0.00    -0.160 F 
ENDBRANCH  14  15
ENDBRANCH  12  14
ENDBRANCH   5   8
BRANCH   1  20
ATOM     19  N   UNL     1      10.467   5.709  10.175  0.00  0.00    -0.329 N 
ATOM     20  C   UNL     1      11.801   5.980  10.250  0.00  0.00    +0.215 C 
ATOM     21  O   UNL     1      12.199   7.134  10.199  0.00  0.00    -0.276 OA
ATOM     22  H   UNL     1       9.838   6.494  10.058  0.00  0.00    +0.145 HD
ATOM     23  H   UNL     1      10.088   4.774  10.141  0.00  0.00    +0.145 HD
ENDBRANCH   1  20
TORSDOF 4
ENDMDL
MODEL 6
REMARK VINA RESULT:      -6.8      4.248      5.119
REMARK  Name = ZINC000826139982
REMARK  4 active torsions:
REMARK  status: ('A' for Active; 'I' for Inactive)
REMARK    1  A    between atoms: C_2  and  C_4
REMARK    2  A    between atoms: C_8  and  C_10
REMARK    3  A    between atoms: C_14  and  S_15
REMARK    4  A    between atoms: S_15  and  C_16
REMARK                            x       y       z     vdW  Elec       q    Type
REMARK                         _______ _______ _______ _____ _____    ______ ____
ROOT
ATOM      1  C   UNL     1      15.905   4.293   6.781  0.00  0.00    +0.093 C 
ATOM      2  C   UNL     1      16.552   2.971   7.208  0.00  0.00    +0.033 C 
ATOM      3  C   UNL     1      15.485   2.239   8.011  0.00  0.00    +0.109 C 
ATOM      4  N   UNL     1      14.662   3.299   8.556  0.00  0.00    -0.297 N 
ATOM      5  C   UNL     1      13.932   3.124   9.726  0.00  0.00    +0.247 C 
ATOM      6  O   UNL     1      14.021   2.091  10.389  0.00  0.00    -0.270 OA
ATOM      7  C   UNL     1      14.646   4.419   7.629  0.00  0.00    +0.120 C 
ENDROOT
BRANCH   5   8
ATOM      8  C   UNL     1      13.062   4.222  10.262  0.00  0.00    +0.038 A 
ATOM      9  C   UNL     1      13.297   4.866  11.481  0.00  0.00    +0.013 A 
ATOM     10  C   UNL     1      12.389   5.793  11.990  0.00  0.00    +0.002 A 
ATOM     11  C   UNL     1      11.283   6.167  11.235  0.00  0.00    +0.015 A 
ATOM     12  C   UNL     1      11.099   5.641   9.953  0.00  0.00    +0.017 A 
ATOM     13  C   UNL     1      11.969   4.644   9.487  0.00  0.00    +0.028 A 
BRANCH  12  14
ATOM     14  S   UNL     1       9.753   6.193   8.927  0.00  0.00    -0.016 S 
BRANCH  14  15
ATOM     15  C   UNL     1      10.636   6.722   7.444  0.00  0.00    +0.448 C 
ATOM     16  F   UNL     1      11.096   5.701   6.682  0.00  0.00    -0.160 F 
ATOM     17  F   UNL     1       9.840   7.480   6.652  0.00  0.00    -0.160 F 
ATOM     18  F   UNL     1      11.709   7.482   7.774  0.00  0.00    -0.160 F 
ENDBRANCH  14  15
ENDBRANCH  12  14
ENDBRANCH   5   8
BRANCH   1  20
ATOM     19  N   UNL     1      15.567   5.664   4.804  0.00  0.00    -0.329 N 
ATOM     20  C   UNL     1      15.605   4.393   5.297  0.00  0.00    +0.215 C 
ATOM     21  O   UNL     1      15.348   3.444   4.571  0.00  0.00    -0.276 OA
ATOM     22  H   UNL     1      15.302   5.780   3.834  0.00  0.00    +0.145 HD
ATOM     23  H   UNL     1      15.700   6.487   5.374  0.00  0.00    +0.145 HD
ENDBRANCH   1  20
TORSDOF 4
ENDMDL
MODEL 7
REMARK VINA RESULT:      -6.8      2.888      3.872
REMARK  Name = ZINC000826139982
REMARK  4 active torsions:
REMARK  status: ('A' for Active; 'I' for Inactive)
REMARK    1  A    between atoms: C_2  and  C_4
REMARK    2  A    between atoms: C_8  and  C_10
REMARK    3  A    between atoms: C_14  and  S_15
REMARK    4  A    between atoms: S_15  and  C_16
REMARK                            x       y       z     vdW  Elec       q    Type
REMARK                         _______ _______ _______ _____ _____    ______ ____
ROOT
ATOM      1  C   UNL     1      15.579   2.897   4.533  0.00  0.00    +0.093 C 
ATOM      2  C   UNL     1      15.412   3.968   3.449  0.00  0.00    +0.033 C 
ATOM      3  C   UNL     1      15.724   5.291   4.136  0.00  0.00    +0.109 C 
ATOM      4  N   UNL     1      15.390   5.057   5.526  0.00  0.00    -0.297 N 
ATOM      5  C   UNL     1      15.029   6.099   6.371  0.00  0.00    +0.247 C 
ATOM      6  O   UNL     1      14.898   7.249   5.954  0.00  0.00    -0.270 OA
ATOM      7  C   UNL     1      15.636   3.661   5.850  0.00  0.00    +0.120 C 
ENDROOT
BRANCH   5   8
ATOM      8  C   UNL     1      14.712   5.844   7.815  0.00  0.00    +0.038 A 
ATOM      9  C   UNL     1      15.665   5.903   8.836  0.00  0.00    +0.013 A 
ATOM     10  C   UNL     1      15.343   5.536  10.142  0.00  0.00    +0.002 A 
ATOM     11  C   UNL     1      14.032   5.206  10.466  0.00  0.00    +0.015 A 
ATOM     12  C   UNL     1      13.031   5.274   9.492  0.00  0.00    +0.017 A 
ATOM     13  C   UNL     1      13.381   5.556   8.164  0.00  0.00    +0.028 A 
BRANCH  12  14
ATOM     14  S   UNL     1      11.329   4.964   9.914  0.00  0.00    -0.016 S 
BRANCH  14  15
ATOM     15  C   UNL     1      11.157   5.947  11.419  0.00  0.00    +0.448 C 
ATOM     16  F   UNL     1      11.805   5.432  12.490  0.00  0.00    -0.160 F 
ATOM     17  F   UNL     1      11.632   7.202  11.232  0.00  0.00    -0.160 F 
ATOM     18  F   UNL     1       9.851   6.062  11.766  0.00  0.00    -0.160 F 
ENDBRANCH  14  15
ENDBRANCH  12  14
ENDBRANCH   5   8
BRANCH   1  20
ATOM     19  N   UNL     1      16.866   0.954   5.219  0.00  0.00    -0.329 N 
ATOM     20  C   UNL     1      16.785   1.997   4.343  0.00  0.00    +0.215 C 
ATOM     21  O   UNL     1      17.675   2.184   3.527  0.00  0.00    -0.276 OA
ATOM     22  H   UNL     1      17.690   0.369   5.173  0.00  0.00    +0.145 HD
ATOM     23  H   UNL     1      16.197   0.794   5.958  0.00  0.00    +0.145 HD
ENDBRANCH   1  20
TORSDOF 4
ENDMDL
MODEL 8
REMARK VINA RESULT:      -6.7      2.896      4.737
REMARK  Name = ZINC000826139982
REMARK  4 active torsions:
REMARK  status: ('A' for Active; 'I' for Inactive)
REMARK    1  A    between atoms: C_2  and  C_4
REMARK    2  A    between atoms: C_8  and  C_10
REMARK    3  A    between atoms: C_14  and  S_15
REMARK    4  A    between atoms: S_15  and  C_16
REMARK                            x       y       z     vdW  Elec       q    Type
REMARK                         _______ _______ _______ _____ _____    ______ ____
ROOT
ATOM      1  C   UNL     1      15.450   1.401   7.250  0.00  0.00    +0.093 C 
ATOM      2  C   UNL     1      15.122   0.798   5.880  0.00  0.00    +0.033 C 
ATOM      3  C   UNL     1      14.858   1.988   4.967  0.00  0.00    +0.109 C 
ATOM      4  N   UNL     1      14.392   3.026   5.863  0.00  0.00    -0.297 N 
ATOM      5  C   UNL     1      13.569   4.054   5.418  0.00  0.00    +0.247 C 
ATOM      6  O   UNL     1      13.136   4.078   4.267  0.00  0.00    -0.270 OA
ATOM      7  C   UNL     1      15.028   2.863   7.160  0.00  0.00    +0.120 C 
ENDROOT
BRANCH   5   8
ATOM      8  C   UNL     1      13.117   5.137   6.353  0.00  0.00    +0.038 A 
ATOM      9  C   UNL     1      13.417   6.491   6.167  0.00  0.00    +0.013 A 
ATOM     10  C   UNL     1      13.078   7.440   7.130  0.00  0.00    +0.002 A 
ATOM     11  C   UNL     1      12.340   7.062   8.246  0.00  0.00    +0.015 A 
ATOM     12  C   UNL     1      11.907   5.740   8.386  0.00  0.00    +0.017 A 
ATOM     13  C   UNL     1      12.329   4.776   7.458  0.00  0.00    +0.028 A 
BRANCH  12  14
ATOM     14  S   UNL     1      10.865   5.263   9.749  0.00  0.00    -0.016 S 
BRANCH  14  15
ATOM     15  C   UNL     1      11.844   5.832  11.155  0.00  0.00    +0.448 C 
ATOM     16  F   UNL     1      11.697   7.149  11.432  0.00  0.00    -0.160 F 
ATOM     17  F   UNL     1      11.516   5.151  12.279  0.00  0.00    -0.160 F 
ATOM     18  F   UNL     1      13.165   5.622  10.932  0.00  0.00    -0.160 F 
ENDBRANCH  14  15
ENDBRANCH  12  14
ENDBRANCH   5   8
BRANCH   1  20
ATOM     19  N   UNL     1      17.085   0.798   8.943  0.00  0.00    -0.329 N 
ATOM     20  C   UNL     1      16.901   1.251   7.670  0.00  0.00    +0.215 C 
ATOM     21  O   UNL     1      17.862   1.558   6.981  0.00  0.00    -0.276 OA
ATOM     22  H   UNL     1      18.036   0.749   9.287  0.00  0.00    +0.145 HD
ATOM     23  H   UNL     1      16.327   0.598   9.579  0.00  0.00    +0.145 HD
ENDBRANCH   1  20
TORSDOF 4
ENDMDL
MODEL 9
REMARK VINA RESULT:      -6.7     22.248     23.701
REMARK  Name = ZINC000826139982
REMARK  4 active torsions:
REMARK  status: ('A' for Active; 'I' for Inactive)
REMARK    1  A    between atoms: C_2  and  C_4
REMARK    2  A    between atoms: C_8  and  C_10
REMARK    3  A    between atoms: C_14  and  S_15
REMARK    4  A    between atoms: S_15  and  C_16
REMARK                            x       y       z     vdW  Elec       q    Type
REMARK                         _______ _______ _______ _____ _____    ______ ____
ROOT
ATOM      1  C   UNL     1      29.849  21.494  17.723  0.00  0.00    +0.093 C 
ATOM      2  C   UNL     1      30.377  22.683  16.911  0.00  0.00    +0.033 C 
ATOM      3  C   UNL     1      30.293  22.247  15.455  0.00  0.00    +0.109 C 
ATOM      4  N   UNL     1      30.402  20.804  15.508  0.00  0.00    -0.297 N 
ATOM      5  C   UNL     1      30.888  20.071  14.432  0.00  0.00    +0.247 C 
ATOM      6  O   UNL     1      31.321  20.624  13.422  0.00  0.00    -0.270 OA
ATOM      7  C   UNL     1      29.813  20.324  16.748  0.00  0.00    +0.120 C 
ENDROOT
BRANCH   5   8
ATOM      8  C   UNL     1      30.969  18.574  14.494  0.00  0.00    +0.038 A 
ATOM      9  C   UNL     1      29.974  17.770  15.059  0.00  0.00    +0.013 A 
ATOM     10  C   UNL     1      30.157  16.396  15.201  0.00  0.00    +0.002 A 
ATOM     11  C   UNL     1      31.295  15.790  14.682  0.00  0.00    +0.015 A 
ATOM     12  C   UNL     1      32.240  16.552  13.988  0.00  0.00    +0.017 A 
ATOM     13  C   UNL     1      32.091  17.945  13.929  0.00  0.00    +0.028 A 
BRANCH  12  14
ATOM     14  S   UNL     1      33.646  15.777  13.218  0.00  0.00    -0.016 S 
BRANCH  14  15
ATOM     15  C   UNL     1      32.914  15.166  11.685  0.00  0.00    +0.448 C 
ATOM     16  F   UNL     1      33.765  15.157  10.632  0.00  0.00    -0.160 F 
ATOM     17  F   UNL     1      32.458  13.900  11.838  0.00  0.00    -0.160 F 
ATOM     18  F   UNL     1      31.852  15.930  11.327  0.00  0.00    -0.160 F 
ENDBRANCH  14  15
ENDBRANCH  12  14
ENDBRANCH   5   8
BRANCH   1  20
ATOM     19  N   UNL     1      28.372  22.940  18.999  0.00  0.00    -0.329 N 
ATOM     20  C   UNL     1      28.502  21.733  18.379  0.00  0.00    +0.215 C 
ATOM     21  O   UNL     1      27.596  20.915  18.429  0.00  0.00    -0.276 OA
ATOM     22  H   UNL     1      27.514  23.113  19.509  0.00  0.00    +0.145 HD
ATOM     23  H   UNL     1      29.113  23.624  19.050  0.00  0.00    +0.145 HD
ENDBRANCH   1  20
TORSDOF 4
ENDMDL
