MODEL 1
REMARK VINA RESULT:      -6.5      0.000      0.000
REMARK  Name = ZINC000870248439
REMARK  2 active torsions:
REMARK  status: ('A' for Active; 'I' for Inactive)
REMARK    1  A    between atoms: C_2  and  C_4
REMARK    2  A    between atoms: C_7  and  C_8
REMARK                            x       y       z     vdW  Elec       q    Type
REMARK                         _______ _______ _______ _____ _____    ______ ____
ROOT
ATOM      1  C   UNL     1      32.181  21.764  13.775  0.00  0.00    +0.247 C 
ATOM      2  O   UNL     1      32.753  20.693  13.976  0.00  0.00    -0.270 OA
ATOM      3  N   UNL     1      32.596  22.684  12.803  0.00  0.00    -0.297 N 
ATOM      4  C   UNL     1      31.952  23.962  12.506  0.00  0.00    +0.108 C 
ATOM      5  C   UNL     1      31.809  24.236  11.023  0.00  0.00    +0.026 C 
ATOM      6  C   UNL     1      33.135  24.073  10.260  0.00  0.00    -0.025 C 
ATOM      7  C   UNL     1      32.811  24.153   8.750  0.00  0.00    +0.017 C 
ATOM      8  C   UNL     1      34.028  24.068   7.838  0.00  0.00    +0.069 C 
ATOM      9  S   UNL     1      35.223  25.399   8.145  0.00  0.00    -0.161 S 
ATOM     10  C   UNL     1      35.427  25.212   9.936  0.00  0.00    +0.069 C 
ATOM     11  C   UNL     1      34.085  25.233  10.652  0.00  0.00    +0.017 C 
ATOM     12  C   UNL     1      33.712  22.675  10.618  0.00  0.00    +0.026 C 
ATOM     13  C   UNL     1      33.864  22.456  12.122  0.00  0.00    +0.108 C 
ENDROOT
BRANCH   1  17
ATOM     14  C   UNL     1      28.793  22.373  16.303  0.00  0.00    +0.037 A 
ATOM     15  C   UNL     1      28.695  21.488  15.228  0.00  0.00    +0.014 A 
ATOM     16  C   UNL     1      29.754  21.376  14.336  0.00  0.00    +0.014 A 
ATOM     17  C   UNL     1      30.958  22.054  14.569  0.00  0.00    +0.037 A 
ATOM     18  C   UNL     1      31.033  22.989  15.606  0.00  0.00    +0.014 A 
ATOM     19  C   UNL     1      29.943  23.157  16.466  0.00  0.00    +0.014 A 
BRANCH  14  21
ATOM     20  N   UNL     1      27.980  22.979  18.510  0.00  0.00    -0.325 N 
ATOM     21  C   UNL     1      27.673  22.499  17.264  0.00  0.00    +0.242 C 
ATOM     22  O   UNL     1      26.524  22.216  16.948  0.00  0.00    -0.270 OA
ATOM     23  H   UNL     1      27.185  23.148  19.121  0.00  0.00    +0.145 HD
ATOM     24  H   UNL     1      28.836  23.468  18.708  0.00  0.00    +0.145 HD
ENDBRANCH  14  21
ENDBRANCH   1  17
TORSDOF 2
ENDMDL
MODEL 2
REMARK VINA RESULT:      -6.4      0.602      1.190
REMARK  Name = ZINC000870248439
REMARK  2 active torsions:
REMARK  status: ('A' for Active; 'I' for Inactive)
REMARK    1  A    between atoms: C_2  and  C_4
REMARK    2  A    between atoms: C_7  and  C_8
REMARK                            x       y       z     vdW  Elec       q    Type
REMARK                         _______ _______ _______ _____ _____    ______ ____
ROOT
ATOM      1  C   UNL     1      32.128  21.239  13.299  0.00  0.00    +0.247 C 
ATOM      2  O   UNL     1      32.476  20.079  13.080  0.00  0.00    -0.270 OA
ATOM      3  N   UNL     1      32.595  22.333  12.558  0.00  0.00    -0.297 N 
ATOM      4  C   UNL     1      32.208  23.727  12.758  0.00  0.00    +0.108 C 
ATOM      5  C   UNL     1      31.926  24.467  11.466  0.00  0.00    +0.026 C 
ATOM      6  C   UNL     1      33.067  24.330  10.443  0.00  0.00    -0.025 C 
ATOM      7  C   UNL     1      32.565  24.926   9.108  0.00  0.00    +0.017 C 
ATOM      8  C   UNL     1      33.596  24.927   7.988  0.00  0.00    +0.069 C 
ATOM      9  S   UNL     1      35.082  25.880   8.411  0.00  0.00    -0.161 S 
ATOM     10  C   UNL     1      35.485  25.116  10.004  0.00  0.00    +0.069 C 
ATOM     11  C   UNL     1      34.291  25.137  10.947  0.00  0.00    +0.017 C 
ATOM     12  C   UNL     1      33.371  22.814  10.280  0.00  0.00    +0.026 C 
ATOM     13  C   UNL     1      33.678  22.118  11.605  0.00  0.00    +0.108 C 
ENDROOT
BRANCH   1  17
ATOM     14  C   UNL     1      29.088  22.150  16.157  0.00  0.00    +0.037 A 
ATOM     15  C   UNL     1      30.371  22.670  16.333  0.00  0.00    +0.014 A 
ATOM     16  C   UNL     1      31.390  22.283  15.472  0.00  0.00    +0.014 A 
ATOM     17  C   UNL     1      31.117  21.467  14.366  0.00  0.00    +0.037 A 
ATOM     18  C   UNL     1      29.850  20.893  14.228  0.00  0.00    +0.014 A 
ATOM     19  C   UNL     1      28.838  21.227  15.133  0.00  0.00    +0.014 A 
BRANCH  14  21
ATOM     20  N   UNL     1      28.345  23.277  18.177  0.00  0.00    -0.325 N 
ATOM     21  C   UNL     1      27.991  22.558  17.065  0.00  0.00    +0.242 C 
ATOM     22  O   UNL     1      26.822  22.291  16.817  0.00  0.00    -0.270 OA
ATOM     23  H   UNL     1      27.571  23.629  18.734  0.00  0.00    +0.145 HD
ATOM     24  H   UNL     1      29.234  23.738  18.265  0.00  0.00    +0.145 HD
ENDBRANCH  14  21
ENDBRANCH   1  17
TORSDOF 2
ENDMDL
MODEL 3
REMARK VINA RESULT:      -6.4      6.150      8.693
REMARK  Name = ZINC000870248439
REMARK  2 active torsions:
REMARK  status: ('A' for Active; 'I' for Inactive)
REMARK    1  A    between atoms: C_2  and  C_4
REMARK    2  A    between atoms: C_7  and  C_8
REMARK                            x       y       z     vdW  Elec       q    Type
REMARK                         _______ _______ _______ _____ _____    ______ ____
ROOT
ATOM      1  C   UNL     1      32.330  23.858  18.257  0.00  0.00    +0.247 C 
ATOM      2  O   UNL     1      32.822  24.798  17.632  0.00  0.00    -0.270 OA
ATOM      3  N   UNL     1      33.004  23.184  19.284  0.00  0.00    -0.297 N 
ATOM      4  C   UNL     1      32.471  22.075  20.071  0.00  0.00    +0.108 C 
ATOM      5  C   UNL     1      32.755  22.196  21.555  0.00  0.00    +0.026 C 
ATOM      6  C   UNL     1      34.243  22.446  21.855  0.00  0.00    -0.025 C 
ATOM      7  C   UNL     1      34.362  22.774  23.361  0.00  0.00    +0.017 C 
ATOM      8  C   UNL     1      35.787  22.996  23.849  0.00  0.00    +0.069 C 
ATOM      9  S   UNL     1      36.845  21.544  23.588  0.00  0.00    -0.161 S 
ATOM     10  C   UNL     1      36.533  21.258  21.826  0.00  0.00    +0.069 C 
ATOM     11  C   UNL     1      35.043  21.157  21.537  0.00  0.00    +0.017 C 
ATOM     12  C   UNL     1      34.695  23.662  20.997  0.00  0.00    +0.026 C 
ATOM     13  C   UNL     1      34.414  23.482  19.506  0.00  0.00    +0.108 C 
ENDROOT
BRANCH   1  17
ATOM     14  C   UNL     1      28.395  22.416  17.438  0.00  0.00    +0.037 A 
ATOM     15  C   UNL     1      29.311  22.536  16.393  0.00  0.00    +0.014 A 
ATOM     16  C   UNL     1      30.551  23.114  16.633  0.00  0.00    +0.014 A 
ATOM     17  C   UNL     1      30.932  23.470  17.933  0.00  0.00    +0.037 A 
ATOM     18  C   UNL     1      29.992  23.412  18.968  0.00  0.00    +0.014 A 
ATOM     19  C   UNL     1      28.718  22.894  18.715  0.00  0.00    +0.014 A 
BRANCH  14  21
ATOM     20  N   UNL     1      27.013  20.429  17.231  0.00  0.00    -0.325 N 
ATOM     21  C   UNL     1      27.070  21.798  17.196  0.00  0.00    +0.242 C 
ATOM     22  O   UNL     1      26.072  22.479  17.004  0.00  0.00    -0.270 OA
ATOM     23  H   UNL     1      26.081  20.029  17.159  0.00  0.00    +0.145 HD
ATOM     24  H   UNL     1      27.734  19.865  17.648  0.00  0.00    +0.145 HD
ENDBRANCH  14  21
ENDBRANCH   1  17
TORSDOF 2
ENDMDL
MODEL 4
REMARK VINA RESULT:      -6.2      4.154      7.633
REMARK  Name = ZINC000870248439
REMARK  2 active torsions:
REMARK  status: ('A' for Active; 'I' for Inactive)
REMARK    1  A    between atoms: C_2  and  C_4
REMARK    2  A    between atoms: C_7  and  C_8
REMARK                            x       y       z     vdW  Elec       q    Type
REMARK                         _______ _______ _______ _____ _____    ______ ____
ROOT
ATOM      1  C   UNL     1      31.067  23.406  13.313  0.00  0.00    +0.247 C 
ATOM      2  O   UNL     1      30.020  22.762  13.246  0.00  0.00    -0.270 OA
ATOM      3  N   UNL     1      31.840  23.492  14.478  0.00  0.00    -0.297 N 
ATOM      4  C   UNL     1      33.096  24.225  14.617  0.00  0.00    +0.108 C 
ATOM      5  C   UNL     1      34.164  23.456  15.368  0.00  0.00    +0.026 C 
ATOM      6  C   UNL     1      33.666  22.914  16.719  0.00  0.00    -0.025 C 
ATOM      7  C   UNL     1      34.759  21.970  17.270  0.00  0.00    +0.017 C 
ATOM      8  C   UNL     1      34.454  21.383  18.642  0.00  0.00    +0.069 C 
ATOM      9  S   UNL     1      34.237  22.661  19.913  0.00  0.00    -0.161 S 
ATOM     10  C   UNL     1      33.004  23.701  19.086  0.00  0.00    +0.069 C 
ATOM     11  C   UNL     1      33.464  24.104  17.693  0.00  0.00    +0.017 C 
ATOM     12  C   UNL     1      32.352  22.126  16.451  0.00  0.00    +0.026 C 
ATOM     13  C   UNL     1      31.296  22.951  15.718  0.00  0.00    +0.108 C 
ENDROOT
BRANCH   1  17
ATOM     14  C   UNL     1      32.726  25.442   9.945  0.00  0.00    +0.037 A 
ATOM     15  C   UNL     1      31.656  26.015  10.633  0.00  0.00    +0.014 A 
ATOM     16  C   UNL     1      31.038  25.304  11.654  0.00  0.00    +0.014 A 
ATOM     17  C   UNL     1      31.551  24.069  12.073  0.00  0.00    +0.037 A 
ATOM     18  C   UNL     1      32.579  23.465  11.343  0.00  0.00    +0.014 A 
ATOM     19  C   UNL     1      33.158  24.149  10.270  0.00  0.00    +0.014 A 
BRANCH  14  21
ATOM     20  N   UNL     1      33.313  25.658   7.598  0.00  0.00    -0.325 N 
ATOM     21  C   UNL     1      33.396  26.192   8.858  0.00  0.00    +0.242 C 
ATOM     22  O   UNL     1      33.970  27.252   9.071  0.00  0.00    -0.270 OA
ATOM     23  H   UNL     1      33.695  26.235   6.853  0.00  0.00    +0.145 HD
ATOM     24  H   UNL     1      32.635  24.958   7.348  0.00  0.00    +0.145 HD
ENDBRANCH  14  21
ENDBRANCH   1  17
TORSDOF 2
ENDMDL
MODEL 5
REMARK VINA RESULT:      -6.2      4.625      6.964
REMARK  Name = ZINC000870248439
REMARK  2 active torsions:
REMARK  status: ('A' for Active; 'I' for Inactive)
REMARK    1  A    between atoms: C_2  and  C_4
REMARK    2  A    between atoms: C_7  and  C_8
REMARK                            x       y       z     vdW  Elec       q    Type
REMARK                         _______ _______ _______ _____ _____    ______ ____
ROOT
ATOM      1  C   UNL     1      30.296  21.408  14.934  0.00  0.00    +0.247 C 
ATOM      2  O   UNL     1      29.133  21.809  14.974  0.00  0.00    -0.270 OA
ATOM      3  N   UNL     1      31.361  22.082  15.546  0.00  0.00    -0.297 N 
ATOM      4  C   UNL     1      32.757  21.651  15.548  0.00  0.00    +0.108 C 
ATOM      5  C   UNL     1      33.430  21.787  16.899  0.00  0.00    +0.026 C 
ATOM      6  C   UNL     1      33.265  23.191  17.505  0.00  0.00    -0.025 C 
ATOM      7  C   UNL     1      33.788  23.132  18.958  0.00  0.00    +0.017 C 
ATOM      8  C   UNL     1      33.753  24.463  19.698  0.00  0.00    +0.069 C 
ATOM      9  S   UNL     1      34.750  25.740  18.879  0.00  0.00    -0.161 S 
ATOM     10  C   UNL     1      34.070  25.624  17.204  0.00  0.00    +0.069 C 
ATOM     11  C   UNL     1      34.116  24.195  16.684  0.00  0.00    +0.017 C 
ATOM     12  C   UNL     1      31.748  23.533  17.488  0.00  0.00    +0.026 C 
ATOM     13  C   UNL     1      31.121  23.410  16.100  0.00  0.00    +0.108 C 
ENDROOT
BRANCH   1  17
ATOM     14  C   UNL     1      31.312  17.640  13.201  0.00  0.00    +0.037 A 
ATOM     15  C   UNL     1      31.761  18.814  12.597  0.00  0.00    +0.014 A 
ATOM     16  C   UNL     1      31.337  20.042  13.089  0.00  0.00    +0.014 A 
ATOM     17  C   UNL     1      30.557  20.114  14.251  0.00  0.00    +0.037 A 
ATOM     18  C   UNL     1      30.053  18.939  14.817  0.00  0.00    +0.014 A 
ATOM     19  C   UNL     1      30.422  17.701  14.282  0.00  0.00    +0.014 A 
BRANCH  14  21
ATOM     20  N   UNL     1      33.106  16.068  12.739  0.00  0.00    -0.325 N 
ATOM     21  C   UNL     1      31.760  16.324  12.689  0.00  0.00    +0.242 C 
ATOM     22  O   UNL     1      30.963  15.495  12.270  0.00  0.00    -0.270 OA
ATOM     23  H   UNL     1      33.381  15.126  12.474  0.00  0.00    +0.145 HD
ATOM     24  H   UNL     1      33.738  16.597  13.315  0.00  0.00    +0.145 HD
ENDBRANCH  14  21
ENDBRANCH   1  17
TORSDOF 2
ENDMDL
MODEL 6
REMARK VINA RESULT:      -6.1      5.587      6.417
REMARK  Name = ZINC000870248439
REMARK  2 active torsions:
REMARK  status: ('A' for Active; 'I' for Inactive)
REMARK    1  A    between atoms: C_2  and  C_4
REMARK    2  A    between atoms: C_7  and  C_8
REMARK                            x       y       z     vdW  Elec       q    Type
REMARK                         _______ _______ _______ _____ _____    ______ ____
ROOT
ATOM      1  C   UNL     1      31.117  16.906  13.846  0.00  0.00    +0.247 C 
ATOM      2  O   UNL     1      30.755  16.198  12.907  0.00  0.00    -0.270 OA
ATOM      3  N   UNL     1      32.461  17.068  14.210  0.00  0.00    -0.297 N 
ATOM      4  C   UNL     1      32.955  17.903  15.302  0.00  0.00    +0.108 C 
ATOM      5  C   UNL     1      34.173  18.723  14.931  0.00  0.00    +0.026 C 
ATOM      6  C   UNL     1      35.295  17.872  14.310  0.00  0.00    -0.025 C 
ATOM      7  C   UNL     1      36.370  18.844  13.773  0.00  0.00    +0.017 C 
ATOM      8  C   UNL     1      37.592  18.164  13.171  0.00  0.00    +0.069 C 
ATOM      9  S   UNL     1      38.456  17.102  14.363  0.00  0.00    -0.161 S 
ATOM     10  C   UNL     1      37.061  16.098  14.936  0.00  0.00    +0.069 C 
ATOM     11  C   UNL     1      35.909  16.971  15.412  0.00  0.00    +0.017 C 
ATOM     12  C   UNL     1      34.670  17.055  13.143  0.00  0.00    +0.026 C 
ATOM     13  C   UNL     1      33.463  16.223  13.572  0.00  0.00    +0.108 C 
ENDROOT
BRANCH   1  17
ATOM     14  C   UNL     1      28.371  19.193  16.183  0.00  0.00    +0.037 A 
ATOM     15  C   UNL     1      28.453  17.814  16.379  0.00  0.00    +0.014 A 
ATOM     16  C   UNL     1      29.258  17.051  15.543  0.00  0.00    +0.014 A 
ATOM     17  C   UNL     1      30.072  17.666  14.582  0.00  0.00    +0.037 A 
ATOM     18  C   UNL     1      29.940  19.037  14.341  0.00  0.00    +0.014 A 
ATOM     19  C   UNL     1      29.078  19.798  15.136  0.00  0.00    +0.014 A 
BRANCH  14  21
ATOM     20  N   UNL     1      26.756  19.350  17.992  0.00  0.00    -0.325 N 
ATOM     21  C   UNL     1      27.520  20.019  17.071  0.00  0.00    +0.242 C 
ATOM     22  O   UNL     1      27.523  21.241  17.005  0.00  0.00    -0.270 OA
ATOM     23  H   UNL     1      26.255  19.937  18.653  0.00  0.00    +0.145 HD
ATOM     24  H   UNL     1      26.933  18.395  18.253  0.00  0.00    +0.145 HD
ENDBRANCH  14  21
ENDBRANCH   1  17
TORSDOF 2
ENDMDL
MODEL 7
REMARK VINA RESULT:      -6.0      5.890      7.311
REMARK  Name = ZINC000870248439
REMARK  2 active torsions:
REMARK  status: ('A' for Active; 'I' for Inactive)
REMARK    1  A    between atoms: C_2  and  C_4
REMARK    2  A    between atoms: C_7  and  C_8
REMARK                            x       y       z     vdW  Elec       q    Type
REMARK                         _______ _______ _______ _____ _____    ______ ____
ROOT
ATOM      1  C   UNL     1      32.050  16.646  13.265  0.00  0.00    +0.247 C 
ATOM      2  O   UNL     1      31.639  15.874  12.399  0.00  0.00    -0.270 OA
ATOM      3  N   UNL     1      33.322  16.540  13.844  0.00  0.00    -0.297 N 
ATOM      4  C   UNL     1      33.872  17.431  14.863  0.00  0.00    +0.108 C 
ATOM      5  C   UNL     1      35.310  17.832  14.601  0.00  0.00    +0.026 C 
ATOM      6  C   UNL     1      36.225  16.621  14.345  0.00  0.00    -0.025 C 
ATOM      7  C   UNL     1      37.592  17.168  13.872  0.00  0.00    +0.017 C 
ATOM      8  C   UNL     1      38.649  16.099  13.624  0.00  0.00    +0.069 C 
ATOM      9  S   UNL     1      39.009  15.121  15.110  0.00  0.00    -0.161 S 
ATOM     10  C   UNL     1      37.325  14.631  15.564  0.00  0.00    +0.069 C 
ATOM     11  C   UNL     1      36.406  15.839  15.671  0.00  0.00    +0.017 C 
ATOM     12  C   UNL     1      35.567  15.766  13.226  0.00  0.00    +0.026 C 
ATOM     13  C   UNL     1      34.128  15.363  13.548  0.00  0.00    +0.108 C 
ENDROOT
BRANCH   1  17
ATOM     14  C   UNL     1      29.769  19.990  14.626  0.00  0.00    +0.037 A 
ATOM     15  C   UNL     1      29.519  18.727  15.162  0.00  0.00    +0.014 A 
ATOM     16  C   UNL     1      30.175  17.619  14.641  0.00  0.00    +0.014 A 
ATOM     17  C   UNL     1      31.166  17.773  13.662  0.00  0.00    +0.037 A 
ATOM     18  C   UNL     1      31.369  19.027  13.078  0.00  0.00    +0.014 A 
ATOM     19  C   UNL     1      30.660  20.134  13.554  0.00  0.00    +0.014 A 
BRANCH  14  21
ATOM     20  N   UNL     1      29.409  22.392  14.629  0.00  0.00    -0.325 N 
ATOM     21  C   UNL     1      29.079  21.180  15.176  0.00  0.00    +0.242 C 
ATOM     22  O   UNL     1      28.234  21.079  16.056  0.00  0.00    -0.270 OA
ATOM     23  H   UNL     1      28.856  23.182  14.953  0.00  0.00    +0.145 HD
ATOM     24  H   UNL     1      29.877  22.479  13.743  0.00  0.00    +0.145 HD
ENDBRANCH  14  21
ENDBRANCH   1  17
TORSDOF 2
ENDMDL
MODEL 8
REMARK VINA RESULT:      -6.0      4.168      4.987
REMARK  Name = ZINC000870248439
REMARK  2 active torsions:
REMARK  status: ('A' for Active; 'I' for Inactive)
REMARK    1  A    between atoms: C_2  and  C_4
REMARK    2  A    between atoms: C_7  and  C_8
REMARK                            x       y       z     vdW  Elec       q    Type
REMARK                         _______ _______ _______ _____ _____    ______ ____
ROOT
ATOM      1  C   UNL     1      29.817  17.914  14.729  0.00  0.00    +0.247 C 
ATOM      2  O   UNL     1      29.182  16.863  14.644  0.00  0.00    -0.270 OA
ATOM      3  N   UNL     1      31.054  18.114  14.102  0.00  0.00    -0.297 N 
ATOM      4  C   UNL     1      31.848  19.340  14.151  0.00  0.00    +0.108 C 
ATOM      5  C   UNL     1      32.424  19.740  12.808  0.00  0.00    +0.026 C 
ATOM      6  C   UNL     1      33.187  18.592  12.124  0.00  0.00    -0.025 C 
ATOM      7  C   UNL     1      33.521  19.052  10.687  0.00  0.00    +0.017 C 
ATOM      8  C   UNL     1      34.334  18.051   9.876  0.00  0.00    +0.069 C 
ATOM      9  S   UNL     1      35.934  17.670  10.644  0.00  0.00    -0.161 S 
ATOM     10  C   UNL     1      35.371  17.232  12.309  0.00  0.00    +0.069 C 
ATOM     11  C   UNL     1      34.499  18.326  12.906  0.00  0.00    +0.017 C 
ATOM     12  C   UNL     1      32.244  17.357  12.093  0.00  0.00    +0.026 C 
ATOM     13  C   UNL     1      31.711  16.974  13.473  0.00  0.00    +0.108 C 
ENDROOT
BRANCH   1  17
ATOM     14  C   UNL     1      27.755  21.088  16.706  0.00  0.00    +0.037 A 
ATOM     15  C   UNL     1      28.670  21.390  15.698  0.00  0.00    +0.014 A 
ATOM     16  C   UNL     1      29.428  20.371  15.133  0.00  0.00    +0.014 A 
ATOM     17  C   UNL     1      29.200  19.035  15.486  0.00  0.00    +0.037 A 
ATOM     18  C   UNL     1      28.333  18.738  16.542  0.00  0.00    +0.014 A 
ATOM     19  C   UNL     1      27.619  19.769  17.160  0.00  0.00    +0.014 A 
BRANCH  14  21
ATOM     20  N   UNL     1      27.526  22.900  18.308  0.00  0.00    -0.325 N 
ATOM     21  C   UNL     1      26.937  22.164  17.313  0.00  0.00    +0.242 C 
ATOM     22  O   UNL     1      25.802  22.402  16.922  0.00  0.00    -0.270 OA
ATOM     23  H   UNL     1      26.985  23.692  18.643  0.00  0.00    +0.145 HD
ATOM     24  H   UNL     1      28.520  22.914  18.457  0.00  0.00    +0.145 HD
ENDBRANCH  14  21
ENDBRANCH   1  17
TORSDOF 2
ENDMDL
MODEL 9
REMARK VINA RESULT:      -5.9      4.191      5.424
REMARK  Name = ZINC000870248439
REMARK  2 active torsions:
REMARK  status: ('A' for Active; 'I' for Inactive)
REMARK    1  A    between atoms: C_2  and  C_4
REMARK    2  A    between atoms: C_7  and  C_8
REMARK                            x       y       z     vdW  Elec       q    Type
REMARK                         _______ _______ _______ _____ _____    ______ ____
ROOT
ATOM      1  C   UNL     1      32.086  23.299  14.940  0.00  0.00    +0.247 C 
ATOM      2  O   UNL     1      32.105  23.339  13.709  0.00  0.00    -0.270 OA
ATOM      3  N   UNL     1      33.137  23.768  15.738  0.00  0.00    -0.297 N 
ATOM      4  C   UNL     1      33.168  23.763  17.199  0.00  0.00    +0.108 C 
ATOM      5  C   UNL     1      33.694  25.052  17.796  0.00  0.00    +0.026 C 
ATOM      6  C   UNL     1      35.047  25.474  17.197  0.00  0.00    -0.025 C 
ATOM      7  C   UNL     1      35.358  26.898  17.714  0.00  0.00    +0.017 C 
ATOM      8  C   UNL     1      36.701  27.456  17.262  0.00  0.00    +0.069 C 
ATOM      9  S   UNL     1      38.098  26.431  17.805  0.00  0.00    -0.161 S 
ATOM     10  C   UNL     1      37.543  24.818  17.194  0.00  0.00    +0.069 C 
ATOM     11  C   UNL     1      36.141  24.491  17.687  0.00  0.00    +0.017 C 
ATOM     12  C   UNL     1      34.893  25.481  15.650  0.00  0.00    +0.026 C 
ATOM     13  C   UNL     1      34.387  24.151  15.092  0.00  0.00    +0.108 C 
ENDROOT
BRANCH   1  17
ATOM     14  C   UNL     1      28.365  21.995  16.582  0.00  0.00    +0.037 A 
ATOM     15  C   UNL     1      29.050  23.049  17.188  0.00  0.00    +0.014 A 
ATOM     16  C   UNL     1      30.313  23.399  16.729  0.00  0.00    +0.014 A 
ATOM     17  C   UNL     1      30.856  22.781  15.595  0.00  0.00    +0.037 A 
ATOM     18  C   UNL     1      30.202  21.682  15.028  0.00  0.00    +0.014 A 
ATOM     19  C   UNL     1      28.960  21.282  15.532  0.00  0.00    +0.014 A 
BRANCH  14  21
ATOM     20  N   UNL     1      26.149  22.639  17.339  0.00  0.00    -0.325 N 
ATOM     21  C   UNL     1      27.016  21.615  17.059  0.00  0.00    +0.242 C 
ATOM     22  O   UNL     1      26.682  20.442  17.167  0.00  0.00    -0.270 OA
ATOM     23  H   UNL     1      25.201  22.357  17.572  0.00  0.00    +0.145 HD
ATOM     24  H   UNL     1      26.291  23.577  17.007  0.00  0.00    +0.145 HD
ENDBRANCH  14  21
ENDBRANCH   1  17
TORSDOF 2
ENDMDL
