MODEL 1
REMARK VINA RESULT:      -6.6      0.000      0.000
REMARK  Name = ZINC000435351830
REMARK  5 active torsions:
REMARK  status: ('A' for Active; 'I' for Inactive)
REMARK    1  A    between atoms: C_2  and  C_3
REMARK    2  A    between atoms: C_7  and  C_8
REMARK    3  A    between atoms: C_8  and  C_9
REMARK    4  A    between atoms: N_11  and  C_12
REMARK    5  A    between atoms: C_12  and  C_13
REMARK                            x       y       z     vdW  Elec       q    Type
REMARK                         _______ _______ _______ _____ _____    ______ ____
ROOT
ATOM      1  C   UNL     1      31.227  23.488  15.356  0.00  0.00    +0.224 C 
ATOM      2  O   UNL     1      32.204  24.042  15.847  0.00  0.00    -0.275 OA
ATOM      3  N   UNL     1      30.602  23.892  14.205  0.00  0.00    -0.309 N 
ATOM      4  H   UNL     1      29.822  23.362  13.844  0.00  0.00    +0.149 HD
ENDROOT
BRANCH   1   5
ATOM      5  C   UNL     1      30.585  22.311  16.045  0.00  0.00    +0.072 C 
ATOM      6  C   UNL     1      29.975  22.522  17.426  0.00  0.00    +0.022 C 
ATOM      7  C   UNL     1      29.066  22.372  16.251  0.00  0.00    +0.022 C 
BRANCH   5  12
ATOM      8  C   UNL     1      32.370  18.919  16.206  0.00  0.00    +0.052 A 
ATOM      9  C   UNL     1      32.245  18.454  14.896  0.00  0.00    +0.019 A 
ATOM     10  C   UNL     1      31.533  19.203  13.960  0.00  0.00    +0.002 A 
ATOM     11  C   UNL     1      30.968  20.429  14.323  0.00  0.00    +0.005 A 
ATOM     12  C   UNL     1      31.105  20.937  15.626  0.00  0.00    -0.031 A 
ATOM     13  C   UNL     1      31.791  20.140  16.563  0.00  0.00    +0.023 A 
BRANCH   8  15
ATOM     14  N   UNL     1      33.707  17.566  17.968  0.00  0.00    -0.191 NA
ATOM     15  C   UNL     1      33.115  18.175  17.174  0.00  0.00    +0.099 C 
ENDBRANCH   8  15
ENDBRANCH   5  12
ENDBRANCH   1   5
BRANCH   3  16
ATOM     16  C   UNL     1      31.002  25.095  13.507  0.00  0.00    +0.159 C 
BRANCH  16  17
ATOM     17  C   UNL     1      31.781  24.819  12.241  0.00  0.00    +0.058 A 
ATOM     18  C   UNL     1      31.660  25.671  11.141  0.00  0.00    +0.028 A 
ATOM     19  C   UNL     1      32.369  25.382   9.976  0.00  0.00    +0.042 A 
ATOM     20  C   UNL     1      33.177  24.258   9.950  0.00  0.00    +0.141 A 
ATOM     21  F   UNL     1      33.867  23.945   8.846  0.00  0.00    -0.204 F 
ATOM     22  C   UNL     1      33.258  23.466  11.081  0.00  0.00    +0.149 A 
ATOM     23  N   UNL     1      32.584  23.721  12.229  0.00  0.00    -0.255 NA
ENDBRANCH  16  17
ENDBRANCH   3  16
TORSDOF 5
ENDMDL
MODEL 2
REMARK VINA RESULT:      -6.6      2.501      3.044
REMARK  Name = ZINC000435351830
REMARK  5 active torsions:
REMARK  status: ('A' for Active; 'I' for Inactive)
REMARK    1  A    between atoms: C_2  and  C_3
REMARK    2  A    between atoms: C_7  and  C_8
REMARK    3  A    between atoms: C_8  and  C_9
REMARK    4  A    between atoms: N_11  and  C_12
REMARK    5  A    between atoms: C_12  and  C_13
REMARK                            x       y       z     vdW  Elec       q    Type
REMARK                         _______ _______ _______ _____ _____    ______ ____
ROOT
ATOM      1  C   UNL     1      30.207  22.903  15.148  0.00  0.00    +0.224 C 
ATOM      2  O   UNL     1      29.960  22.076  14.276  0.00  0.00    -0.275 OA
ATOM      3  N   UNL     1      30.585  24.197  14.905  0.00  0.00    -0.309 N 
ATOM      4  H   UNL     1      30.738  24.830  15.677  0.00  0.00    +0.149 HD
ENDROOT
BRANCH   1   5
ATOM      5  C   UNL     1      30.165  22.518  16.604  0.00  0.00    +0.072 C 
ATOM      6  C   UNL     1      29.148  23.204  17.509  0.00  0.00    +0.022 C 
ATOM      7  C   UNL     1      28.908  21.790  17.095  0.00  0.00    +0.022 C 
BRANCH   5  12
ATOM      8  C   UNL     1      32.925  20.037  17.579  0.00  0.00    +0.052 A 
ATOM      9  C   UNL     1      33.783  20.829  18.343  0.00  0.00    +0.019 A 
ATOM     10  C   UNL     1      33.510  22.188  18.505  0.00  0.00    +0.002 A 
ATOM     11  C   UNL     1      32.369  22.751  17.926  0.00  0.00    +0.005 A 
ATOM     12  C   UNL     1      31.471  21.969  17.178  0.00  0.00    -0.031 A 
ATOM     13  C   UNL     1      31.793  20.611  16.993  0.00  0.00    +0.023 A 
BRANCH   8  15
ATOM     14  N   UNL     1      33.386  17.500  17.304  0.00  0.00    -0.191 NA
ATOM     15  C   UNL     1      33.177  18.638  17.419  0.00  0.00    +0.099 C 
ENDBRANCH   8  15
ENDBRANCH   5  12
ENDBRANCH   1   5
BRANCH   3  16
ATOM     16  C   UNL     1      30.819  24.680  13.561  0.00  0.00    +0.159 C 
BRANCH  16  17
ATOM     17  C   UNL     1      31.949  25.681  13.475  0.00  0.00    +0.058 A 
ATOM     18  C   UNL     1      31.842  26.792  12.635  0.00  0.00    +0.028 A 
ATOM     19  C   UNL     1      32.907  27.688  12.553  0.00  0.00    +0.042 A 
ATOM     20  C   UNL     1      34.038  27.448  13.314  0.00  0.00    +0.141 A 
ATOM     21  F   UNL     1      35.084  28.283  13.255  0.00  0.00    -0.204 F 
ATOM     22  C   UNL     1      34.070  26.334  14.133  0.00  0.00    +0.149 A 
ATOM     23  N   UNL     1      33.051  25.447  14.237  0.00  0.00    -0.255 NA
ENDBRANCH  16  17
ENDBRANCH   3  16
TORSDOF 5
ENDMDL
MODEL 3
REMARK VINA RESULT:      -6.5      2.531      2.829
REMARK  Name = ZINC000435351830
REMARK  5 active torsions:
REMARK  status: ('A' for Active; 'I' for Inactive)
REMARK    1  A    between atoms: C_2  and  C_3
REMARK    2  A    between atoms: C_7  and  C_8
REMARK    3  A    between atoms: C_8  and  C_9
REMARK    4  A    between atoms: N_11  and  C_12
REMARK    5  A    between atoms: C_12  and  C_13
REMARK                            x       y       z     vdW  Elec       q    Type
REMARK                         _______ _______ _______ _____ _____    ______ ____
ROOT
ATOM      1  C   UNL     1      30.207  23.091  15.069  0.00  0.00    +0.224 C 
ATOM      2  O   UNL     1      29.858  22.355  14.152  0.00  0.00    -0.275 OA
ATOM      3  N   UNL     1      30.641  24.381  14.906  0.00  0.00    -0.309 N 
ATOM      4  H   UNL     1      30.878  24.937  15.715  0.00  0.00    +0.149 HD
ENDROOT
BRANCH   1   5
ATOM      5  C   UNL     1      30.239  22.587  16.489  0.00  0.00    +0.072 C 
ATOM      6  C   UNL     1      29.925  23.565  17.615  0.00  0.00    +0.022 C 
ATOM      7  C   UNL     1      28.903  22.543  17.240  0.00  0.00    +0.022 C 
BRANCH   5  12
ATOM      8  C   UNL     1      33.237  20.487  17.639  0.00  0.00    +0.052 A 
ATOM      9  C   UNL     1      32.942  19.230  17.109  0.00  0.00    +0.019 A 
ATOM     10  C   UNL     1      31.744  19.031  16.423  0.00  0.00    +0.002 A 
ATOM     11  C   UNL     1      30.852  20.093  16.243  0.00  0.00    +0.005 A 
ATOM     12  C   UNL     1      31.138  21.377  16.739  0.00  0.00    -0.031 A 
ATOM     13  C   UNL     1      32.333  21.539  17.465  0.00  0.00    +0.023 A 
BRANCH   8  15
ATOM     14  N   UNL     1      35.473  20.885  18.889  0.00  0.00    -0.191 NA
ATOM     15  C   UNL     1      34.471  20.715  18.327  0.00  0.00    +0.099 C 
ENDBRANCH   8  15
ENDBRANCH   5  12
ENDBRANCH   1   5
BRANCH   3  16
ATOM     16  C   UNL     1      30.814  24.963  13.593  0.00  0.00    +0.159 C 
BRANCH  16  17
ATOM     17  C   UNL     1      32.012  25.880  13.500  0.00  0.00    +0.058 A 
ATOM     18  C   UNL     1      32.001  26.965  12.619  0.00  0.00    +0.028 A 
ATOM     19  C   UNL     1      33.128  27.781  12.532  0.00  0.00    +0.042 A 
ATOM     20  C   UNL     1      34.222  27.492  13.329  0.00  0.00    +0.141 A 
ATOM     21  F   UNL     1      35.324  28.251  13.267  0.00  0.00    -0.204 F 
ATOM     22  C   UNL     1      34.158  26.410  14.187  0.00  0.00    +0.149 A 
ATOM     23  N   UNL     1      33.078  25.599  14.297  0.00  0.00    -0.255 NA
ENDBRANCH  16  17
ENDBRANCH   3  16
TORSDOF 5
ENDMDL
MODEL 4
REMARK VINA RESULT:      -6.5      3.740      6.933
REMARK  Name = ZINC000435351830
REMARK  5 active torsions:
REMARK  status: ('A' for Active; 'I' for Inactive)
REMARK    1  A    between atoms: C_2  and  C_3
REMARK    2  A    between atoms: C_7  and  C_8
REMARK    3  A    between atoms: C_8  and  C_9
REMARK    4  A    between atoms: N_11  and  C_12
REMARK    5  A    between atoms: C_12  and  C_13
REMARK                            x       y       z     vdW  Elec       q    Type
REMARK                         _______ _______ _______ _____ _____    ______ ____
ROOT
ATOM      1  C   UNL     1      31.695  24.185  13.772  0.00  0.00    +0.224 C 
ATOM      2  O   UNL     1      32.734  24.063  14.411  0.00  0.00    -0.275 OA
ATOM      3  N   UNL     1      30.575  23.417  13.957  0.00  0.00    -0.309 N 
ATOM      4  H   UNL     1      29.744  23.601  13.413  0.00  0.00    +0.149 HD
ENDROOT
BRANCH   1   5
ATOM      5  C   UNL     1      31.595  25.190  12.652  0.00  0.00    +0.072 C 
ATOM      6  C   UNL     1      30.477  26.225  12.702  0.00  0.00    +0.022 C 
ATOM      7  C   UNL     1      31.874  26.655  13.008  0.00  0.00    +0.022 C 
BRANCH   5  12
ATOM      8  C   UNL     1      33.607  23.179  10.078  0.00  0.00    +0.052 A 
ATOM      9  C   UNL     1      33.452  23.939   8.918  0.00  0.00    +0.019 A 
ATOM     10  C   UNL     1      32.649  25.080   8.939  0.00  0.00    +0.002 A 
ATOM     11  C   UNL     1      32.021  25.476  10.124  0.00  0.00    +0.005 A 
ATOM     12  C   UNL     1      32.186  24.747  11.315  0.00  0.00    -0.031 A 
ATOM     13  C   UNL     1      32.965  23.576  11.254  0.00  0.00    +0.023 A 
BRANCH   8  15
ATOM     14  N   UNL     1      35.129  21.079  10.069  0.00  0.00    -0.191 NA
ATOM     15  C   UNL     1      34.444  22.018  10.080  0.00  0.00    +0.099 C 
ENDBRANCH   8  15
ENDBRANCH   5  12
ENDBRANCH   1   5
BRANCH   3  16
ATOM     16  C   UNL     1      30.561  22.309  14.887  0.00  0.00    +0.159 C 
BRANCH  16  17
ATOM     17  C   UNL     1      29.921  22.651  16.213  0.00  0.00    +0.058 A 
ATOM     18  C   UNL     1      28.762  21.989  16.627  0.00  0.00    +0.028 A 
ATOM     19  C   UNL     1      28.175  22.341  17.842  0.00  0.00    +0.042 A 
ATOM     20  C   UNL     1      28.766  23.334  18.604  0.00  0.00    +0.141 A 
ATOM     21  F   UNL     1      28.226  23.702  19.773  0.00  0.00    -0.204 F 
ATOM     22  C   UNL     1      29.919  23.938  18.137  0.00  0.00    +0.149 A 
ATOM     23  N   UNL     1      30.515  23.618  16.963  0.00  0.00    -0.255 NA
ENDBRANCH  16  17
ENDBRANCH   3  16
TORSDOF 5
ENDMDL
MODEL 5
REMARK VINA RESULT:      -6.4      2.462      4.221
REMARK  Name = ZINC000435351830
REMARK  5 active torsions:
REMARK  status: ('A' for Active; 'I' for Inactive)
REMARK    1  A    between atoms: C_2  and  C_3
REMARK    2  A    between atoms: C_7  and  C_8
REMARK    3  A    between atoms: C_8  and  C_9
REMARK    4  A    between atoms: N_11  and  C_12
REMARK    5  A    between atoms: C_12  and  C_13
REMARK                            x       y       z     vdW  Elec       q    Type
REMARK                         _______ _______ _______ _____ _____    ______ ____
ROOT
ATOM      1  C   UNL     1      33.009  21.375  14.588  0.00  0.00    +0.224 C 
ATOM      2  O   UNL     1      34.188  21.386  14.924  0.00  0.00    -0.275 OA
ATOM      3  N   UNL     1      32.520  21.965  13.452  0.00  0.00    -0.309 N 
ATOM      4  H   UNL     1      31.540  21.883  13.225  0.00  0.00    +0.149 HD
ENDROOT
BRANCH   1   5
ATOM      5  C   UNL     1      31.965  20.736  15.469  0.00  0.00    +0.072 C 
ATOM      6  C   UNL     1      31.366  19.403  15.036  0.00  0.00    +0.022 C 
ATOM      7  C   UNL     1      32.350  19.422  16.159  0.00  0.00    +0.022 C 
BRANCH   5  12
ATOM      8  C   UNL     1      29.023  22.303  17.368  0.00  0.00    +0.052 A 
ATOM      9  C   UNL     1      29.572  23.497  17.836  0.00  0.00    +0.019 A 
ATOM     10  C   UNL     1      30.915  23.785  17.594  0.00  0.00    +0.002 A 
ATOM     11  C   UNL     1      31.704  22.892  16.862  0.00  0.00    +0.005 A 
ATOM     12  C   UNL     1      31.169  21.697  16.350  0.00  0.00    -0.031 A 
ATOM     13  C   UNL     1      29.823  21.411  16.648  0.00  0.00    +0.023 A 
BRANCH   8  15
ATOM     14  N   UNL     1      26.518  21.771  17.772  0.00  0.00    -0.191 NA
ATOM     15  C   UNL     1      27.642  22.001  17.589  0.00  0.00    +0.099 C 
ENDBRANCH   8  15
ENDBRANCH   5  12
ENDBRANCH   1   5
BRANCH   3  16
ATOM     16  C   UNL     1      33.367  22.749  12.579  0.00  0.00    +0.159 C 
BRANCH  16  17
ATOM     17  C   UNL     1      33.050  24.227  12.610  0.00  0.00    +0.058 A 
ATOM     18  C   UNL     1      32.169  24.777  11.675  0.00  0.00    +0.028 A 
ATOM     19  C   UNL     1      31.913  26.147  11.706  0.00  0.00    +0.042 A 
ATOM     20  C   UNL     1      32.538  26.919  12.670  0.00  0.00    +0.141 A 
ATOM     21  F   UNL     1      32.320  28.239  12.726  0.00  0.00    -0.204 F 
ATOM     22  C   UNL     1      33.389  26.305  13.571  0.00  0.00    +0.149 A 
ATOM     23  N   UNL     1      33.657  24.976  13.569  0.00  0.00    -0.255 NA
ENDBRANCH  16  17
ENDBRANCH   3  16
TORSDOF 5
ENDMDL
MODEL 6
REMARK VINA RESULT:      -6.4      2.468      4.220
REMARK  Name = ZINC000435351830
REMARK  5 active torsions:
REMARK  status: ('A' for Active; 'I' for Inactive)
REMARK    1  A    between atoms: C_2  and  C_3
REMARK    2  A    between atoms: C_7  and  C_8
REMARK    3  A    between atoms: C_8  and  C_9
REMARK    4  A    between atoms: N_11  and  C_12
REMARK    5  A    between atoms: C_12  and  C_13
REMARK                            x       y       z     vdW  Elec       q    Type
REMARK                         _______ _______ _______ _____ _____    ______ ____
ROOT
ATOM      1  C   UNL     1      32.913  21.375  14.891  0.00  0.00    +0.224 C 
ATOM      2  O   UNL     1      34.103  21.356  15.186  0.00  0.00    -0.275 OA
ATOM      3  N   UNL     1      32.403  21.962  13.763  0.00  0.00    -0.309 N 
ATOM      4  H   UNL     1      31.413  21.907  13.570  0.00  0.00    +0.149 HD
ENDROOT
BRANCH   1   5
ATOM      5  C   UNL     1      31.882  20.782  15.817  0.00  0.00    +0.072 C 
ATOM      6  C   UNL     1      31.367  19.377  15.526  0.00  0.00    +0.022 C 
ATOM      7  C   UNL     1      32.318  19.578  16.660  0.00  0.00    +0.022 C 
BRANCH   5  12
ATOM      8  C   UNL     1      30.880  23.726  18.064  0.00  0.00    +0.052 A 
ATOM      9  C   UNL     1      29.492  23.603  18.115  0.00  0.00    +0.019 A 
ATOM     10  C   UNL     1      28.857  22.603  17.379  0.00  0.00    +0.002 A 
ATOM     11  C   UNL     1      29.609  21.709  16.611  0.00  0.00    +0.005 A 
ATOM     12  C   UNL     1      31.012  21.790  16.567  0.00  0.00    -0.031 A 
ATOM     13  C   UNL     1      31.624  22.836  17.283  0.00  0.00    +0.023 A 
BRANCH   8  15
ATOM     14  N   UNL     1      32.096  25.540  19.462  0.00  0.00    -0.191 NA
ATOM     15  C   UNL     1      31.551  24.732  18.829  0.00  0.00    +0.099 C 
ENDBRANCH   8  15
ENDBRANCH   5  12
ENDBRANCH   1   5
BRANCH   3  16
ATOM     16  C   UNL     1      33.243  22.706  12.849  0.00  0.00    +0.159 C 
BRANCH  16  17
ATOM     17  C   UNL     1      32.914  24.182  12.803  0.00  0.00    +0.058 A 
ATOM     18  C   UNL     1      32.120  24.693  11.773  0.00  0.00    +0.028 A 
ATOM     19  C   UNL     1      31.852  26.061  11.737  0.00  0.00    +0.042 A 
ATOM     20  C   UNL     1      32.379  26.869  12.730  0.00  0.00    +0.141 A 
ATOM     21  F   UNL     1      32.147  28.188  12.724  0.00  0.00    -0.204 F 
ATOM     22  C   UNL     1      33.146  26.292  13.725  0.00  0.00    +0.149 A 
ATOM     23  N   UNL     1      33.423  24.967  13.790  0.00  0.00    -0.255 NA
ENDBRANCH  16  17
ENDBRANCH   3  16
TORSDOF 5
ENDMDL
MODEL 7
REMARK VINA RESULT:      -6.3      4.704      6.776
REMARK  Name = ZINC000435351830
REMARK  5 active torsions:
REMARK  status: ('A' for Active; 'I' for Inactive)
REMARK    1  A    between atoms: C_2  and  C_3
REMARK    2  A    between atoms: C_7  and  C_8
REMARK    3  A    between atoms: C_8  and  C_9
REMARK    4  A    between atoms: N_11  and  C_12
REMARK    5  A    between atoms: C_12  and  C_13
REMARK                            x       y       z     vdW  Elec       q    Type
REMARK                         _______ _______ _______ _____ _____    ______ ____
ROOT
ATOM      1  C   UNL     1      31.669  22.879  16.833  0.00  0.00    +0.224 C 
ATOM      2  O   UNL     1      32.632  23.197  16.144  0.00  0.00    -0.275 OA
ATOM      3  N   UNL     1      31.457  23.309  18.116  0.00  0.00    -0.309 N 
ATOM      4  H   UNL     1      30.620  23.030  18.608  0.00  0.00    +0.149 HD
ENDROOT
BRANCH   1   5
ATOM      5  C   UNL     1      30.641  21.905  16.314  0.00  0.00    +0.072 C 
ATOM      6  C   UNL     1      29.224  21.980  16.870  0.00  0.00    +0.022 C 
ATOM      7  C   UNL     1      29.486  22.489  15.490  0.00  0.00    +0.022 C 
BRANCH   5  12
ATOM      8  C   UNL     1      32.506  18.556  16.165  0.00  0.00    +0.052 A 
ATOM      9  C   UNL     1      32.395  18.212  14.817  0.00  0.00    +0.019 A 
ATOM     10  C   UNL     1      31.667  19.029  13.951  0.00  0.00    +0.002 A 
ATOM     11  C   UNL     1      31.072  20.202  14.425  0.00  0.00    +0.005 A 
ATOM     12  C   UNL     1      31.195  20.589  15.771  0.00  0.00    -0.031 A 
ATOM     13  C   UNL     1      31.897  19.724  16.632  0.00  0.00    +0.023 A 
BRANCH   8  15
ATOM     14  N   UNL     1      33.871  17.076  17.799  0.00  0.00    -0.191 NA
ATOM     15  C   UNL     1      33.266  17.742  17.063  0.00  0.00    +0.099 C 
ENDBRANCH   8  15
ENDBRANCH   5  12
ENDBRANCH   1   5
BRANCH   3  16
ATOM     16  C   UNL     1      32.428  24.125  18.813  0.00  0.00    +0.159 C 
BRANCH  16  17
ATOM     17  C   UNL     1      32.309  24.040  20.318  0.00  0.00    +0.058 A 
ATOM     18  C   UNL     1      33.451  23.882  21.106  0.00  0.00    +0.028 A 
ATOM     19  C   UNL     1      33.314  23.780  22.490  0.00  0.00    +0.042 A 
ATOM     20  C   UNL     1      32.045  23.845  23.039  0.00  0.00    +0.141 A 
ATOM     21  F   UNL     1      31.874  23.743  24.364  0.00  0.00    -0.204 F 
ATOM     22  C   UNL     1      30.960  24.014  22.199  0.00  0.00    +0.149 A 
ATOM     23  N   UNL     1      31.059  24.119  20.851  0.00  0.00    -0.255 NA
ENDBRANCH  16  17
ENDBRANCH   3  16
TORSDOF 5
ENDMDL
MODEL 8
REMARK VINA RESULT:      -6.3      1.504      1.938
REMARK  Name = ZINC000435351830
REMARK  5 active torsions:
REMARK  status: ('A' for Active; 'I' for Inactive)
REMARK    1  A    between atoms: C_2  and  C_3
REMARK    2  A    between atoms: C_7  and  C_8
REMARK    3  A    between atoms: C_8  and  C_9
REMARK    4  A    between atoms: N_11  and  C_12
REMARK    5  A    between atoms: C_12  and  C_13
REMARK                            x       y       z     vdW  Elec       q    Type
REMARK                         _______ _______ _______ _____ _____    ______ ____
ROOT
ATOM      1  C   UNL     1      31.279  23.637  15.270  0.00  0.00    +0.224 C 
ATOM      2  O   UNL     1      32.284  24.187  15.705  0.00  0.00    -0.275 OA
ATOM      3  N   UNL     1      30.613  24.023  14.136  0.00  0.00    -0.309 N 
ATOM      4  H   UNL     1      29.810  23.497  13.821  0.00  0.00    +0.149 HD
ENDROOT
BRANCH   1   5
ATOM      5  C   UNL     1      30.646  22.490  16.016  0.00  0.00    +0.072 C 
ATOM      6  C   UNL     1      30.025  22.764  17.380  0.00  0.00    +0.022 C 
ATOM      7  C   UNL     1      29.126  22.541  16.209  0.00  0.00    +0.022 C 
BRANCH   5  12
ATOM      8  C   UNL     1      32.326  19.646  14.063  0.00  0.00    +0.052 A 
ATOM      9  C   UNL     1      32.083  18.540  14.879  0.00  0.00    +0.019 A 
ATOM     10  C   UNL     1      31.425  18.709  16.097  0.00  0.00    +0.002 A 
ATOM     11  C   UNL     1      30.985  19.976  16.490  0.00  0.00    +0.005 A 
ATOM     12  C   UNL     1      31.188  21.103  15.673  0.00  0.00    -0.031 A 
ATOM     13  C   UNL     1      31.894  20.912  14.470  0.00  0.00    +0.023 A 
BRANCH   8  15
ATOM     14  N   UNL     1      33.522  19.353  11.782  0.00  0.00    -0.191 NA
ATOM     15  C   UNL     1      32.980  19.489  12.801  0.00  0.00    +0.099 C 
ENDBRANCH   8  15
ENDBRANCH   5  12
ENDBRANCH   1   5
BRANCH   3  16
ATOM     16  C   UNL     1      31.002  25.200  13.391  0.00  0.00    +0.159 C 
BRANCH  16  17
ATOM     17  C   UNL     1      31.791  24.881  12.141  0.00  0.00    +0.058 A 
ATOM     18  C   UNL     1      31.696  25.708  11.019  0.00  0.00    +0.028 A 
ATOM     19  C   UNL     1      32.412  25.379   9.869  0.00  0.00    +0.042 A 
ATOM     20  C   UNL     1      33.202  24.242   9.879  0.00  0.00    +0.141 A 
ATOM     21  F   UNL     1      33.898  23.891   8.791  0.00  0.00    -0.204 F 
ATOM     22  C   UNL     1      33.257  23.476  11.030  0.00  0.00    +0.149 A 
ATOM     23  N   UNL     1      32.576  23.770  12.164  0.00  0.00    -0.255 NA
ENDBRANCH  16  17
ENDBRANCH   3  16
TORSDOF 5
ENDMDL
MODEL 9
REMARK VINA RESULT:      -6.3      2.312      3.218
REMARK  Name = ZINC000435351830
REMARK  5 active torsions:
REMARK  status: ('A' for Active; 'I' for Inactive)
REMARK    1  A    between atoms: C_2  and  C_3
REMARK    2  A    between atoms: C_7  and  C_8
REMARK    3  A    between atoms: C_8  and  C_9
REMARK    4  A    between atoms: N_11  and  C_12
REMARK    5  A    between atoms: C_12  and  C_13
REMARK                            x       y       z     vdW  Elec       q    Type
REMARK                         _______ _______ _______ _____ _____    ______ ____
ROOT
ATOM      1  C   UNL     1      33.339  24.753  17.028  0.00  0.00    +0.224 C 
ATOM      2  O   UNL     1      34.540  24.618  17.233  0.00  0.00    -0.275 OA
ATOM      3  N   UNL     1      32.804  25.374  15.930  0.00  0.00    -0.309 N 
ATOM      4  H   UNL     1      31.801  25.415  15.815  0.00  0.00    +0.149 HD
ENDROOT
BRANCH   1   5
ATOM      5  C   UNL     1      32.329  24.276  18.041  0.00  0.00    +0.072 C 
ATOM      6  C   UNL     1      32.732  24.247  19.511  0.00  0.00    +0.022 C 
ATOM      7  C   UNL     1      31.803  25.315  19.038  0.00  0.00    +0.022 C 
BRANCH   5  12
ATOM      8  C   UNL     1      30.699  21.115  16.604  0.00  0.00    +0.052 A 
ATOM      9  C   UNL     1      29.391  21.536  16.364  0.00  0.00    +0.019 A 
ATOM     10  C   UNL     1      29.003  22.829  16.717  0.00  0.00    +0.002 A 
ATOM     11  C   UNL     1      29.928  23.709  17.285  0.00  0.00    +0.005 A 
ATOM     12  C   UNL     1      31.261  23.322  17.508  0.00  0.00    -0.031 A 
ATOM     13  C   UNL     1      31.613  21.998  17.184  0.00  0.00    +0.023 A 
BRANCH   8  15
ATOM     14  N   UNL     1      31.465  18.728  15.939  0.00  0.00    -0.191 NA
ATOM     15  C   UNL     1      31.120  19.799  16.229  0.00  0.00    +0.099 C 
ENDBRANCH   8  15
ENDBRANCH   5  12
ENDBRANCH   1   5
BRANCH   3  16
ATOM     16  C   UNL     1      33.639  26.020  14.942  0.00  0.00    +0.159 C 
BRANCH  16  17
ATOM     17  C   UNL     1      33.093  25.912  13.536  0.00  0.00    +0.058 A 
ATOM     18  C   UNL     1      31.807  26.374  13.243  0.00  0.00    +0.028 A 
ATOM     19  C   UNL     1      31.315  26.240  11.946  0.00  0.00    +0.042 A 
ATOM     20  C   UNL     1      32.123  25.656  10.985  0.00  0.00    +0.141 A 
ATOM     21  F   UNL     1      31.681  25.504   9.730  0.00  0.00    -0.204 F 
ATOM     22  C   UNL     1      33.390  25.232  11.343  0.00  0.00    +0.149 A 
ATOM     23  N   UNL     1      33.898  25.350  12.594  0.00  0.00    -0.255 NA
ENDBRANCH  16  17
ENDBRANCH   3  16
TORSDOF 5
ENDMDL
