MODEL 1
REMARK VINA RESULT:      -6.7      0.000      0.000
REMARK  Name = ZINC000543478179
REMARK  8 active torsions:
REMARK  status: ('A' for Active; 'I' for Inactive)
REMARK    1  A    between atoms: C_1  and  C_2
REMARK    2  A    between atoms: C_2  and  N_3
REMARK    3  A    between atoms: N_9  and  C_10
REMARK    4  A    between atoms: C_10  and  C_11
REMARK    5  A    between atoms: C_10  and  C_12
REMARK    6  A    between atoms: C_15  and  O_16
REMARK    7  A    between atoms: O_16  and  C_17
REMARK    8  A    between atoms: C_17  and  C_18
REMARK                            x       y       z     vdW  Elec       q    Type
REMARK                         _______ _______ _______ _____ _____    ______ ____
ROOT
ATOM      1  C   UNL     1      30.139  22.603  14.228  0.00  0.00    +0.102 C 
ATOM      2  C   UNL     1      30.013  21.107  13.911  0.00  0.00    +0.033 C 
ENDROOT
BRANCH   1   9
ATOM      3  N   UNL     1      32.532  23.194  20.127  0.00  0.00    -0.299 N 
ATOM      4  C   UNL     1      31.182  22.630  20.086  0.00  0.00    +0.127 C 
ATOM      5  C   UNL     1      30.269  23.401  19.128  0.00  0.00    +0.129 C 
ATOM      6  N   UNL     1      30.851  23.382  17.789  0.00  0.00    -0.275 N 
ATOM      7  C   UNL     1      30.089  22.963  16.707  0.00  0.00    +0.303 C 
ATOM      8  O   UNL     1      28.913  22.639  16.802  0.00  0.00    -0.253 OA
ATOM      9  N   UNL     1      30.771  22.906  15.516  0.00  0.00    -0.293 N 
ATOM     10  C   UNL     1      32.250  23.806  17.721  0.00  0.00    +0.205 C 
ATOM     11  C   UNL     1      33.044  23.896  19.038  0.00  0.00    +0.233 C 
ATOM     12  O   UNL     1      34.145  24.448  19.065  0.00  0.00    -0.274 OA
ATOM     13  H   UNL     1      31.529  23.561  15.441  0.00  0.00    +0.151 HD
BRANCH   3  15
ATOM     14  C   UNL     1      32.754  21.913  22.227  0.00  0.00    +0.024 C 
ATOM     15  C   UNL     1      33.464  22.723  21.150  0.00  0.00    +0.104 C 
ENDBRANCH   3  15
ENDBRANCH   1   9
BRANCH   1  16
ATOM     16  C   UNL     1      30.955  23.292  13.141  0.00  0.00    -0.024 A 
ATOM     17  C   UNL     1      32.252  22.830  12.846  0.00  0.00    +0.009 A 
ATOM     18  C   UNL     1      33.058  23.486  11.920  0.00  0.00    +0.049 A 
ATOM     19  C   UNL     1      32.605  24.650  11.299  0.00  0.00    +0.156 A 
ATOM     20  C   UNL     1      31.296  25.079  11.536  0.00  0.00    +0.165 A 
ATOM     21  F   UNL     1      30.817  26.167  10.917  0.00  0.00    -0.202 F 
ATOM     22  C   UNL     1      30.474  24.412  12.451  0.00  0.00    +0.047 A 
BRANCH  19  23
ATOM     23  O   UNL     1      33.384  25.420  10.476  0.00  0.00    -0.489 OA
BRANCH  23  24
ATOM     24  C   UNL     1      33.924  24.723   9.349  0.00  0.00    +0.232 C 
BRANCH  24  25
ATOM     25  C   UNL     1      32.849  24.549   8.326  0.00  0.00    +0.027 C 
ATOM     26  C   UNL     1      32.701  23.240   7.596  0.00  0.00    +0.007 C 
ATOM     27  C   UNL     1      33.188  24.457   6.858  0.00  0.00    +0.007 C 
ENDBRANCH  24  25
ENDBRANCH  23  24
ENDBRANCH  19  23
ENDBRANCH   1  16
TORSDOF 6
ENDMDL
MODEL 2
REMARK VINA RESULT:      -6.3      1.084      1.475
REMARK  Name = ZINC000543478179
REMARK  8 active torsions:
REMARK  status: ('A' for Active; 'I' for Inactive)
REMARK    1  A    between atoms: C_1  and  C_2
REMARK    2  A    between atoms: C_2  and  N_3
REMARK    3  A    between atoms: N_9  and  C_10
REMARK    4  A    between atoms: C_10  and  C_11
REMARK    5  A    between atoms: C_10  and  C_12
REMARK    6  A    between atoms: C_15  and  O_16
REMARK    7  A    between atoms: O_16  and  C_17
REMARK    8  A    between atoms: C_17  and  C_18
REMARK                            x       y       z     vdW  Elec       q    Type
REMARK                         _______ _______ _______ _____ _____    ______ ____
ROOT
ATOM      1  C   UNL     1      30.389  23.078  14.258  0.00  0.00    +0.102 C 
ATOM      2  C   UNL     1      30.191  21.608  13.863  0.00  0.00    +0.033 C 
ENDROOT
BRANCH   1   9
ATOM      3  N   UNL     1      32.656  23.205  20.234  0.00  0.00    -0.299 N 
ATOM      4  C   UNL     1      31.328  22.602  20.115  0.00  0.00    +0.127 C 
ATOM      5  C   UNL     1      30.404  23.427  19.212  0.00  0.00    +0.129 C 
ATOM      6  N   UNL     1      31.010  23.551  17.889  0.00  0.00    -0.275 N 
ATOM      7  C   UNL     1      30.283  23.208  16.758  0.00  0.00    +0.303 C 
ATOM      8  O   UNL     1      29.118  22.837  16.799  0.00  0.00    -0.253 OA
ATOM      9  N   UNL     1      30.987  23.283  15.581  0.00  0.00    -0.293 N 
ATOM     10  C   UNL     1      32.395  24.026  17.890  0.00  0.00    +0.205 C 
ATOM     11  C   UNL     1      33.162  24.020  19.225  0.00  0.00    +0.233 C 
ATOM     12  O   UNL     1      34.242  24.604  19.325  0.00  0.00    -0.274 OA
ATOM     13  H   UNL     1      31.724  23.967  15.582  0.00  0.00    +0.151 HD
BRANCH   3  15
ATOM     14  C   UNL     1      32.858  21.902  22.323  0.00  0.00    +0.024 C 
ATOM     15  C   UNL     1      33.585  22.674  21.230  0.00  0.00    +0.104 C 
ENDBRANCH   3  15
ENDBRANCH   1   9
BRANCH   1  16
ATOM     16  C   UNL     1      31.284  23.769  13.236  0.00  0.00    -0.024 A 
ATOM     17  C   UNL     1      30.706  24.562  12.227  0.00  0.00    +0.009 A 
ATOM     18  C   UNL     1      31.484  25.138  11.227  0.00  0.00    +0.049 A 
ATOM     19  C   UNL     1      32.857  24.897  11.183  0.00  0.00    +0.156 A 
ATOM     20  C   UNL     1      33.449  24.165  12.216  0.00  0.00    +0.165 A 
ATOM     21  F   UNL     1      34.774  23.957  12.226  0.00  0.00    -0.202 F 
ATOM     22  C   UNL     1      32.675  23.600  13.235  0.00  0.00    +0.047 A 
BRANCH  19  23
ATOM     23  O   UNL     1      33.667  25.321  10.162  0.00  0.00    -0.489 OA
BRANCH  23  24
ATOM     24  C   UNL     1      33.205  24.969   8.855  0.00  0.00    +0.232 C 
BRANCH  24  25
ATOM     25  C   UNL     1      33.533  23.536   8.593  0.00  0.00    +0.027 C 
ATOM     26  C   UNL     1      33.731  23.047   7.182  0.00  0.00    +0.007 C 
ATOM     27  C   UNL     1      32.519  22.614   7.961  0.00  0.00    +0.007 C 
ENDBRANCH  24  25
ENDBRANCH  23  24
ENDBRANCH  19  23
ENDBRANCH   1  16
TORSDOF 6
ENDMDL
MODEL 3
REMARK VINA RESULT:      -6.0      3.686      9.065
REMARK  Name = ZINC000543478179
REMARK  8 active torsions:
REMARK  status: ('A' for Active; 'I' for Inactive)
REMARK    1  A    between atoms: C_1  and  C_2
REMARK    2  A    between atoms: C_2  and  N_3
REMARK    3  A    between atoms: N_9  and  C_10
REMARK    4  A    between atoms: C_10  and  C_11
REMARK    5  A    between atoms: C_10  and  C_12
REMARK    6  A    between atoms: C_15  and  O_16
REMARK    7  A    between atoms: O_16  and  C_17
REMARK    8  A    between atoms: C_17  and  C_18
REMARK                            x       y       z     vdW  Elec       q    Type
REMARK                         _______ _______ _______ _____ _____    ______ ____
ROOT
ATOM      1  C   UNL     1      32.446  20.126  12.768  0.00  0.00    +0.102 C 
ATOM      2  C   UNL     1      31.830  18.856  12.163  0.00  0.00    +0.033 C 
ENDROOT
BRANCH   1   9
ATOM      3  N   UNL     1      34.660  24.065   8.246  0.00  0.00    -0.299 N 
ATOM      4  C   UNL     1      35.701  23.287   8.919  0.00  0.00    +0.127 C 
ATOM      5  C   UNL     1      35.507  23.266  10.438  0.00  0.00    +0.129 C 
ATOM      6  N   UNL     1      34.195  22.705  10.748  0.00  0.00    -0.275 N 
ATOM      7  C   UNL     1      34.084  21.654  11.648  0.00  0.00    +0.303 C 
ATOM      8  O   UNL     1      35.042  21.181  12.246  0.00  0.00    -0.253 OA
ATOM      9  N   UNL     1      32.813  21.155  11.791  0.00  0.00    -0.293 N 
ATOM     10  C   UNL     1      33.078  23.322  10.031  0.00  0.00    +0.205 C 
ATOM     11  C   UNL     1      33.401  24.220   8.822  0.00  0.00    +0.233 C 
ATOM     12  O   UNL     1      32.527  24.928   8.322  0.00  0.00    -0.274 OA
ATOM     13  H   UNL     1      32.084  21.828  11.630  0.00  0.00    +0.151 HD
BRANCH   3  15
ATOM     14  C   UNL     1      35.025  23.115   5.995  0.00  0.00    +0.024 C 
ATOM     15  C   UNL     1      34.816  24.374   6.826  0.00  0.00    +0.104 C 
ENDBRANCH   3  15
ENDBRANCH   1   9
BRANCH   1  16
ATOM     16  C   UNL     1      31.465  20.753  13.752  0.00  0.00    -0.024 A 
ATOM     17  C   UNL     1      30.119  20.342  13.751  0.00  0.00    +0.009 A 
ATOM     18  C   UNL     1      29.178  20.952  14.576  0.00  0.00    +0.049 A 
ATOM     19  C   UNL     1      29.550  22.022  15.390  0.00  0.00    +0.156 A 
ATOM     20  C   UNL     1      30.896  22.394  15.446  0.00  0.00    +0.165 A 
ATOM     21  F   UNL     1      31.292  23.387  16.255  0.00  0.00    -0.202 F 
ATOM     22  C   UNL     1      31.851  21.771  14.634  0.00  0.00    +0.047 A 
BRANCH  19  23
ATOM     23  O   UNL     1      28.660  22.754  16.131  0.00  0.00    -0.489 OA
BRANCH  23  24
ATOM     24  C   UNL     1      27.847  21.977  17.016  0.00  0.00    +0.232 C 
BRANCH  24  25
ATOM     25  C   UNL     1      27.950  22.545  18.393  0.00  0.00    +0.027 C 
ATOM     26  C   UNL     1      29.193  23.281  18.820  0.00  0.00    +0.007 C 
ATOM     27  C   UNL     1      28.881  21.934  19.413  0.00  0.00    +0.007 C 
ENDBRANCH  24  25
ENDBRANCH  23  24
ENDBRANCH  19  23
ENDBRANCH   1  16
TORSDOF 6
ENDMDL
MODEL 4
REMARK VINA RESULT:      -5.9      4.451      6.783
REMARK  Name = ZINC000543478179
REMARK  8 active torsions:
REMARK  status: ('A' for Active; 'I' for Inactive)
REMARK    1  A    between atoms: C_1  and  C_2
REMARK    2  A    between atoms: C_2  and  N_3
REMARK    3  A    between atoms: N_9  and  C_10
REMARK    4  A    between atoms: C_10  and  C_11
REMARK    5  A    between atoms: C_10  and  C_12
REMARK    6  A    between atoms: C_15  and  O_16
REMARK    7  A    between atoms: O_16  and  C_17
REMARK    8  A    between atoms: C_17  and  C_18
REMARK                            x       y       z     vdW  Elec       q    Type
REMARK                         _______ _______ _______ _____ _____    ______ ____
ROOT
ATOM      1  C   UNL     1      33.414  23.529  17.035  0.00  0.00    +0.102 C 
ATOM      2  C   UNL     1      33.859  24.970  16.751  0.00  0.00    +0.033 C 
ENDROOT
BRANCH   1   9
ATOM      3  N   UNL     1      35.519  21.851  22.833  0.00  0.00    -0.299 N 
ATOM      4  C   UNL     1      36.570  21.923  21.817  0.00  0.00    +0.127 C 
ATOM      5  C   UNL     1      36.144  21.256  20.505  0.00  0.00    +0.129 C 
ATOM      6  N   UNL     1      34.933  21.902  20.008  0.00  0.00    -0.275 N 
ATOM      7  C   UNL     1      34.885  22.380  18.706  0.00  0.00    +0.303 C 
ATOM      8  O   UNL     1      35.808  22.253  17.912  0.00  0.00    -0.253 OA
ATOM      9  N   UNL     1      33.727  23.044  18.382  0.00  0.00    -0.293 N 
ATOM     10  C   UNL     1      33.846  22.005  20.984  0.00  0.00    +0.205 C 
ATOM     11  C   UNL     1      34.179  21.753  22.466  0.00  0.00    +0.233 C 
ATOM     12  O   UNL     1      33.276  21.614  23.292  0.00  0.00    -0.274 OA
ATOM     13  H   UNL     1      32.917  22.735  18.891  0.00  0.00    +0.151 HD
BRANCH   3  15
ATOM     14  C   UNL     1      36.219  23.707  24.304  0.00  0.00    +0.024 C 
ATOM     15  C   UNL     1      35.838  22.236  24.206  0.00  0.00    +0.104 C 
ENDBRANCH   3  15
ENDBRANCH   1   9
BRANCH   1  16
ATOM     16  C   UNL     1      31.907  23.409  16.840  0.00  0.00    -0.024 A 
ATOM     17  C   UNL     1      31.039  23.762  17.891  0.00  0.00    +0.009 A 
ATOM     18  C   UNL     1      29.663  23.585  17.779  0.00  0.00    +0.049 A 
ATOM     19  C   UNL     1      29.122  23.007  16.631  0.00  0.00    +0.156 A 
ATOM     20  C   UNL     1      29.968  22.713  15.558  0.00  0.00    +0.165 A 
ATOM     21  F   UNL     1      29.471  22.200  14.423  0.00  0.00    -0.202 F 
ATOM     22  C   UNL     1      31.350  22.907  15.656  0.00  0.00    +0.047 A 
BRANCH  19  23
ATOM     23  O   UNL     1      27.797  22.684  16.499  0.00  0.00    -0.489 OA
BRANCH  23  24
ATOM     24  C   UNL     1      27.313  21.758  17.477  0.00  0.00    +0.232 C 
BRANCH  24  25
ATOM     25  C   UNL     1      27.135  20.422  16.834  0.00  0.00    +0.027 C 
ATOM     26  C   UNL     1      26.352  19.341  17.534  0.00  0.00    +0.007 C 
ATOM     27  C   UNL     1      27.842  19.204  17.376  0.00  0.00    +0.007 C 
ENDBRANCH  24  25
ENDBRANCH  23  24
ENDBRANCH  19  23
ENDBRANCH   1  16
TORSDOF 6
ENDMDL
MODEL 5
REMARK VINA RESULT:      -5.9      2.722      9.070
REMARK  Name = ZINC000543478179
REMARK  8 active torsions:
REMARK  status: ('A' for Active; 'I' for Inactive)
REMARK    1  A    between atoms: C_1  and  C_2
REMARK    2  A    between atoms: C_2  and  N_3
REMARK    3  A    between atoms: N_9  and  C_10
REMARK    4  A    between atoms: C_10  and  C_11
REMARK    5  A    between atoms: C_10  and  C_12
REMARK    6  A    between atoms: C_15  and  O_16
REMARK    7  A    between atoms: O_16  and  C_17
REMARK    8  A    between atoms: C_17  and  C_18
REMARK                            x       y       z     vdW  Elec       q    Type
REMARK                         _______ _______ _______ _____ _____    ______ ____
ROOT
ATOM      1  C   UNL     1      31.005  21.557  14.367  0.00  0.00    +0.102 C 
ATOM      2  C   UNL     1      29.505  21.235  14.311  0.00  0.00    +0.033 C 
ENDROOT
BRANCH   1   9
ATOM      3  N   UNL     1      33.043  24.733   9.207  0.00  0.00    -0.299 N 
ATOM      4  C   UNL     1      33.533  23.357   9.290  0.00  0.00    +0.127 C 
ATOM      5  C   UNL     1      34.022  23.007  10.699  0.00  0.00    +0.129 C 
ATOM      6  N   UNL     1      32.930  23.200  11.649  0.00  0.00    -0.275 N 
ATOM      7  C   UNL     1      32.578  22.177  12.518  0.00  0.00    +0.303 C 
ATOM      8  O   UNL     1      33.170  21.107  12.567  0.00  0.00    -0.253 OA
ATOM      9  N   UNL     1      31.482  22.444  13.302  0.00  0.00    -0.293 N 
ATOM     10  C   UNL     1      32.271  24.505  11.572  0.00  0.00    +0.205 C 
ATOM     11  C   UNL     1      32.542  25.380  10.333  0.00  0.00    +0.233 C 
ATOM     12  O   UNL     1      32.192  26.561  10.318  0.00  0.00    -0.274 OA
ATOM     13  H   UNL     1      31.347  23.419  13.507  0.00  0.00    +0.151 HD
BRANCH   3  15
ATOM     14  C   UNL     1      32.865  24.256   6.790  0.00  0.00    +0.024 C 
ATOM     15  C   UNL     1      32.750  25.301   7.892  0.00  0.00    +0.104 C 
ENDBRANCH   3  15
ENDBRANCH   1   9
BRANCH   1  16
ATOM     16  C   UNL     1      31.338  22.217  15.700  0.00  0.00    -0.024 A 
ATOM     17  C   UNL     1      32.634  22.089  16.235  0.00  0.00    +0.009 A 
ATOM     18  C   UNL     1      32.951  22.604  17.488  0.00  0.00    +0.049 A 
ATOM     19  C   UNL     1      31.967  23.221  18.260  0.00  0.00    +0.156 A 
ATOM     20  C   UNL     1      30.696  23.410  17.711  0.00  0.00    +0.165 A 
ATOM     21  F   UNL     1      29.742  24.042  18.411  0.00  0.00    -0.202 F 
ATOM     22  C   UNL     1      30.376  22.912  16.444  0.00  0.00    +0.047 A 
BRANCH  19  23
ATOM     23  O   UNL     1      32.168  23.638  19.550  0.00  0.00    -0.489 OA
BRANCH  23  24
ATOM     24  C   UNL     1      32.003  22.614  20.536  0.00  0.00    +0.232 C 
BRANCH  24  25
ATOM     25  C   UNL     1      33.243  22.533  21.363  0.00  0.00    +0.027 C 
ATOM     26  C   UNL     1      34.091  21.287  21.340  0.00  0.00    +0.007 C 
ATOM     27  C   UNL     1      33.305  21.635  22.575  0.00  0.00    +0.007 C 
ENDBRANCH  24  25
ENDBRANCH  23  24
ENDBRANCH  19  23
ENDBRANCH   1  16
TORSDOF 6
ENDMDL
MODEL 6
REMARK VINA RESULT:      -5.9      4.249      5.443
REMARK  Name = ZINC000543478179
REMARK  8 active torsions:
REMARK  status: ('A' for Active; 'I' for Inactive)
REMARK    1  A    between atoms: C_1  and  C_2
REMARK    2  A    between atoms: C_2  and  N_3
REMARK    3  A    between atoms: N_9  and  C_10
REMARK    4  A    between atoms: C_10  and  C_11
REMARK    5  A    between atoms: C_10  and  C_12
REMARK    6  A    between atoms: C_15  and  O_16
REMARK    7  A    between atoms: O_16  and  C_17
REMARK    8  A    between atoms: C_17  and  C_18
REMARK                            x       y       z     vdW  Elec       q    Type
REMARK                         _______ _______ _______ _____ _____    ______ ____
ROOT
ATOM      1  C   UNL     1      30.796  23.667  17.655  0.00  0.00    +0.102 C 
ATOM      2  C   UNL     1      29.483  23.803  18.439  0.00  0.00    +0.033 C 
ENDROOT
BRANCH   1   9
ATOM      3  N   UNL     1      35.700  22.201  21.484  0.00  0.00    -0.299 N 
ATOM      4  C   UNL     1      35.656  23.609  21.087  0.00  0.00    +0.127 C 
ATOM      5  C   UNL     1      35.367  23.773  19.591  0.00  0.00    +0.129 C 
ATOM      6  N   UNL     1      34.095  23.131  19.274  0.00  0.00    -0.275 N 
ATOM      7  C   UNL     1      33.110  23.839  18.599  0.00  0.00    +0.303 C 
ATOM      8  O   UNL     1      33.262  24.987  18.205  0.00  0.00    -0.253 OA
ATOM      9  N   UNL     1      31.927  23.159  18.435  0.00  0.00    -0.293 N 
ATOM     10  C   UNL     1      33.971  21.749  19.739  0.00  0.00    +0.205 C 
ATOM     11  C   UNL     1      34.996  21.236  20.767  0.00  0.00    +0.233 C 
ATOM     12  O   UNL     1      35.070  20.034  21.026  0.00  0.00    -0.274 OA
ATOM     13  H   UNL     1      32.028  22.160  18.384  0.00  0.00    +0.151 HD
BRANCH   3  15
ATOM     14  C   UNL     1      35.180  22.250  23.898  0.00  0.00    +0.024 C 
ATOM     15  C   UNL     1      36.183  21.859  22.820  0.00  0.00    +0.104 C 
ENDBRANCH   3  15
ENDBRANCH   1   9
BRANCH   1  16
ATOM     16  C   UNL     1      30.592  22.727  16.472  0.00  0.00    -0.024 A 
ATOM     17  C   UNL     1      29.302  22.245  16.180  0.00  0.00    +0.009 A 
ATOM     18  C   UNL     1      29.091  21.319  15.162  0.00  0.00    +0.049 A 
ATOM     19  C   UNL     1      30.173  20.816  14.439  0.00  0.00    +0.156 A 
ATOM     20  C   UNL     1      31.447  21.337  14.678  0.00  0.00    +0.165 A 
ATOM     21  F   UNL     1      32.499  20.907  13.966  0.00  0.00    -0.202 F 
ATOM     22  C   UNL     1      31.663  22.282  15.686  0.00  0.00    +0.047 A 
BRANCH  19  23
ATOM     23  O   UNL     1      30.062  19.813  13.513  0.00  0.00    -0.489 OA
BRANCH  23  24
ATOM     24  C   UNL     1      29.951  18.500  14.072  0.00  0.00    +0.232 C 
BRANCH  24  25
ATOM     25  C   UNL     1      31.229  17.763  13.838  0.00  0.00    +0.027 C 
ATOM     26  C   UNL     1      31.947  17.890  12.520  0.00  0.00    +0.007 C 
ATOM     27  C   UNL     1      31.281  16.592  12.888  0.00  0.00    +0.007 C 
ENDBRANCH  24  25
ENDBRANCH  23  24
ENDBRANCH  19  23
ENDBRANCH   1  16
TORSDOF 6
ENDMDL
MODEL 7
REMARK VINA RESULT:      -5.7      1.758      2.086
REMARK  Name = ZINC000543478179
REMARK  8 active torsions:
REMARK  status: ('A' for Active; 'I' for Inactive)
REMARK    1  A    between atoms: C_1  and  C_2
REMARK    2  A    between atoms: C_2  and  N_3
REMARK    3  A    between atoms: N_9  and  C_10
REMARK    4  A    between atoms: C_10  and  C_11
REMARK    5  A    between atoms: C_10  and  C_12
REMARK    6  A    between atoms: C_15  and  O_16
REMARK    7  A    between atoms: O_16  and  C_17
REMARK    8  A    between atoms: C_17  and  C_18
REMARK                            x       y       z     vdW  Elec       q    Type
REMARK                         _______ _______ _______ _____ _____    ______ ____
ROOT
ATOM      1  C   UNL     1      30.614  23.021  14.511  0.00  0.00    +0.102 C 
ATOM      2  C   UNL     1      29.907  21.757  14.003  0.00  0.00    +0.033 C 
ENDROOT
BRANCH   1   9
ATOM      3  N   UNL     1      34.094  21.710  19.711  0.00  0.00    -0.299 N 
ATOM      4  C   UNL     1      32.737  22.171  20.005  0.00  0.00    +0.127 C 
ATOM      5  C   UNL     1      32.346  23.382  19.151  0.00  0.00    +0.129 C 
ATOM      6  N   UNL     1      32.452  23.029  17.739  0.00  0.00    -0.275 N 
ATOM      7  C   UNL     1      31.378  23.247  16.886  0.00  0.00    +0.303 C 
ATOM      8  O   UNL     1      30.333  23.770  17.248  0.00  0.00    -0.253 OA
ATOM      9  N   UNL     1      31.565  22.795  15.603  0.00  0.00    -0.293 N 
ATOM     10  C   UNL     1      33.731  22.434  17.348  0.00  0.00    +0.205 C 
ATOM     11  C   UNL     1      34.670  21.939  18.463  0.00  0.00    +0.233 C 
ATOM     12  O   UNL     1      35.835  21.633  18.206  0.00  0.00    -0.274 OA
ATOM     13  H   UNL     1      32.524  22.794  15.300  0.00  0.00    +0.151 HD
BRANCH   3  15
ATOM     14  C   UNL     1      35.312  21.349  21.829  0.00  0.00    +0.024 C 
ATOM     15  C   UNL     1      34.706  20.712  20.586  0.00  0.00    +0.104 C 
ENDBRANCH   3  15
ENDBRANCH   1   9
BRANCH   1  16
ATOM     16  C   UNL     1      31.374  23.680  13.366  0.00  0.00    -0.024 A 
ATOM     17  C   UNL     1      30.691  24.527  12.473  0.00  0.00    +0.009 A 
ATOM     18  C   UNL     1      31.333  25.078  11.368  0.00  0.00    +0.049 A 
ATOM     19  C   UNL     1      32.663  24.758  11.100  0.00  0.00    +0.156 A 
ATOM     20  C   UNL     1      33.368  23.971  12.015  0.00  0.00    +0.165 A 
ATOM     21  F   UNL     1      34.662  23.686  11.809  0.00  0.00    -0.202 F 
ATOM     22  C   UNL     1      32.734  23.430  13.139  0.00  0.00    +0.047 A 
BRANCH  19  23
ATOM     23  O   UNL     1      33.324  25.156   9.968  0.00  0.00    -0.489 OA
BRANCH  23  24
ATOM     24  C   UNL     1      32.703  24.746   8.745  0.00  0.00    +0.232 C 
BRANCH  24  25
ATOM     25  C   UNL     1      32.848  23.266   8.601  0.00  0.00    +0.027 C 
ATOM     26  C   UNL     1      34.212  22.651   8.425  0.00  0.00    +0.007 C 
ATOM     27  C   UNL     1      33.239  22.655   7.277  0.00  0.00    +0.007 C 
ENDBRANCH  24  25
ENDBRANCH  23  24
ENDBRANCH  19  23
ENDBRANCH   1  16
TORSDOF 6
ENDMDL
MODEL 8
REMARK VINA RESULT:      -5.7      4.190      8.729
REMARK  Name = ZINC000543478179
REMARK  8 active torsions:
REMARK  status: ('A' for Active; 'I' for Inactive)
REMARK    1  A    between atoms: C_1  and  C_2
REMARK    2  A    between atoms: C_2  and  N_3
REMARK    3  A    between atoms: N_9  and  C_10
REMARK    4  A    between atoms: C_10  and  C_11
REMARK    5  A    between atoms: C_10  and  C_12
REMARK    6  A    between atoms: C_15  and  O_16
REMARK    7  A    between atoms: O_16  and  C_17
REMARK    8  A    between atoms: C_17  and  C_18
REMARK                            x       y       z     vdW  Elec       q    Type
REMARK                         _______ _______ _______ _____ _____    ______ ____
ROOT
ATOM      1  C   UNL     1      31.954  23.129  14.160  0.00  0.00    +0.102 C 
ATOM      2  C   UNL     1      32.695  23.493  15.454  0.00  0.00    +0.033 C 
ENDROOT
BRANCH   1   9
ATOM      3  N   UNL     1      34.631  25.982   9.105  0.00  0.00    -0.299 N 
ATOM      4  C   UNL     1      33.478  26.699   9.650  0.00  0.00    +0.127 C 
ATOM      5  C   UNL     1      32.312  25.755   9.960  0.00  0.00    +0.129 C 
ATOM      6  N   UNL     1      32.755  24.739  10.911  0.00  0.00    -0.275 N 
ATOM      7  C   UNL     1      32.035  24.517  12.076  0.00  0.00    +0.303 C 
ATOM      8  O   UNL     1      30.998  25.109  12.345  0.00  0.00    -0.253 OA
ATOM      9  N   UNL     1      32.597  23.601  12.931  0.00  0.00    -0.293 N 
ATOM     10  C   UNL     1      33.983  24.037  10.532  0.00  0.00    +0.205 C 
ATOM     11  C   UNL     1      34.841  24.638   9.403  0.00  0.00    +0.233 C 
ATOM     12  O   UNL     1      35.757  23.984   8.903  0.00  0.00    -0.274 OA
ATOM     13  H   UNL     1      33.149  22.894  12.475  0.00  0.00    +0.151 HD
BRANCH   3  15
ATOM     14  C   UNL     1      36.189  27.860   9.491  0.00  0.00    +0.024 C 
ATOM     15  C   UNL     1      35.742  26.751   8.547  0.00  0.00    +0.104 C 
ENDBRANCH   3  15
ENDBRANCH   1   9
BRANCH   1  16
ATOM     16  C   UNL     1      31.815  21.615  14.057  0.00  0.00    -0.024 A 
ATOM     17  C   UNL     1      30.591  21.054  13.646  0.00  0.00    +0.009 A 
ATOM     18  C   UNL     1      30.401  19.675  13.621  0.00  0.00    +0.049 A 
ATOM     19  C   UNL     1      31.416  18.822  14.053  0.00  0.00    +0.156 A 
ATOM     20  C   UNL     1      32.656  19.365  14.400  0.00  0.00    +0.165 A 
ATOM     21  F   UNL     1      33.666  18.566  14.773  0.00  0.00    -0.202 F 
ATOM     22  C   UNL     1      32.860  20.750  14.408  0.00  0.00    +0.047 A 
BRANCH  19  23
ATOM     23  O   UNL     1      31.262  17.466  14.178  0.00  0.00    -0.489 OA
BRANCH  23  24
ATOM     24  C   UNL     1      29.902  17.031  14.269  0.00  0.00    +0.232 C 
BRANCH  24  25
ATOM     25  C   UNL     1      29.568  16.777  15.702  0.00  0.00    +0.027 C 
ATOM     26  C   UNL     1      28.307  16.037  16.068  0.00  0.00    +0.007 C 
ATOM     27  C   UNL     1      28.427  17.507  16.370  0.00  0.00    +0.007 C 
ENDBRANCH  24  25
ENDBRANCH  23  24
ENDBRANCH  19  23
ENDBRANCH   1  16
TORSDOF 6
ENDMDL
MODEL 9
REMARK VINA RESULT:      -5.7      6.261      8.915
REMARK  Name = ZINC000543478179
REMARK  8 active torsions:
REMARK  status: ('A' for Active; 'I' for Inactive)
REMARK    1  A    between atoms: C_1  and  C_2
REMARK    2  A    between atoms: C_2  and  N_3
REMARK    3  A    between atoms: N_9  and  C_10
REMARK    4  A    between atoms: C_10  and  C_11
REMARK    5  A    between atoms: C_10  and  C_12
REMARK    6  A    between atoms: C_15  and  O_16
REMARK    7  A    between atoms: O_16  and  C_17
REMARK    8  A    between atoms: C_17  and  C_18
REMARK                            x       y       z     vdW  Elec       q    Type
REMARK                         _______ _______ _______ _____ _____    ______ ____
ROOT
ATOM      1  C   UNL     1      31.840  17.284  13.534  0.00  0.00    +0.102 C 
ATOM      2  C   UNL     1      30.569  16.539  13.102  0.00  0.00    +0.033 C 
ENDROOT
BRANCH   1   9
ATOM      3  N   UNL     1      36.614  15.611   9.626  0.00  0.00    -0.299 N 
ATOM      4  C   UNL     1      36.237  14.570  10.584  0.00  0.00    +0.127 C 
ATOM      5  C   UNL     1      36.044  15.135  11.995  0.00  0.00    +0.129 C 
ATOM      6  N   UNL     1      35.015  16.170  11.962  0.00  0.00    -0.275 N 
ATOM      7  C   UNL     1      33.940  16.109  12.838  0.00  0.00    +0.303 C 
ATOM      8  O   UNL     1      33.819  15.238  13.689  0.00  0.00    -0.253 OA
ATOM      9  N   UNL     1      32.994  17.088  12.653  0.00  0.00    -0.293 N 
ATOM     10  C   UNL     1      35.217  17.206  10.947  0.00  0.00    +0.205 C 
ATOM     11  C   UNL     1      36.250  16.938   9.836  0.00  0.00    +0.233 C 
ATOM     12  O   UNL     1      36.614  17.850   9.093  0.00  0.00    -0.274 OA
ATOM     13  H   UNL     1      33.357  17.947  12.276  0.00  0.00    +0.151 HD
BRANCH   3  15
ATOM     14  C   UNL     1      38.515  14.782   8.284  0.00  0.00    +0.024 C 
ATOM     15  C   UNL     1      37.055  15.214   8.290  0.00  0.00    +0.104 C 
ENDBRANCH   3  15
ENDBRANCH   1   9
BRANCH   1  16
ATOM     16  C   UNL     1      31.559  18.781  13.601  0.00  0.00    -0.024 A 
ATOM     17  C   UNL     1      32.616  19.695  13.430  0.00  0.00    +0.009 A 
ATOM     18  C   UNL     1      32.413  21.065  13.569  0.00  0.00    +0.049 A 
ATOM     19  C   UNL     1      31.158  21.554  13.930  0.00  0.00    +0.156 A 
ATOM     20  C   UNL     1      30.089  20.660  14.038  0.00  0.00    +0.165 A 
ATOM     21  F   UNL     1      28.860  21.106  14.336  0.00  0.00    -0.202 F 
ATOM     22  C   UNL     1      30.281  19.283  13.879  0.00  0.00    +0.047 A 
BRANCH  19  23
ATOM     23  O   UNL     1      30.911  22.872  14.210  0.00  0.00    -0.489 OA
BRANCH  23  24
ATOM     24  C   UNL     1      31.679  23.796  13.433  0.00  0.00    +0.232 C 
BRANCH  24  25
ATOM     25  C   UNL     1      30.840  24.295  12.302  0.00  0.00    +0.027 C 
ATOM     26  C   UNL     1      31.488  24.903  11.086  0.00  0.00    +0.007 C 
ATOM     27  C   UNL     1      30.707  25.774  12.033  0.00  0.00    +0.007 C 
ENDBRANCH  24  25
ENDBRANCH  23  24
ENDBRANCH  19  23
ENDBRANCH   1  16
TORSDOF 6
ENDMDL
