MODEL 1
REMARK VINA RESULT:      -6.4      0.000      0.000
REMARK  Name = ZINC000435351830
REMARK  5 active torsions:
REMARK  status: ('A' for Active; 'I' for Inactive)
REMARK    1  A    between atoms: C_2  and  C_3
REMARK    2  A    between atoms: C_7  and  C_8
REMARK    3  A    between atoms: C_8  and  C_9
REMARK    4  A    between atoms: N_11  and  C_12
REMARK    5  A    between atoms: C_12  and  C_13
REMARK                            x       y       z     vdW  Elec       q    Type
REMARK                         _______ _______ _______ _____ _____    ______ ____
ROOT
ATOM      1  C   UNL     1      32.373  19.953  13.914  0.00  0.00    +0.224 C 
ATOM      2  O   UNL     1      33.134  20.394  14.769  0.00  0.00    -0.275 OA
ATOM      3  N   UNL     1      31.398  20.686  13.292  0.00  0.00    -0.309 N 
ATOM      4  H   UNL     1      30.832  20.261  12.571  0.00  0.00    +0.149 HD
ENDROOT
BRANCH   1   5
ATOM      5  C   UNL     1      32.423  18.499  13.518  0.00  0.00    +0.072 C 
ATOM      6  C   UNL     1      33.412  18.074  12.438  0.00  0.00    +0.022 C 
ATOM      7  C   UNL     1      33.704  17.729  13.862  0.00  0.00    +0.022 C 
BRANCH   5  12
ATOM      8  C   UNL     1      29.207  17.235  15.185  0.00  0.00    +0.052 A 
ATOM      9  C   UNL     1      28.826  16.190  14.344  0.00  0.00    +0.019 A 
ATOM     10  C   UNL     1      29.570  15.917  13.196  0.00  0.00    +0.002 A 
ATOM     11  C   UNL     1      30.710  16.671  12.901  0.00  0.00    +0.005 A 
ATOM     12  C   UNL     1      31.136  17.709  13.749  0.00  0.00    -0.031 A 
ATOM     13  C   UNL     1      30.341  17.992  14.876  0.00  0.00    +0.023 A 
BRANCH   8  15
ATOM     14  N   UNL     1      27.855  17.739  17.340  0.00  0.00    -0.191 NA
ATOM     15  C   UNL     1      28.468  17.515  16.378  0.00  0.00    +0.099 C 
ENDBRANCH   8  15
ENDBRANCH   5  12
ENDBRANCH   1   5
BRANCH   3  16
ATOM     16  C   UNL     1      31.120  22.055  13.669  0.00  0.00    +0.159 C 
BRANCH  16  17
ATOM     17  C   UNL     1      30.163  22.170  14.834  0.00  0.00    +0.058 A 
ATOM     18  C   UNL     1      29.136  21.237  14.996  0.00  0.00    +0.028 A 
ATOM     19  C   UNL     1      28.250  21.379  16.064  0.00  0.00    +0.042 A 
ATOM     20  C   UNL     1      28.422  22.442  16.934  0.00  0.00    +0.141 A 
ATOM     21  F   UNL     1      27.586  22.613  17.966  0.00  0.00    -0.204 F 
ATOM     22  C   UNL     1      29.468  23.320  16.719  0.00  0.00    +0.149 A 
ATOM     23  N   UNL     1      30.347  23.209  15.694  0.00  0.00    -0.255 NA
ENDBRANCH  16  17
ENDBRANCH   3  16
TORSDOF 5
ENDMDL
MODEL 2
REMARK VINA RESULT:      -6.4      3.294      4.286
REMARK  Name = ZINC000435351830
REMARK  5 active torsions:
REMARK  status: ('A' for Active; 'I' for Inactive)
REMARK    1  A    between atoms: C_2  and  C_3
REMARK    2  A    between atoms: C_7  and  C_8
REMARK    3  A    between atoms: C_8  and  C_9
REMARK    4  A    between atoms: N_11  and  C_12
REMARK    5  A    between atoms: C_12  and  C_13
REMARK                            x       y       z     vdW  Elec       q    Type
REMARK                         _______ _______ _______ _____ _____    ______ ____
ROOT
ATOM      1  C   UNL     1      31.396  20.928  14.125  0.00  0.00    +0.224 C 
ATOM      2  O   UNL     1      32.068  21.275  15.090  0.00  0.00    -0.275 OA
ATOM      3  N   UNL     1      30.732  21.790  13.291  0.00  0.00    -0.309 N 
ATOM      4  H   UNL     1      30.227  21.429  12.495  0.00  0.00    +0.149 HD
ENDROOT
BRANCH   1   5
ATOM      5  C   UNL     1      31.197  19.467  13.813  0.00  0.00    +0.072 C 
ATOM      6  C   UNL     1      31.518  18.974  12.406  0.00  0.00    +0.022 C 
ATOM      7  C   UNL     1      32.456  18.642  13.520  0.00  0.00    +0.022 C 
BRANCH   5  12
ATOM      8  C   UNL     1      28.349  18.885  16.317  0.00  0.00    +0.052 A 
ATOM      9  C   UNL     1      28.318  17.494  16.416  0.00  0.00    +0.019 A 
ATOM     10  C   UNL     1      29.177  16.724  15.632  0.00  0.00    +0.002 A 
ATOM     11  C   UNL     1      30.085  17.343  14.768  0.00  0.00    +0.005 A 
ATOM     12  C   UNL     1      30.161  18.744  14.672  0.00  0.00    -0.031 A 
ATOM     13  C   UNL     1      29.252  19.495  15.441  0.00  0.00    +0.023 A 
BRANCH   8  15
ATOM     14  N   UNL     1      26.804  20.350  17.798  0.00  0.00    -0.191 NA
ATOM     15  C   UNL     1      27.490  19.692  17.129  0.00  0.00    +0.099 C 
ENDBRANCH   8  15
ENDBRANCH   5  12
ENDBRANCH   1   5
BRANCH   3  16
ATOM     16  C   UNL     1      30.697  23.214  13.544  0.00  0.00    +0.159 C 
BRANCH  16  17
ATOM     17  C   UNL     1      31.277  24.035  12.415  0.00  0.00    +0.058 A 
ATOM     18  C   UNL     1      30.690  25.251  12.056  0.00  0.00    +0.028 A 
ATOM     19  C   UNL     1      31.227  25.978  10.995  0.00  0.00    +0.042 A 
ATOM     20  C   UNL     1      32.332  25.472  10.333  0.00  0.00    +0.141 A 
ATOM     21  F   UNL     1      32.871  26.140   9.305  0.00  0.00    -0.204 F 
ATOM     22  C   UNL     1      32.869  24.267  10.751  0.00  0.00    +0.149 A 
ATOM     23  N   UNL     1      32.372  23.538  11.779  0.00  0.00    -0.255 NA
ENDBRANCH  16  17
ENDBRANCH   3  16
TORSDOF 5
ENDMDL
MODEL 3
REMARK VINA RESULT:      -6.3      0.957      1.094
REMARK  Name = ZINC000435351830
REMARK  5 active torsions:
REMARK  status: ('A' for Active; 'I' for Inactive)
REMARK    1  A    between atoms: C_2  and  C_3
REMARK    2  A    between atoms: C_7  and  C_8
REMARK    3  A    between atoms: C_8  and  C_9
REMARK    4  A    between atoms: N_11  and  C_12
REMARK    5  A    between atoms: C_12  and  C_13
REMARK                            x       y       z     vdW  Elec       q    Type
REMARK                         _______ _______ _______ _____ _____    ______ ____
ROOT
ATOM      1  C   UNL     1      32.972  20.668  14.720  0.00  0.00    +0.224 C 
ATOM      2  O   UNL     1      33.368  20.905  15.856  0.00  0.00    -0.275 OA
ATOM      3  N   UNL     1      32.187  21.512  13.980  0.00  0.00    -0.309 N 
ATOM      4  H   UNL     1      31.929  21.261  13.036  0.00  0.00    +0.149 HD
ENDROOT
BRANCH   1   5
ATOM      5  C   UNL     1      33.285  19.351  14.057  0.00  0.00    +0.072 C 
ATOM      6  C   UNL     1      34.471  19.282  13.102  0.00  0.00    +0.022 C 
ATOM      7  C   UNL     1      34.598  18.667  14.457  0.00  0.00    +0.022 C 
BRANCH   5  12
ATOM      8  C   UNL     1      30.013  17.494  14.809  0.00  0.00    +0.052 A 
ATOM      9  C   UNL     1      29.962  16.551  13.782  0.00  0.00    +0.019 A 
ATOM     10  C   UNL     1      30.953  16.541  12.801  0.00  0.00    +0.002 A 
ATOM     11  C   UNL     1      32.010  17.455  12.859  0.00  0.00    +0.005 A 
ATOM     12  C   UNL     1      32.104  18.394  13.900  0.00  0.00    -0.031 A 
ATOM     13  C   UNL     1      31.067  18.411  14.852  0.00  0.00    +0.023 A 
BRANCH   8  15
ATOM     14  N   UNL     1      28.206  17.530  16.669  0.00  0.00    -0.191 NA
ATOM     15  C   UNL     1      29.017  17.505  15.836  0.00  0.00    +0.099 C 
ENDBRANCH   8  15
ENDBRANCH   5  12
ENDBRANCH   1   5
BRANCH   3  16
ATOM     16  C   UNL     1      31.673  22.748  14.530  0.00  0.00    +0.159 C 
BRANCH  16  17
ATOM     17  C   UNL     1      30.470  22.548  15.425  0.00  0.00    +0.058 A 
ATOM     18  C   UNL     1      29.493  21.608  15.090  0.00  0.00    +0.028 A 
ATOM     19  C   UNL     1      28.381  21.460  15.917  0.00  0.00    +0.042 A 
ATOM     20  C   UNL     1      28.284  22.250  17.050  0.00  0.00    +0.141 A 
ATOM     21  F   UNL     1      27.226  22.140  17.864  0.00  0.00    -0.204 F 
ATOM     22  C   UNL     1      29.295  23.152  17.325  0.00  0.00    +0.149 A 
ATOM     23  N   UNL     1      30.390  23.318  16.544  0.00  0.00    -0.255 NA
ENDBRANCH  16  17
ENDBRANCH   3  16
TORSDOF 5
ENDMDL
MODEL 4
REMARK VINA RESULT:      -6.2      2.917      3.973
REMARK  Name = ZINC000435351830
REMARK  5 active torsions:
REMARK  status: ('A' for Active; 'I' for Inactive)
REMARK    1  A    between atoms: C_2  and  C_3
REMARK    2  A    between atoms: C_7  and  C_8
REMARK    3  A    between atoms: C_8  and  C_9
REMARK    4  A    between atoms: N_11  and  C_12
REMARK    5  A    between atoms: C_12  and  C_13
REMARK                            x       y       z     vdW  Elec       q    Type
REMARK                         _______ _______ _______ _____ _____    ______ ____
ROOT
ATOM      1  C   UNL     1      33.421  20.338  12.242  0.00  0.00    +0.224 C 
ATOM      2  O   UNL     1      34.067  20.522  13.267  0.00  0.00    -0.275 OA
ATOM      3  N   UNL     1      33.277  21.261  11.239  0.00  0.00    -0.309 N 
ATOM      4  H   UNL     1      32.757  21.023  10.407  0.00  0.00    +0.149 HD
ENDROOT
BRANCH   1   5
ATOM      5  C   UNL     1      32.661  19.053  12.032  0.00  0.00    +0.072 C 
ATOM      6  C   UNL     1      32.608  18.460  10.629  0.00  0.00    +0.022 C 
ATOM      7  C   UNL     1      33.482  17.815  11.653  0.00  0.00    +0.022 C 
BRANCH   5  12
ATOM      8  C   UNL     1      29.866  19.668  14.587  0.00  0.00    +0.052 A 
ATOM      9  C   UNL     1      29.566  18.376  15.019  0.00  0.00    +0.019 A 
ATOM     10  C   UNL     1      30.223  17.285  14.449  0.00  0.00    +0.002 A 
ATOM     11  C   UNL     1      31.197  17.486  13.466  0.00  0.00    +0.005 A 
ATOM     12  C   UNL     1      31.542  18.779  13.035  0.00  0.00    -0.031 A 
ATOM     13  C   UNL     1      30.832  19.858  13.595  0.00  0.00    +0.023 A 
BRANCH   8  15
ATOM     14  N   UNL     1      28.696  21.715  15.666  0.00  0.00    -0.191 NA
ATOM     15  C   UNL     1      29.217  20.801  15.175  0.00  0.00    +0.099 C 
ENDBRANCH   8  15
ENDBRANCH   5  12
ENDBRANCH   1   5
BRANCH   3  16
ATOM     16  C   UNL     1      33.818  22.598  11.356  0.00  0.00    +0.159 C 
BRANCH  16  17
ATOM     17  C   UNL     1      32.753  23.661  11.507  0.00  0.00    +0.058 A 
ATOM     18  C   UNL     1      32.542  24.596  10.490  0.00  0.00    +0.028 A 
ATOM     19  C   UNL     1      31.572  25.582  10.664  0.00  0.00    +0.042 A 
ATOM     20  C   UNL     1      30.843  25.599  11.840  0.00  0.00    +0.141 A 
ATOM     21  F   UNL     1      29.908  26.536  12.044  0.00  0.00    -0.204 F 
ATOM     22  C   UNL     1      31.097  24.635  12.799  0.00  0.00    +0.149 A 
ATOM     23  N   UNL     1      32.030  23.662  12.660  0.00  0.00    -0.255 NA
ENDBRANCH  16  17
ENDBRANCH   3  16
TORSDOF 5
ENDMDL
MODEL 5
REMARK VINA RESULT:      -6.2      4.258      5.661
REMARK  Name = ZINC000435351830
REMARK  5 active torsions:
REMARK  status: ('A' for Active; 'I' for Inactive)
REMARK    1  A    between atoms: C_2  and  C_3
REMARK    2  A    between atoms: C_7  and  C_8
REMARK    3  A    between atoms: C_8  and  C_9
REMARK    4  A    between atoms: N_11  and  C_12
REMARK    5  A    between atoms: C_12  and  C_13
REMARK                            x       y       z     vdW  Elec       q    Type
REMARK                         _______ _______ _______ _____ _____    ______ ____
ROOT
ATOM      1  C   UNL     1      32.574  21.805  13.385  0.00  0.00    +0.224 C 
ATOM      2  O   UNL     1      33.574  21.909  14.087  0.00  0.00    -0.275 OA
ATOM      3  N   UNL     1      32.481  22.260  12.096  0.00  0.00    -0.309 N 
ATOM      4  H   UNL     1      31.633  22.106  11.569  0.00  0.00    +0.149 HD
ENDROOT
BRANCH   1   5
ATOM      5  C   UNL     1      31.309  21.197  13.935  0.00  0.00    +0.072 C 
ATOM      6  C   UNL     1      30.643  21.865  15.133  0.00  0.00    +0.022 C 
ATOM      7  C   UNL     1      30.022  22.018  13.783  0.00  0.00    +0.022 C 
BRANCH   5  12
ATOM      8  C   UNL     1      30.126  17.573  14.363  0.00  0.00    +0.052 A 
ATOM      9  C   UNL     1      30.863  16.901  13.389  0.00  0.00    +0.019 A 
ATOM     10  C   UNL     1      31.709  17.618  12.543  0.00  0.00    +0.002 A 
ATOM     11  C   UNL     1      31.838  19.003  12.686  0.00  0.00    +0.005 A 
ATOM     12  C   UNL     1      31.132  19.701  13.681  0.00  0.00    -0.031 A 
ATOM     13  C   UNL     1      30.252  18.959  14.491  0.00  0.00    +0.023 A 
BRANCH   8  15
ATOM     14  N   UNL     1      28.585  16.256  15.981  0.00  0.00    -0.191 NA
ATOM     15  C   UNL     1      29.269  16.852  15.254  0.00  0.00    +0.099 C 
ENDBRANCH   8  15
ENDBRANCH   5  12
ENDBRANCH   1   5
BRANCH   3  16
ATOM     16  C   UNL     1      33.556  23.003  11.474  0.00  0.00    +0.159 C 
BRANCH  16  17
ATOM     17  C   UNL     1      33.228  23.464  10.071  0.00  0.00    +0.058 A 
ATOM     18  C   UNL     1      33.081  22.533   9.041  0.00  0.00    +0.028 A 
ATOM     19  C   UNL     1      32.805  22.984   7.751  0.00  0.00    +0.042 A 
ATOM     20  C   UNL     1      32.680  24.345   7.535  0.00  0.00    +0.141 A 
ATOM     21  F   UNL     1      32.422  24.815   6.307  0.00  0.00    -0.204 F 
ATOM     22  C   UNL     1      32.827  25.209   8.605  0.00  0.00    +0.149 A 
ATOM     23  N   UNL     1      33.093  24.803   9.870  0.00  0.00    -0.255 NA
ENDBRANCH  16  17
ENDBRANCH   3  16
TORSDOF 5
ENDMDL
MODEL 6
REMARK VINA RESULT:      -6.2      3.625      7.156
REMARK  Name = ZINC000435351830
REMARK  5 active torsions:
REMARK  status: ('A' for Active; 'I' for Inactive)
REMARK    1  A    between atoms: C_2  and  C_3
REMARK    2  A    between atoms: C_7  and  C_8
REMARK    3  A    between atoms: C_8  and  C_9
REMARK    4  A    between atoms: N_11  and  C_12
REMARK    5  A    between atoms: C_12  and  C_13
REMARK                            x       y       z     vdW  Elec       q    Type
REMARK                         _______ _______ _______ _____ _____    ______ ____
ROOT
ATOM      1  C   UNL     1      33.076  21.798  12.984  0.00  0.00    +0.224 C 
ATOM      2  O   UNL     1      34.158  21.415  12.555  0.00  0.00    -0.275 OA
ATOM      3  N   UNL     1      31.948  21.021  13.048  0.00  0.00    -0.309 N 
ATOM      4  H   UNL     1      31.101  21.397  13.448  0.00  0.00    +0.149 HD
ENDROOT
BRANCH   1   5
ATOM      5  C   UNL     1      32.888  23.224  13.434  0.00  0.00    +0.072 C 
ATOM      6  C   UNL     1      32.791  23.508  14.929  0.00  0.00    +0.022 C 
ATOM      7  C   UNL     1      34.047  23.867  14.205  0.00  0.00    +0.022 C 
BRANCH   5  12
ATOM      8  C   UNL     1      32.171  25.077  10.152  0.00  0.00    +0.052 A 
ATOM      9  C   UNL     1      31.150  25.953  10.521  0.00  0.00    +0.019 A 
ATOM     10  C   UNL     1      30.640  25.916  11.819  0.00  0.00    +0.002 A 
ATOM     11  C   UNL     1      31.167  25.023  12.756  0.00  0.00    +0.005 A 
ATOM     12  C   UNL     1      32.219  24.152  12.421  0.00  0.00    -0.031 A 
ATOM     13  C   UNL     1      32.683  24.179  11.093  0.00  0.00    +0.023 A 
BRANCH   8  15
ATOM     14  N   UNL     1      33.155  25.154   7.754  0.00  0.00    -0.191 NA
ATOM     15  C   UNL     1      32.721  25.116   8.832  0.00  0.00    +0.099 C 
ENDBRANCH   8  15
ENDBRANCH   5  12
ENDBRANCH   1   5
BRANCH   3  16
ATOM     16  C   UNL     1      31.922  19.677  12.514  0.00  0.00    +0.159 C 
BRANCH  16  17
ATOM     17  C   UNL     1      31.065  18.730  13.324  0.00  0.00    +0.058 A 
ATOM     18  C   UNL     1      30.328  19.204  14.412  0.00  0.00    +0.028 A 
ATOM     19  C   UNL     1      29.566  18.307  15.160  0.00  0.00    +0.042 A 
ATOM     20  C   UNL     1      29.560  16.972  14.794  0.00  0.00    +0.141 A 
ATOM     21  F   UNL     1      28.845  16.081  15.492  0.00  0.00    -0.204 F 
ATOM     22  C   UNL     1      30.305  16.576  13.697  0.00  0.00    +0.149 A 
ATOM     23  N   UNL     1      31.053  17.422  12.949  0.00  0.00    -0.255 NA
ENDBRANCH  16  17
ENDBRANCH   3  16
TORSDOF 5
ENDMDL
MODEL 7
REMARK VINA RESULT:      -6.2      3.148      4.126
REMARK  Name = ZINC000435351830
REMARK  5 active torsions:
REMARK  status: ('A' for Active; 'I' for Inactive)
REMARK    1  A    between atoms: C_2  and  C_3
REMARK    2  A    between atoms: C_7  and  C_8
REMARK    3  A    between atoms: C_8  and  C_9
REMARK    4  A    between atoms: N_11  and  C_12
REMARK    5  A    between atoms: C_12  and  C_13
REMARK                            x       y       z     vdW  Elec       q    Type
REMARK                         _______ _______ _______ _____ _____    ______ ____
ROOT
ATOM      1  C   UNL     1      32.064  21.730  15.298  0.00  0.00    +0.224 C 
ATOM      2  O   UNL     1      33.140  21.250  14.959  0.00  0.00    -0.275 OA
ATOM      3  N   UNL     1      31.906  22.645  16.306  0.00  0.00    -0.309 N 
ATOM      4  H   UNL     1      30.990  23.021  16.504  0.00  0.00    +0.149 HD
ENDROOT
BRANCH   1   5
ATOM      5  C   UNL     1      30.782  21.283  14.642  0.00  0.00    +0.072 C 
ATOM      6  C   UNL     1      29.495  22.027  14.980  0.00  0.00    +0.022 C 
ATOM      7  C   UNL     1      30.134  22.256  13.650  0.00  0.00    +0.022 C 
BRANCH   5  12
ATOM      8  C   UNL     1      29.903  17.549  14.583  0.00  0.00    +0.052 A 
ATOM      9  C   UNL     1      30.725  17.065  13.565  0.00  0.00    +0.019 A 
ATOM     10  C   UNL     1      31.531  17.948  12.846  0.00  0.00    +0.002 A 
ATOM     11  C   UNL     1      31.536  19.310  13.160  0.00  0.00    +0.005 A 
ATOM     12  C   UNL     1      30.742  19.820  14.203  0.00  0.00    -0.031 A 
ATOM     13  C   UNL     1      29.905  18.914  14.882  0.00  0.00    +0.023 A 
BRANCH   8  15
ATOM     14  N   UNL     1      28.409  15.936  15.959  0.00  0.00    -0.191 NA
ATOM     15  C   UNL     1      29.086  16.655  15.345  0.00  0.00    +0.099 C 
ENDBRANCH   8  15
ENDBRANCH   5  12
ENDBRANCH   1   5
BRANCH   3  16
ATOM     16  C   UNL     1      33.017  23.061  17.134  0.00  0.00    +0.159 C 
BRANCH  16  17
ATOM     17  C   UNL     1      32.814  22.759  18.601  0.00  0.00    +0.058 A 
ATOM     18  C   UNL     1      31.560  22.941  19.190  0.00  0.00    +0.028 A 
ATOM     19  C   UNL     1      31.404  22.681  20.551  0.00  0.00    +0.042 A 
ATOM     20  C   UNL     1      32.500  22.244  21.275  0.00  0.00    +0.141 A 
ATOM     21  F   UNL     1      32.388  21.991  22.585  0.00  0.00    -0.204 F 
ATOM     22  C   UNL     1      33.708  22.074  20.624  0.00  0.00    +0.149 A 
ATOM     23  N   UNL     1      33.892  22.315  19.303  0.00  0.00    -0.255 NA
ENDBRANCH  16  17
ENDBRANCH   3  16
TORSDOF 5
ENDMDL
MODEL 8
REMARK VINA RESULT:      -6.1      2.158      3.639
REMARK  Name = ZINC000435351830
REMARK  5 active torsions:
REMARK  status: ('A' for Active; 'I' for Inactive)
REMARK    1  A    between atoms: C_2  and  C_3
REMARK    2  A    between atoms: C_7  and  C_8
REMARK    3  A    between atoms: C_8  and  C_9
REMARK    4  A    between atoms: N_11  and  C_12
REMARK    5  A    between atoms: C_12  and  C_13
REMARK                            x       y       z     vdW  Elec       q    Type
REMARK                         _______ _______ _______ _____ _____    ______ ____
ROOT
ATOM      1  C   UNL     1      30.455  19.104  13.919  0.00  0.00    +0.224 C 
ATOM      2  O   UNL     1      31.083  19.593  12.987  0.00  0.00    -0.275 OA
ATOM      3  N   UNL     1      29.565  19.793  14.700  0.00  0.00    -0.309 N 
ATOM      4  H   UNL     1      29.058  19.311  15.429  0.00  0.00    +0.149 HD
ENDROOT
BRANCH   1   5
ATOM      5  C   UNL     1      30.673  17.668  14.323  0.00  0.00    +0.072 C 
ATOM      6  C   UNL     1      29.678  17.024  15.281  0.00  0.00    +0.022 C 
ATOM      7  C   UNL     1      29.639  16.646  13.837  0.00  0.00    +0.022 C 
BRANCH   5  12
ATOM      8  C   UNL     1      34.314  17.002  15.331  0.00  0.00    +0.052 A 
ATOM      9  C   UNL     1      34.849  16.448  14.168  0.00  0.00    +0.019 A 
ATOM     10  C   UNL     1      34.027  16.229  13.062  0.00  0.00    +0.002 A 
ATOM     11  C   UNL     1      32.676  16.587  13.109  0.00  0.00    +0.005 A 
ATOM     12  C   UNL     1      32.118  17.177  14.256  0.00  0.00    -0.031 A 
ATOM     13  C   UNL     1      32.960  17.345  15.372  0.00  0.00    +0.023 A 
BRANCH   8  15
ATOM     14  N   UNL     1      35.812  17.458  17.398  0.00  0.00    -0.191 NA
ATOM     15  C   UNL     1      35.147  17.253  16.467  0.00  0.00    +0.099 C 
ENDBRANCH   8  15
ENDBRANCH   5  12
ENDBRANCH   1   5
BRANCH   3  16
ATOM     16  C   UNL     1      29.357  21.216  14.540  0.00  0.00    +0.159 C 
BRANCH  16  17
ATOM     17  C   UNL     1      29.182  21.945  15.853  0.00  0.00    +0.058 A 
ATOM     18  C   UNL     1      28.082  21.670  16.670  0.00  0.00    +0.028 A 
ATOM     19  C   UNL     1      27.929  22.374  17.863  0.00  0.00    +0.042 A 
ATOM     20  C   UNL     1      28.878  23.322  18.203  0.00  0.00    +0.141 A 
ATOM     21  F   UNL     1      28.760  24.022  19.339  0.00  0.00    -0.204 F 
ATOM     22  C   UNL     1      29.948  23.534  17.352  0.00  0.00    +0.149 A 
ATOM     23  N   UNL     1      30.127  22.865  16.187  0.00  0.00    -0.255 NA
ENDBRANCH  16  17
ENDBRANCH   3  16
TORSDOF 5
ENDMDL
MODEL 9
REMARK VINA RESULT:      -6.1      3.844      7.331
REMARK  Name = ZINC000435351830
REMARK  5 active torsions:
REMARK  status: ('A' for Active; 'I' for Inactive)
REMARK    1  A    between atoms: C_2  and  C_3
REMARK    2  A    between atoms: C_7  and  C_8
REMARK    3  A    between atoms: C_8  and  C_9
REMARK    4  A    between atoms: N_11  and  C_12
REMARK    5  A    between atoms: C_12  and  C_13
REMARK                            x       y       z     vdW  Elec       q    Type
REMARK                         _______ _______ _______ _____ _____    ______ ____
ROOT
ATOM      1  C   UNL     1      31.541  22.758  14.505  0.00  0.00    +0.224 C 
ATOM      2  O   UNL     1      31.410  22.685  15.722  0.00  0.00    -0.275 OA
ATOM      3  N   UNL     1      30.856  21.986  13.603  0.00  0.00    -0.309 N 
ATOM      4  H   UNL     1      30.994  22.129  12.613  0.00  0.00    +0.149 HD
ENDROOT
BRANCH   1   5
ATOM      5  C   UNL     1      32.550  23.698  13.896  0.00  0.00    +0.072 C 
ATOM      6  C   UNL     1      33.610  24.313  14.803  0.00  0.00    +0.022 C 
ATOM      7  C   UNL     1      34.008  23.224  13.861  0.00  0.00    +0.022 C 
BRANCH   5  12
ATOM      8  C   UNL     1      32.483  24.926  10.262  0.00  0.00    +0.052 A 
ATOM      9  C   UNL     1      31.429  25.840  10.275  0.00  0.00    +0.019 A 
ATOM     10  C   UNL     1      30.689  26.028  11.443  0.00  0.00    +0.002 A 
ATOM     11  C   UNL     1      31.018  25.323  12.605  0.00  0.00    +0.005 A 
ATOM     12  C   UNL     1      32.096  24.421  12.629  0.00  0.00    -0.031 A 
ATOM     13  C   UNL     1      32.797  24.217  11.425  0.00  0.00    +0.023 A 
BRANCH   8  15
ATOM     14  N   UNL     1      33.901  24.597   8.116  0.00  0.00    -0.191 NA
ATOM     15  C   UNL     1      33.267  24.736   9.080  0.00  0.00    +0.099 C 
ENDBRANCH   8  15
ENDBRANCH   5  12
ENDBRANCH   1   5
BRANCH   3  16
ATOM     16  C   UNL     1      29.964  20.930  14.031  0.00  0.00    +0.159 C 
BRANCH  16  17
ATOM     17  C   UNL     1      30.455  19.548  13.662  0.00  0.00    +0.058 A 
ATOM     18  C   UNL     1      29.912  18.420  14.282  0.00  0.00    +0.028 A 
ATOM     19  C   UNL     1      30.399  17.158  13.945  0.00  0.00    +0.042 A 
ATOM     20  C   UNL     1      31.404  17.064  12.998  0.00  0.00    +0.141 A 
ATOM     21  F   UNL     1      31.900  15.869  12.653  0.00  0.00    -0.204 F 
ATOM     22  C   UNL     1      31.885  18.222  12.415  0.00  0.00    +0.149 A 
ATOM     23  N   UNL     1      31.432  19.463  12.719  0.00  0.00    -0.255 NA
ENDBRANCH  16  17
ENDBRANCH   3  16
TORSDOF 5
ENDMDL
