MODEL 1
REMARK VINA RESULT:      -8.1      0.000      0.000
REMARK  Name = ZINC000329563636
REMARK  3 active torsions:
REMARK  status: ('A' for Active; 'I' for Inactive)
REMARK    1  A    between atoms: C_1  and  C_2
REMARK    2  A    between atoms: C_2  and  N_3
REMARK    3  A    between atoms: N_9  and  C_10
REMARK                            x       y       z     vdW  Elec       q    Type
REMARK                         _______ _______ _______ _____ _____    ______ ____
ROOT
ATOM      1  C   UNL     1      30.043  23.571  14.901  0.00  0.00    +0.112 C 
ATOM      2  C   UNL     1      28.956  22.494  14.839  0.00  0.00    +0.075 C 
ATOM      3  C   UNL     1      28.650  21.803  16.177  0.00  0.00    +0.113 C 
ATOM      4  C   UNL     1      27.642  22.557  17.083  0.00  0.00    +0.048 C 
ATOM      5  C   UNL     1      26.380  21.703  17.122  0.00  0.00    +0.004 C 
ATOM      6  C   UNL     1      26.887  20.287  16.938  0.00  0.00    +0.004 C 
ATOM      7  C   UNL     1      27.963  20.446  15.878  0.00  0.00    +0.048 C 
ATOM      8  O   UNL     1      29.851  21.517  16.918  0.00  0.00    -0.485 OA
ATOM      9  C   UNL     1      30.609  22.631  17.164  0.00  0.00    +0.126 A 
ATOM     10  C   UNL     1      31.284  22.695  18.381  0.00  0.00    +0.046 A 
ATOM     11  C   UNL     1      32.039  23.825  18.702  0.00  0.00    +0.004 A 
ATOM     12  C   UNL     1      32.134  24.880  17.797  0.00  0.00    +0.001 A 
ATOM     13  C   UNL     1      31.483  24.797  16.567  0.00  0.00    +0.009 A 
ATOM     14  C   UNL     1      30.712  23.668  16.241  0.00  0.00    +0.015 A 
ENDROOT
BRANCH   1  21
ATOM     15  N   UNL     1      34.442  23.992  10.420  0.00  0.00    -0.299 N 
ATOM     16  C   UNL     1      33.260  24.821  10.191  0.00  0.00    +0.127 C 
ATOM     17  C   UNL     1      31.962  24.049  10.407  0.00  0.00    +0.129 C 
ATOM     18  N   UNL     1      31.966  23.483  11.748  0.00  0.00    -0.275 N 
ATOM     19  C   UNL     1      30.972  23.843  12.630  0.00  0.00    +0.303 C 
ATOM     20  O   UNL     1      30.070  24.623  12.327  0.00  0.00    -0.253 OA
ATOM     21  N   UNL     1      31.059  23.308  13.882  0.00  0.00    -0.292 N 
ATOM     22  C   UNL     1      33.102  22.601  12.030  0.00  0.00    +0.205 C 
ATOM     23  C   UNL     1      34.409  22.885  11.262  0.00  0.00    +0.233 C 
ATOM     24  O   UNL     1      35.386  22.148  11.416  0.00  0.00    -0.274 OA
ATOM     25  H   UNL     1      31.555  22.439  13.992  0.00  0.00    +0.151 HD
BRANCH  15  27
ATOM     26  C   UNL     1      35.837  24.009   8.383  0.00  0.00    +0.024 C 
ATOM     27  C   UNL     1      35.710  24.420   9.839  0.00  0.00    +0.104 C 
ENDBRANCH  15  27
ENDBRANCH   1  21
TORSDOF 2
ENDMDL
MODEL 2
REMARK VINA RESULT:      -7.9      3.318      7.485
REMARK  Name = ZINC000329563636
REMARK  3 active torsions:
REMARK  status: ('A' for Active; 'I' for Inactive)
REMARK    1  A    between atoms: C_1  and  C_2
REMARK    2  A    between atoms: C_2  and  N_3
REMARK    3  A    between atoms: N_9  and  C_10
REMARK                            x       y       z     vdW  Elec       q    Type
REMARK                         _______ _______ _______ _____ _____    ______ ____
ROOT
ATOM      1  C   UNL     1      30.722  23.925  16.394  0.00  0.00    +0.112 C 
ATOM      2  C   UNL     1      31.421  24.350  15.099  0.00  0.00    +0.075 C 
ATOM      3  C   UNL     1      30.816  23.765  13.813  0.00  0.00    +0.113 C 
ATOM      4  C   UNL     1      29.609  24.555  13.244  0.00  0.00    +0.048 C 
ATOM      5  C   UNL     1      30.083  25.179  11.937  0.00  0.00    +0.004 C 
ATOM      6  C   UNL     1      31.138  24.216  11.430  0.00  0.00    +0.004 C 
ATOM      7  C   UNL     1      31.887  23.835  12.695  0.00  0.00    +0.048 C 
ATOM      8  O   UNL     1      30.459  22.379  13.973  0.00  0.00    -0.485 OA
ATOM      9  C   UNL     1      29.585  22.164  15.005  0.00  0.00    +0.126 A 
ATOM     10  C   UNL     1      28.623  21.170  14.839  0.00  0.00    +0.046 A 
ATOM     11  C   UNL     1      27.681  20.936  15.842  0.00  0.00    +0.004 A 
ATOM     12  C   UNL     1      27.714  21.681  17.018  0.00  0.00    +0.001 A 
ATOM     13  C   UNL     1      28.699  22.654  17.194  0.00  0.00    +0.009 A 
ATOM     14  C   UNL     1      29.644  22.903  16.184  0.00  0.00    +0.015 A 
ENDROOT
BRANCH   1  21
ATOM     15  N   UNL     1      34.053  22.338  21.492  0.00  0.00    -0.299 N 
ATOM     16  C   UNL     1      33.677  23.750  21.427  0.00  0.00    +0.127 C 
ATOM     17  C   UNL     1      33.962  24.360  20.058  0.00  0.00    +0.129 C 
ATOM     18  N   UNL     1      33.276  23.578  19.039  0.00  0.00    -0.275 N 
ATOM     19  C   UNL     1      32.339  24.192  18.240  0.00  0.00    +0.303 C 
ATOM     20  O   UNL     1      32.059  25.385  18.348  0.00  0.00    -0.253 OA
ATOM     21  N   UNL     1      31.706  23.391  17.335  0.00  0.00    -0.292 N 
ATOM     22  C   UNL     1      33.642  22.159  19.018  0.00  0.00    +0.205 C 
ATOM     23  C   UNL     1      34.095  21.538  20.356  0.00  0.00    +0.233 C 
ATOM     24  O   UNL     1      34.465  20.362  20.394  0.00  0.00    -0.274 OA
ATOM     25  H   UNL     1      32.180  22.559  17.026  0.00  0.00    +0.151 HD
BRANCH  15  27
ATOM     26  C   UNL     1      33.665  22.580  23.919  0.00  0.00    +0.024 C 
ATOM     27  C   UNL     1      34.267  21.741  22.806  0.00  0.00    +0.104 C 
ENDBRANCH  15  27
ENDBRANCH   1  21
TORSDOF 2
ENDMDL
MODEL 3
REMARK VINA RESULT:      -7.8      3.443      7.186
REMARK  Name = ZINC000329563636
REMARK  3 active torsions:
REMARK  status: ('A' for Active; 'I' for Inactive)
REMARK    1  A    between atoms: C_1  and  C_2
REMARK    2  A    between atoms: C_2  and  N_3
REMARK    3  A    between atoms: N_9  and  C_10
REMARK                            x       y       z     vdW  Elec       q    Type
REMARK                         _______ _______ _______ _____ _____    ______ ____
ROOT
ATOM      1  C   UNL     1      31.126  23.625  16.248  0.00  0.00    +0.112 C 
ATOM      2  C   UNL     1      31.657  24.206  14.934  0.00  0.00    +0.075 C 
ATOM      3  C   UNL     1      30.872  23.794  13.679  0.00  0.00    +0.113 C 
ATOM      4  C   UNL     1      29.619  24.658  13.382  0.00  0.00    +0.048 C 
ATOM      5  C   UNL     1      29.930  25.440  12.110  0.00  0.00    +0.004 C 
ATOM      6  C   UNL     1      30.885  24.542  11.350  0.00  0.00    +0.004 C 
ATOM      7  C   UNL     1      31.786  23.998  12.444  0.00  0.00    +0.048 C 
ATOM      8  O   UNL     1      30.506  22.401  13.710  0.00  0.00    -0.485 OA
ATOM      9  C   UNL     1      29.772  22.063  14.817  0.00  0.00    +0.126 A 
ATOM     10  C   UNL     1      28.773  21.105  14.659  0.00  0.00    +0.046 A 
ATOM     11  C   UNL     1      27.967  20.752  15.743  0.00  0.00    +0.004 A 
ATOM     12  C   UNL     1      28.175  21.341  16.988  0.00  0.00    +0.001 A 
ATOM     13  C   UNL     1      29.197  22.277  17.148  0.00  0.00    +0.009 A 
ATOM     14  C   UNL     1      30.005  22.646  16.060  0.00  0.00    +0.015 A 
ENDROOT
BRANCH   1  21
ATOM     15  N   UNL     1      34.775  20.816  20.537  0.00  0.00    -0.299 N 
ATOM     16  C   UNL     1      34.094  22.018  21.013  0.00  0.00    +0.127 C 
ATOM     17  C   UNL     1      34.222  23.181  20.033  0.00  0.00    +0.129 C 
ATOM     18  N   UNL     1      33.719  22.761  18.733  0.00  0.00    -0.275 N 
ATOM     19  C   UNL     1      32.661  23.440  18.174  0.00  0.00    +0.303 C 
ATOM     20  O   UNL     1      32.123  24.398  18.728  0.00  0.00    -0.253 OA
ATOM     21  N   UNL     1      32.213  22.968  16.974  0.00  0.00    -0.292 N 
ATOM     22  C   UNL     1      34.392  21.586  18.174  0.00  0.00    +0.205 C 
ATOM     23  C   UNL     1      34.985  20.579  19.183  0.00  0.00    +0.233 C 
ATOM     24  O   UNL     1      35.608  19.596  18.776  0.00  0.00    -0.274 OA
ATOM     25  H   UNL     1      32.858  22.455  16.397  0.00  0.00    +0.151 HD
BRANCH  15  27
ATOM     26  C   UNL     1      33.944  18.916  21.878  0.00  0.00    +0.024 C 
ATOM     27  C   UNL     1      35.130  19.791  21.513  0.00  0.00    +0.104 C 
ENDBRANCH  15  27
ENDBRANCH   1  21
TORSDOF 2
ENDMDL
MODEL 4
REMARK VINA RESULT:      -6.7      3.555      6.103
REMARK  Name = ZINC000329563636
REMARK  3 active torsions:
REMARK  status: ('A' for Active; 'I' for Inactive)
REMARK    1  A    between atoms: C_1  and  C_2
REMARK    2  A    between atoms: C_2  and  N_3
REMARK    3  A    between atoms: N_9  and  C_10
REMARK                            x       y       z     vdW  Elec       q    Type
REMARK                         _______ _______ _______ _____ _____    ______ ____
ROOT
ATOM      1  C   UNL     1      31.553  22.623  16.632  0.00  0.00    +0.112 C 
ATOM      2  C   UNL     1      30.241  22.288  17.348  0.00  0.00    +0.075 C 
ATOM      3  C   UNL     1      28.976  22.449  16.491  0.00  0.00    +0.113 C 
ATOM      4  C   UNL     1      28.631  21.225  15.604  0.00  0.00    +0.048 C 
ATOM      5  C   UNL     1      27.352  20.626  16.179  0.00  0.00    +0.004 C 
ATOM      6  C   UNL     1      26.633  21.812  16.791  0.00  0.00    +0.004 C 
ATOM      7  C   UNL     1      27.760  22.595  17.441  0.00  0.00    +0.048 C 
ATOM      8  O   UNL     1      29.026  23.638  15.680  0.00  0.00    -0.485 OA
ATOM      9  C   UNL     1      30.121  23.682  14.858  0.00  0.00    +0.126 A 
ATOM     10  C   UNL     1      29.958  24.256  13.598  0.00  0.00    +0.046 A 
ATOM     11  C   UNL     1      31.029  24.290  12.704  0.00  0.00    +0.004 A 
ATOM     12  C   UNL     1      32.267  23.770  13.076  0.00  0.00    +0.001 A 
ATOM     13  C   UNL     1      32.433  23.226  14.349  0.00  0.00    +0.009 A 
ATOM     14  C   UNL     1      31.357  23.177  15.252  0.00  0.00    +0.015 A 
ENDROOT
BRANCH   1  21
ATOM     15  N   UNL     1      35.844  26.653  18.858  0.00  0.00    -0.299 N 
ATOM     16  C   UNL     1      36.394  25.393  18.361  0.00  0.00    +0.127 C 
ATOM     17  C   UNL     1      35.628  24.182  18.885  0.00  0.00    +0.129 C 
ATOM     18  N   UNL     1      34.222  24.325  18.537  0.00  0.00    -0.275 N 
ATOM     19  C   UNL     1      33.627  23.367  17.748  0.00  0.00    +0.303 C 
ATOM     20  O   UNL     1      34.236  22.385  17.327  0.00  0.00    -0.253 OA
ATOM     21  N   UNL     1      32.318  23.585  17.426  0.00  0.00    -0.292 N 
ATOM     22  C   UNL     1      33.594  25.548  19.045  0.00  0.00    +0.205 C 
ATOM     23  C   UNL     1      34.513  26.771  19.243  0.00  0.00    +0.233 C 
ATOM     24  O   UNL     1      34.055  27.814  19.715  0.00  0.00    -0.274 OA
ATOM     25  H   UNL     1      31.768  24.158  18.043  0.00  0.00    +0.151 HD
BRANCH  15  27
ATOM     26  C   UNL     1      36.792  28.436  17.435  0.00  0.00    +0.024 C 
ATOM     27  C   UNL     1      36.695  27.838  18.828  0.00  0.00    +0.104 C 
ENDBRANCH  15  27
ENDBRANCH   1  21
TORSDOF 2
ENDMDL
MODEL 5
REMARK VINA RESULT:      -6.7      3.562      4.964
REMARK  Name = ZINC000329563636
REMARK  3 active torsions:
REMARK  status: ('A' for Active; 'I' for Inactive)
REMARK    1  A    between atoms: C_1  and  C_2
REMARK    2  A    between atoms: C_2  and  N_3
REMARK    3  A    between atoms: N_9  and  C_10
REMARK                            x       y       z     vdW  Elec       q    Type
REMARK                         _______ _______ _______ _____ _____    ______ ____
ROOT
ATOM      1  C   UNL     1      32.345  22.991  14.534  0.00  0.00    +0.112 C 
ATOM      2  C   UNL     1      31.562  22.553  15.776  0.00  0.00    +0.075 C 
ATOM      3  C   UNL     1      30.050  22.816  15.717  0.00  0.00    +0.113 C 
ATOM      4  C   UNL     1      29.226  21.719  14.994  0.00  0.00    +0.048 C 
ATOM      5  C   UNL     1      28.385  21.038  16.068  0.00  0.00    +0.004 C 
ATOM      6  C   UNL     1      28.153  22.125  17.099  0.00  0.00    +0.004 C 
ATOM      7  C   UNL     1      29.500  22.823  17.166  0.00  0.00    +0.048 C 
ATOM      8  O   UNL     1      29.754  24.104  15.144  0.00  0.00    -0.485 OA
ATOM      9  C   UNL     1      30.276  24.267  13.888  0.00  0.00    +0.126 A 
ATOM     10  C   UNL     1      29.530  25.003  12.970  0.00  0.00    +0.046 A 
ATOM     11  C   UNL     1      29.995  25.166  11.664  0.00  0.00    +0.004 A 
ATOM     12  C   UNL     1      31.214  24.611  11.283  0.00  0.00    +0.001 A 
ATOM     13  C   UNL     1      31.973  23.902  12.214  0.00  0.00    +0.009 A 
ATOM     14  C   UNL     1      31.507  23.724  13.528  0.00  0.00    +0.015 A 
ENDROOT
BRANCH   1  21
ATOM     15  N   UNL     1      37.624  26.408  14.774  0.00  0.00    -0.299 N 
ATOM     16  C   UNL     1      37.786  25.080  14.184  0.00  0.00    +0.127 C 
ATOM     17  C   UNL     1      37.127  23.991  15.024  0.00  0.00    +0.129 C 
ATOM     18  N   UNL     1      35.722  24.324  15.213  0.00  0.00    -0.275 N 
ATOM     19  C   UNL     1      34.760  23.451  14.758  0.00  0.00    +0.303 C 
ATOM     20  O   UNL     1      35.040  22.391  14.200  0.00  0.00    -0.253 OA
ATOM     21  N   UNL     1      33.465  23.845  14.930  0.00  0.00    -0.292 N 
ATOM     22  C   UNL     1      35.488  25.625  15.845  0.00  0.00    +0.205 C 
ATOM     23  C   UNL     1      36.560  26.712  15.616  0.00  0.00    +0.233 C 
ATOM     24  O   UNL     1      36.447  27.811  16.163  0.00  0.00    -0.274 OA
ATOM     25  H   UNL     1      33.262  24.493  15.672  0.00  0.00    +0.151 HD
BRANCH  15  27
ATOM     26  C   UNL     1      38.362  27.840  12.902  0.00  0.00    +0.024 C 
ATOM     27  C   UNL     1      38.543  27.464  14.362  0.00  0.00    +0.104 C 
ENDBRANCH  15  27
ENDBRANCH   1  21
TORSDOF 2
ENDMDL
MODEL 6
REMARK VINA RESULT:      -6.7     22.063     24.133
REMARK  Name = ZINC000329563636
REMARK  3 active torsions:
REMARK  status: ('A' for Active; 'I' for Inactive)
REMARK    1  A    between atoms: C_1  and  C_2
REMARK    2  A    between atoms: C_2  and  N_3
REMARK    3  A    between atoms: N_9  and  C_10
REMARK                            x       y       z     vdW  Elec       q    Type
REMARK                         _______ _______ _______ _____ _____    ______ ____
ROOT
ATOM      1  C   UNL     1      10.096  29.726   6.998  0.00  0.00    +0.112 C 
ATOM      2  C   UNL     1       9.520  28.822   8.092  0.00  0.00    +0.075 C 
ATOM      3  C   UNL     1      10.565  28.055   8.916  0.00  0.00    +0.113 C 
ATOM      4  C   UNL     1      11.171  28.850  10.101  0.00  0.00    +0.048 C 
ATOM      5  C   UNL     1      10.662  28.180  11.372  0.00  0.00    +0.004 C 
ATOM      6  C   UNL     1      10.465  26.731  10.971  0.00  0.00    +0.004 C 
ATOM      7  C   UNL     1       9.866  26.841   9.580  0.00  0.00    +0.048 C 
ATOM      8  O   UNL     1      11.622  27.534   8.087  0.00  0.00    -0.485 OA
ATOM      9  C   UNL     1      12.263  28.504   7.361  0.00  0.00    +0.126 A 
ATOM     10  C   UNL     1      13.633  28.357   7.157  0.00  0.00    +0.046 A 
ATOM     11  C   UNL     1      14.344  29.334   6.459  0.00  0.00    +0.004 A 
ATOM     12  C   UNL     1      13.681  30.448   5.949  0.00  0.00    +0.001 A 
ATOM     13  C   UNL     1      12.303  30.576   6.129  0.00  0.00    +0.009 A 
ATOM     14  C   UNL     1      11.583  29.601   6.839  0.00  0.00    +0.015 A 
ENDROOT
BRANCH   1  21
ATOM     15  N   UNL     1       8.004  29.768   1.063  0.00  0.00    -0.299 N 
ATOM     16  C   UNL     1       7.833  31.033   1.776  0.00  0.00    +0.127 C 
ATOM     17  C   UNL     1       7.234  30.836   3.165  0.00  0.00    +0.129 C 
ATOM     18  N   UNL     1       8.071  29.909   3.914  0.00  0.00    -0.275 N 
ATOM     19  C   UNL     1       8.651  30.330   5.089  0.00  0.00    +0.303 C 
ATOM     20  O   UNL     1       8.486  31.463   5.539  0.00  0.00    -0.253 OA
ATOM     21  N   UNL     1       9.455  29.425   5.718  0.00  0.00    -0.292 N 
ATOM     22  C   UNL     1       8.245  28.601   3.277  0.00  0.00    +0.205 C 
ATOM     23  C   UNL     1       8.162  28.562   1.736  0.00  0.00    +0.233 C 
ATOM     24  O   UNL     1       8.249  27.484   1.143  0.00  0.00    -0.274 OA
ATOM     25  H   UNL     1       9.292  28.447   5.545  0.00  0.00    +0.151 HD
BRANCH  15  27
ATOM     26  C   UNL     1       7.437  31.016  -0.992  0.00  0.00    +0.024 C 
ATOM     27  C   UNL     1       8.131  29.806  -0.390  0.00  0.00    +0.104 C 
ENDBRANCH  15  27
ENDBRANCH   1  21
TORSDOF 2
ENDMDL
MODEL 7
REMARK VINA RESULT:      -6.5     11.265     15.150
REMARK  Name = ZINC000329563636
REMARK  3 active torsions:
REMARK  status: ('A' for Active; 'I' for Inactive)
REMARK    1  A    between atoms: C_1  and  C_2
REMARK    2  A    between atoms: C_2  and  N_3
REMARK    3  A    between atoms: N_9  and  C_10
REMARK                            x       y       z     vdW  Elec       q    Type
REMARK                         _______ _______ _______ _____ _____    ______ ____
ROOT
ATOM      1  C   UNL     1      20.374  26.770  19.443  0.00  0.00    +0.112 C 
ATOM      2  C   UNL     1      20.970  26.761  20.854  0.00  0.00    +0.075 C 
ATOM      3  C   UNL     1      22.117  25.761  21.068  0.00  0.00    +0.113 C 
ATOM      4  C   UNL     1      23.516  26.276  20.642  0.00  0.00    +0.048 C 
ATOM      5  C   UNL     1      24.321  26.443  21.926  0.00  0.00    +0.004 C 
ATOM      6  C   UNL     1      23.741  25.401  22.862  0.00  0.00    +0.004 C 
ATOM      7  C   UNL     1      22.250  25.490  22.588  0.00  0.00    +0.048 C 
ATOM      8  O   UNL     1      21.849  24.496  20.433  0.00  0.00    -0.485 OA
ATOM      9  C   UNL     1      21.612  24.610  19.088  0.00  0.00    +0.126 A 
ATOM     10  C   UNL     1      22.073  23.586  18.263  0.00  0.00    +0.046 A 
ATOM     11  C   UNL     1      21.895  23.669  16.882  0.00  0.00    +0.004 A 
ATOM     12  C   UNL     1      21.237  24.765  16.328  0.00  0.00    +0.001 A 
ATOM     13  C   UNL     1      20.748  25.772  17.160  0.00  0.00    +0.009 A 
ATOM     14  C   UNL     1      20.934  25.701  18.551  0.00  0.00    +0.015 A 
ENDROOT
BRANCH   1  21
ATOM     15  N   UNL     1      14.177  26.739  18.351  0.00  0.00    -0.299 N 
ATOM     16  C   UNL     1      14.840  28.007  18.051  0.00  0.00    +0.127 C 
ATOM     17  C   UNL     1      15.769  28.453  19.176  0.00  0.00    +0.129 C 
ATOM     18  N   UNL     1      16.734  27.395  19.440  0.00  0.00    -0.275 N 
ATOM     19  C   UNL     1      18.076  27.660  19.295  0.00  0.00    +0.303 C 
ATOM     20  O   UNL     1      18.498  28.765  18.954  0.00  0.00    -0.253 OA
ATOM     21  N   UNL     1      18.922  26.613  19.518  0.00  0.00    -0.292 N 
ATOM     22  C   UNL     1      16.135  26.105  19.795  0.00  0.00    +0.205 C 
ATOM     23  C   UNL     1      14.735  25.806  19.218  0.00  0.00    +0.233 C 
ATOM     24  O   UNL     1      14.156  24.761  19.521  0.00  0.00    -0.274 OA
ATOM     25  H   UNL     1      18.606  25.869  20.119  0.00  0.00    +0.151 HD
BRANCH  15  27
ATOM     26  C   UNL     1      13.254  25.877  16.228  0.00  0.00    +0.024 C 
ATOM     27  C   UNL     1      12.958  26.407  17.621  0.00  0.00    +0.104 C 
ENDBRANCH  15  27
ENDBRANCH   1  21
TORSDOF 2
ENDMDL
MODEL 8
REMARK VINA RESULT:      -6.4      4.844      8.141
REMARK  Name = ZINC000329563636
REMARK  3 active torsions:
REMARK  status: ('A' for Active; 'I' for Inactive)
REMARK    1  A    between atoms: C_1  and  C_2
REMARK    2  A    between atoms: C_2  and  N_3
REMARK    3  A    between atoms: N_9  and  C_10
REMARK                            x       y       z     vdW  Elec       q    Type
REMARK                         _______ _______ _______ _____ _____    ______ ____
ROOT
ATOM      1  C   UNL     1      34.392  22.731  20.971  0.00  0.00    +0.112 C 
ATOM      2  C   UNL     1      34.198  23.471  22.298  0.00  0.00    +0.075 C 
ATOM      3  C   UNL     1      34.354  22.601  23.554  0.00  0.00    +0.113 C 
ATOM      4  C   UNL     1      35.815  22.418  24.042  0.00  0.00    +0.048 C 
ATOM      5  C   UNL     1      35.921  23.167  25.366  0.00  0.00    +0.004 C 
ATOM      6  C   UNL     1      34.523  23.092  25.945  0.00  0.00    +0.004 C 
ATOM      7  C   UNL     1      33.639  23.313  24.731  0.00  0.00    +0.048 C 
ATOM      8  O   UNL     1      33.730  21.313  23.394  0.00  0.00    -0.485 OA
ATOM      9  C   UNL     1      34.206  20.615  22.316  0.00  0.00    +0.126 A 
ATOM     10  C   UNL     1      34.314  19.231  22.441  0.00  0.00    +0.046 A 
ATOM     11  C   UNL     1      34.831  18.474  21.389  0.00  0.00    +0.004 A 
ATOM     12  C   UNL     1      35.222  19.098  20.206  0.00  0.00    +0.001 A 
ATOM     13  C   UNL     1      35.083  20.479  20.074  0.00  0.00    +0.009 A 
ATOM     14  C   UNL     1      34.573  21.250  21.133  0.00  0.00    +0.015 A 
ENDROOT
BRANCH   1  21
ATOM     15  N   UNL     1      30.527  23.604  16.082  0.00  0.00    -0.299 N 
ATOM     16  C   UNL     1      31.778  24.357  16.009  0.00  0.00    +0.127 C 
ATOM     17  C   UNL     1      32.097  25.075  17.317  0.00  0.00    +0.129 C 
ATOM     18  N   UNL     1      32.123  24.099  18.397  0.00  0.00    -0.275 N 
ATOM     19  C   UNL     1      33.280  23.935  19.124  0.00  0.00    +0.303 C 
ATOM     20  O   UNL     1      34.299  24.587  18.901  0.00  0.00    -0.253 OA
ATOM     21  N   UNL     1      33.247  22.976  20.095  0.00  0.00    -0.292 N 
ATOM     22  C   UNL     1      30.879  23.340  18.557  0.00  0.00    +0.205 C 
ATOM     23  C   UNL     1      30.026  23.130  17.289  0.00  0.00    +0.233 C 
ATOM     24  O   UNL     1      28.944  22.544  17.366  0.00  0.00    -0.274 OA
ATOM     25  H   UNL     1      32.353  22.730  20.487  0.00  0.00    +0.151 HD
BRANCH  15  27
ATOM     26  C   UNL     1      30.031  24.318  13.770  0.00  0.00    +0.024 C 
ATOM     27  C   UNL     1      29.862  23.246  14.833  0.00  0.00    +0.104 C 
ENDBRANCH  15  27
ENDBRANCH   1  21
TORSDOF 2
ENDMDL
MODEL 9
REMARK VINA RESULT:      -6.2      3.351      6.323
REMARK  Name = ZINC000329563636
REMARK  3 active torsions:
REMARK  status: ('A' for Active; 'I' for Inactive)
REMARK    1  A    between atoms: C_1  and  C_2
REMARK    2  A    between atoms: C_2  and  N_3
REMARK    3  A    between atoms: N_9  and  C_10
REMARK                            x       y       z     vdW  Elec       q    Type
REMARK                         _______ _______ _______ _____ _____    ______ ____
ROOT
ATOM      1  C   UNL     1      32.042  22.900  15.263  0.00  0.00    +0.112 C 
ATOM      2  C   UNL     1      30.969  22.328  16.194  0.00  0.00    +0.075 C 
ATOM      3  C   UNL     1      29.522  22.527  15.716  0.00  0.00    +0.113 C 
ATOM      4  C   UNL     1      29.014  21.456  14.717  0.00  0.00    +0.048 C 
ATOM      5  C   UNL     1      27.949  20.653  15.455  0.00  0.00    +0.004 C 
ATOM      6  C   UNL     1      27.360  21.642  16.441  0.00  0.00    +0.004 C 
ATOM      7  C   UNL     1      28.582  22.392  16.940  0.00  0.00    +0.048 C 
ATOM      8  O   UNL     1      29.317  23.842  15.165  0.00  0.00    -0.485 OA
ATOM      9  C   UNL     1      30.165  24.129  14.128  0.00  0.00    +0.126 A 
ATOM     10  C   UNL     1      29.665  24.902  13.082  0.00  0.00    +0.046 A 
ATOM     11  C   UNL     1      30.472  25.190  11.980  0.00  0.00    +0.004 A 
ATOM     12  C   UNL     1      31.783  24.723  11.934  0.00  0.00    +0.001 A 
ATOM     13  C   UNL     1      32.290  23.977  12.998  0.00  0.00    +0.009 A 
ATOM     14  C   UNL     1      31.480  23.673  14.106  0.00  0.00    +0.015 A 
ENDROOT
BRANCH   1  21
ATOM     15  N   UNL     1      35.315  25.878  19.738  0.00  0.00    -0.299 N 
ATOM     16  C   UNL     1      33.882  25.765  20.007  0.00  0.00    +0.127 C 
ATOM     17  C   UNL     1      33.036  26.159  18.799  0.00  0.00    +0.129 C 
ATOM     18  N   UNL     1      33.432  25.344  17.659  0.00  0.00    -0.275 N 
ATOM     19  C   UNL     1      32.495  24.536  17.056  0.00  0.00    +0.303 C 
ATOM     20  O   UNL     1      31.327  24.477  17.440  0.00  0.00    -0.253 OA
ATOM     21  N   UNL     1      32.943  23.768  16.020  0.00  0.00    -0.292 N 
ATOM     22  C   UNL     1      34.850  25.446  17.305  0.00  0.00    +0.205 C 
ATOM     23  C   UNL     1      35.830  25.776  18.451  0.00  0.00    +0.233 C 
ATOM     24  O   UNL     1      37.030  25.926  18.209  0.00  0.00    -0.274 OA
ATOM     25  H   UNL     1      33.753  24.084  15.514  0.00  0.00    +0.151 HD
BRANCH  15  27
ATOM     26  C   UNL     1      35.658  26.848  21.983  0.00  0.00    +0.024 C 
ATOM     27  C   UNL     1      36.224  25.978  20.875  0.00  0.00    +0.104 C 
ENDBRANCH  15  27
ENDBRANCH   1  21
TORSDOF 2
ENDMDL
