MODEL 1
REMARK VINA RESULT:      -6.9      0.000      0.000
REMARK  Name = ZINC001228612316
REMARK  5 active torsions:
REMARK  status: ('A' for Active; 'I' for Inactive)
REMARK    1  A    between atoms: C_2  and  C_4
REMARK    2  A    between atoms: C_8  and  O_9
REMARK    3  A    between atoms: O_9  and  C_10
REMARK    4  A    between atoms: C_10  and  C_11
REMARK    5  A    between atoms: C_10  and  C_17
REMARK                            x       y       z     vdW  Elec       q    Type
REMARK                         _______ _______ _______ _____ _____    ______ ____
ROOT
ATOM      1  C   UNL     1      29.254  14.588  13.614  0.00  0.00    +0.040 A 
ATOM      2  C   UNL     1      28.361  14.270  14.640  0.00  0.00    +0.013 A 
ATOM      3  C   UNL     1      28.441  14.949  15.858  0.00  0.00    +0.004 A 
ATOM      4  C   UNL     1      29.403  15.947  16.043  0.00  0.00    +0.046 A 
ATOM      5  C   UNL     1      30.292  16.274  15.016  0.00  0.00    +0.122 A 
ATOM      6  C   UNL     1      30.229  15.568  13.819  0.00  0.00    +0.058 A 
ENDROOT
BRANCH   1   8
ATOM      7  N   UNL     1      28.430  12.833  12.137  0.00  0.00    -0.325 N 
ATOM      8  C   UNL     1      29.226  13.933  12.282  0.00  0.00    +0.242 C 
ATOM      9  O   UNL     1      29.840  14.392  11.326  0.00  0.00    -0.270 OA
ATOM     10  H   UNL     1      28.318  12.496  11.188  0.00  0.00    +0.145 HD
ATOM     11  H   UNL     1      27.711  12.598  12.804  0.00  0.00    +0.145 HD
ENDBRANCH   1   8
BRANCH   5  12
ATOM     12  O   UNL     1      31.187  17.270  15.291  0.00  0.00    -0.484 OA
BRANCH  12  13
ATOM     13  C   UNL     1      31.076  18.495  14.543  0.00  0.00    +0.208 C 
BRANCH  13  14
ATOM     14  C   UNL     1      30.518  19.574  15.448  0.00  0.00    +0.011 A 
ATOM     15  C   UNL     1      30.233  20.845  14.934  0.00  0.00    +0.010 A 
ATOM     16  C   UNL     1      29.727  21.838  15.764  0.00  0.00    +0.020 A 
ATOM     17  C   UNL     1      29.517  21.526  17.095  0.00  0.00    +0.111 A 
ATOM     18  N   UNL     1      29.782  20.317  17.636  0.00  0.00    -0.263 NA
ATOM     19  C   UNL     1      30.278  19.370  16.802  0.00  0.00    +0.118 A 
ENDBRANCH  13  14
BRANCH  13  20
ATOM     20  C   UNL     1      32.438  18.897  14.023  0.00  0.00    +0.034 C 
ATOM     21  C   UNL     1      32.616  19.601  12.694  0.00  0.00    +0.008 C 
ATOM     22  C   UNL     1      33.059  18.179  12.841  0.00  0.00    +0.008 C 
ENDBRANCH  13  20
ENDBRANCH  12  13
ENDBRANCH   5  12
TORSDOF 5
ENDMDL
MODEL 2
REMARK VINA RESULT:      -6.9      2.074      6.349
REMARK  Name = ZINC001228612316
REMARK  5 active torsions:
REMARK  status: ('A' for Active; 'I' for Inactive)
REMARK    1  A    between atoms: C_2  and  C_4
REMARK    2  A    between atoms: C_8  and  O_9
REMARK    3  A    between atoms: O_9  and  C_10
REMARK    4  A    between atoms: C_10  and  C_11
REMARK    5  A    between atoms: C_10  and  C_17
REMARK                            x       y       z     vdW  Elec       q    Type
REMARK                         _______ _______ _______ _____ _____    ______ ____
ROOT
ATOM      1  C   UNL     1      30.402  20.909  15.053  0.00  0.00    +0.040 A 
ATOM      2  C   UNL     1      29.952  20.804  16.371  0.00  0.00    +0.013 A 
ATOM      3  C   UNL     1      29.849  19.545  16.967  0.00  0.00    +0.004 A 
ATOM      4  C   UNL     1      30.205  18.398  16.249  0.00  0.00    +0.046 A 
ATOM      5  C   UNL     1      30.663  18.499  14.933  0.00  0.00    +0.122 A 
ATOM      6  C   UNL     1      30.728  19.754  14.335  0.00  0.00    +0.058 A 
ENDROOT
BRANCH   1   8
ATOM      7  N   UNL     1      30.642  23.333  15.116  0.00  0.00    -0.325 N 
ATOM      8  C   UNL     1      30.561  22.206  14.349  0.00  0.00    +0.242 C 
ATOM      9  O   UNL     1      30.682  22.268  13.132  0.00  0.00    -0.270 OA
ATOM     10  H   UNL     1      30.896  24.181  14.624  0.00  0.00    +0.145 HD
ATOM     11  H   UNL     1      30.826  23.296  16.108  0.00  0.00    +0.145 HD
ENDBRANCH   1   8
BRANCH   5  12
ATOM     12  O   UNL     1      30.995  17.323  14.321  0.00  0.00    -0.484 OA
BRANCH  12  13
ATOM     13  C   UNL     1      30.882  16.112  15.092  0.00  0.00    +0.208 C 
BRANCH  13  14
ATOM     14  C   UNL     1      30.000  15.134  14.344  0.00  0.00    +0.011 A 
ATOM     15  C   UNL     1      28.672  14.937  14.745  0.00  0.00    +0.010 A 
ATOM     16  C   UNL     1      27.863  14.036  14.064  0.00  0.00    +0.020 A 
ATOM     17  C   UNL     1      28.410  13.354  12.992  0.00  0.00    +0.111 A 
ATOM     18  N   UNL     1      29.684  13.508  12.573  0.00  0.00    -0.263 NA
ATOM     19  C   UNL     1      30.450  14.391  13.259  0.00  0.00    +0.118 A 
ENDBRANCH  13  14
BRANCH  13  20
ATOM     20  C   UNL     1      32.257  15.519  15.310  0.00  0.00    +0.034 C 
ATOM     21  C   UNL     1      32.591  14.692  16.534  0.00  0.00    +0.008 C 
ATOM     22  C   UNL     1      33.173  16.064  16.389  0.00  0.00    +0.008 C 
ENDBRANCH  13  20
ENDBRANCH  12  13
ENDBRANCH   5  12
TORSDOF 5
ENDMDL
MODEL 3
REMARK VINA RESULT:      -6.8      1.833      2.424
REMARK  Name = ZINC001228612316
REMARK  5 active torsions:
REMARK  status: ('A' for Active; 'I' for Inactive)
REMARK    1  A    between atoms: C_2  and  C_4
REMARK    2  A    between atoms: C_8  and  O_9
REMARK    3  A    between atoms: O_9  and  C_10
REMARK    4  A    between atoms: C_10  and  C_11
REMARK    5  A    between atoms: C_10  and  C_17
REMARK                            x       y       z     vdW  Elec       q    Type
REMARK                         _______ _______ _______ _____ _____    ______ ____
ROOT
ATOM      1  C   UNL     1      29.470  14.577  13.506  0.00  0.00    +0.040 A 
ATOM      2  C   UNL     1      30.553  14.628  12.624  0.00  0.00    +0.013 A 
ATOM      3  C   UNL     1      31.662  15.416  12.940  0.00  0.00    +0.004 A 
ATOM      4  C   UNL     1      31.691  16.140  14.137  0.00  0.00    +0.046 A 
ATOM      5  C   UNL     1      30.614  16.084  15.024  0.00  0.00    +0.122 A 
ATOM      6  C   UNL     1      29.497  15.326  14.686  0.00  0.00    +0.058 A 
ENDROOT
BRANCH   1   8
ATOM      7  N   UNL     1      28.356  12.757  12.329  0.00  0.00    -0.325 N 
ATOM      8  C   UNL     1      28.261  13.751  13.260  0.00  0.00    +0.242 C 
ATOM      9  O   UNL     1      27.234  13.905  13.909  0.00  0.00    -0.270 OA
ATOM     10  H   UNL     1      27.569  12.120  12.287  0.00  0.00    +0.145 HD
ATOM     11  H   UNL     1      29.245  12.425  11.985  0.00  0.00    +0.145 HD
ENDBRANCH   1   8
BRANCH   5  12
ATOM     12  O   UNL     1      30.742  16.819  16.171  0.00  0.00    -0.484 OA
BRANCH  12  13
ATOM     13  C   UNL     1      31.625  17.956  16.142  0.00  0.00    +0.208 C 
BRANCH  13  14
ATOM     14  C   UNL     1      30.800  19.221  16.250  0.00  0.00    +0.011 A 
ATOM     15  C   UNL     1      30.703  20.094  15.158  0.00  0.00    +0.010 A 
ATOM     16  C   UNL     1      29.952  21.258  15.258  0.00  0.00    +0.020 A 
ATOM     17  C   UNL     1      29.313  21.517  16.458  0.00  0.00    +0.111 A 
ATOM     18  N   UNL     1      29.383  20.709  17.537  0.00  0.00    -0.263 NA
ATOM     19  C   UNL     1      30.126  19.582  17.411  0.00  0.00    +0.118 A 
ENDBRANCH  13  14
BRANCH  13  20
ATOM     20  C   UNL     1      32.605  17.866  17.290  0.00  0.00    +0.034 C 
ATOM     21  C   UNL     1      33.823  18.762  17.380  0.00  0.00    +0.008 C 
ATOM     22  C   UNL     1      33.998  17.306  17.078  0.00  0.00    +0.008 C 
ENDBRANCH  13  20
ENDBRANCH  12  13
ENDBRANCH   5  12
TORSDOF 5
ENDMDL
MODEL 4
REMARK VINA RESULT:      -6.6      1.637      2.059
REMARK  Name = ZINC001228612316
REMARK  5 active torsions:
REMARK  status: ('A' for Active; 'I' for Inactive)
REMARK    1  A    between atoms: C_2  and  C_4
REMARK    2  A    between atoms: C_8  and  O_9
REMARK    3  A    between atoms: O_9  and  C_10
REMARK    4  A    between atoms: C_10  and  C_11
REMARK    5  A    between atoms: C_10  and  C_17
REMARK                            x       y       z     vdW  Elec       q    Type
REMARK                         _______ _______ _______ _____ _____    ______ ____
ROOT
ATOM      1  C   UNL     1      29.999  14.291  12.902  0.00  0.00    +0.040 A 
ATOM      2  C   UNL     1      28.719  13.747  13.024  0.00  0.00    +0.013 A 
ATOM      3  C   UNL     1      27.923  14.098  14.118  0.00  0.00    +0.004 A 
ATOM      4  C   UNL     1      28.403  14.997  15.076  0.00  0.00    +0.046 A 
ATOM      5  C   UNL     1      29.680  15.550  14.951  0.00  0.00    +0.122 A 
ATOM      6  C   UNL     1      30.480  15.167  13.879  0.00  0.00    +0.058 A 
ENDROOT
BRANCH   1   8
ATOM      7  N   UNL     1      31.167  12.677  11.499  0.00  0.00    -0.325 N 
ATOM      8  C   UNL     1      30.904  13.990  11.763  0.00  0.00    +0.242 C 
ATOM      9  O   UNL     1      31.348  14.876  11.043  0.00  0.00    -0.270 OA
ATOM     10  H   UNL     1      31.664  12.496  10.635  0.00  0.00    +0.145 HD
ATOM     11  H   UNL     1      30.610  11.928  11.883  0.00  0.00    +0.145 HD
ENDBRANCH   1   8
BRANCH   5  12
ATOM     12  O   UNL     1      30.053  16.426  15.933  0.00  0.00    -0.484 OA
BRANCH  12  13
ATOM     13  C   UNL     1      31.157  17.309  15.657  0.00  0.00    +0.208 C 
BRANCH  13  14
ATOM     14  C   UNL     1      30.661  18.739  15.691  0.00  0.00    +0.011 A 
ATOM     15  C   UNL     1      30.754  19.544  14.547  0.00  0.00    +0.010 A 
ATOM     16  C   UNL     1      30.306  20.858  14.579  0.00  0.00    +0.020 A 
ATOM     17  C   UNL     1      29.771  21.333  15.763  0.00  0.00    +0.111 A 
ATOM     18  N   UNL     1      29.666  20.597  16.890  0.00  0.00    -0.263 NA
ATOM     19  C   UNL     1      30.115  19.320  16.830  0.00  0.00    +0.118 A 
ENDBRANCH  13  14
BRANCH  13  20
ATOM     20  C   UNL     1      32.242  17.103  16.691  0.00  0.00    +0.034 C 
ATOM     21  C   UNL     1      33.591  17.783  16.588  0.00  0.00    +0.008 C 
ATOM     22  C   UNL     1      33.488  16.307  16.358  0.00  0.00    +0.008 C 
ENDBRANCH  13  20
ENDBRANCH  12  13
ENDBRANCH   5  12
TORSDOF 5
ENDMDL
MODEL 5
REMARK VINA RESULT:      -6.6      2.780      7.031
REMARK  Name = ZINC001228612316
REMARK  5 active torsions:
REMARK  status: ('A' for Active; 'I' for Inactive)
REMARK    1  A    between atoms: C_2  and  C_4
REMARK    2  A    between atoms: C_8  and  O_9
REMARK    3  A    between atoms: O_9  and  C_10
REMARK    4  A    between atoms: C_10  and  C_11
REMARK    5  A    between atoms: C_10  and  C_17
REMARK                            x       y       z     vdW  Elec       q    Type
REMARK                         _______ _______ _______ _____ _____    ______ ____
ROOT
ATOM      1  C   UNL     1      29.755  22.668  17.636  0.00  0.00    +0.040 A 
ATOM      2  C   UNL     1      28.431  22.340  17.937  0.00  0.00    +0.013 A 
ATOM      3  C   UNL     1      27.908  21.118  17.507  0.00  0.00    +0.004 A 
ATOM      4  C   UNL     1      28.711  20.226  16.788  0.00  0.00    +0.046 A 
ATOM      5  C   UNL     1      30.038  20.547  16.493  0.00  0.00    +0.122 A 
ATOM      6  C   UNL     1      30.540  21.781  16.893  0.00  0.00    +0.058 A 
ENDROOT
BRANCH   1   8
ATOM      7  N   UNL     1      29.783  24.644  19.062  0.00  0.00    -0.325 N 
ATOM      8  C   UNL     1      30.397  23.934  18.071  0.00  0.00    +0.242 C 
ATOM      9  O   UNL     1      31.471  24.302  17.611  0.00  0.00    -0.270 OA
ATOM     10  H   UNL     1      30.314  25.420  19.438  0.00  0.00    +0.145 HD
ATOM     11  H   UNL     1      29.066  24.241  19.647  0.00  0.00    +0.145 HD
ENDBRANCH   1   8
BRANCH   5  12
ATOM     12  O   UNL     1      30.743  19.605  15.795  0.00  0.00    -0.484 OA
BRANCH  12  13
ATOM     13  C   UNL     1      31.097  18.390  16.482  0.00  0.00    +0.208 C 
BRANCH  13  14
ATOM     14  C   UNL     1      30.531  17.211  15.718  0.00  0.00    +0.011 A 
ATOM     15  C   UNL     1      29.547  16.401  16.301  0.00  0.00    +0.010 A 
ATOM     16  C   UNL     1      29.033  15.316  15.603  0.00  0.00    +0.020 A 
ATOM     17  C   UNL     1      29.519  15.070  14.332  0.00  0.00    +0.111 A 
ATOM     18  N   UNL     1      30.469  15.820  13.733  0.00  0.00    -0.263 NA
ATOM     19  C   UNL     1      30.956  16.870  14.439  0.00  0.00    +0.118 A 
ENDBRANCH  13  14
BRANCH  13  20
ATOM     20  C   UNL     1      32.603  18.282  16.578  0.00  0.00    +0.034 C 
ATOM     21  C   UNL     1      33.287  17.047  17.125  0.00  0.00    +0.008 C 
ATOM     22  C   UNL     1      33.298  18.314  17.925  0.00  0.00    +0.008 C 
ENDBRANCH  13  20
ENDBRANCH  12  13
ENDBRANCH   5  12
TORSDOF 5
ENDMDL
MODEL 6
REMARK VINA RESULT:      -6.5      2.617      3.551
REMARK  Name = ZINC001228612316
REMARK  5 active torsions:
REMARK  status: ('A' for Active; 'I' for Inactive)
REMARK    1  A    between atoms: C_2  and  C_4
REMARK    2  A    between atoms: C_8  and  O_9
REMARK    3  A    between atoms: O_9  and  C_10
REMARK    4  A    between atoms: C_10  and  C_11
REMARK    5  A    between atoms: C_10  and  C_17
REMARK                            x       y       z     vdW  Elec       q    Type
REMARK                         _______ _______ _______ _____ _____    ______ ____
ROOT
ATOM      1  C   UNL     1      29.350  14.613  13.627  0.00  0.00    +0.040 A 
ATOM      2  C   UNL     1      28.472  14.394  14.691  0.00  0.00    +0.013 A 
ATOM      3  C   UNL     1      28.608  15.145  15.862  0.00  0.00    +0.004 A 
ATOM      4  C   UNL     1      29.610  16.116  15.960  0.00  0.00    +0.046 A 
ATOM      5  C   UNL     1      30.484  16.343  14.894  0.00  0.00    +0.122 A 
ATOM      6  C   UNL     1      30.365  15.567  13.746  0.00  0.00    +0.058 A 
ENDROOT
BRANCH   1   8
ATOM      7  N   UNL     1      28.366  12.852  12.259  0.00  0.00    -0.325 N 
ATOM      8  C   UNL     1      29.264  13.877  12.340  0.00  0.00    +0.242 C 
ATOM      9  O   UNL     1      29.924  14.211  11.363  0.00  0.00    -0.270 OA
ATOM     10  H   UNL     1      28.226  12.466  11.333  0.00  0.00    +0.145 HD
ATOM     11  H   UNL     1      27.625  12.732  12.933  0.00  0.00    +0.145 HD
ENDBRANCH   1   8
BRANCH   5  12
ATOM     12  O   UNL     1      31.422  17.320  15.084  0.00  0.00    -0.484 OA
BRANCH  12  13
ATOM     13  C   UNL     1      31.493  17.935  16.384  0.00  0.00    +0.208 C 
BRANCH  13  14
ATOM     14  C   UNL     1      32.799  17.541  17.043  0.00  0.00    +0.011 A 
ATOM     15  C   UNL     1      33.480  18.456  17.857  0.00  0.00    +0.010 A 
ATOM     16  C   UNL     1      34.681  18.099  18.456  0.00  0.00    +0.020 A 
ATOM     17  C   UNL     1      35.169  16.825  18.224  0.00  0.00    +0.111 A 
ATOM     18  N   UNL     1      34.549  15.913  17.444  0.00  0.00    -0.263 NA
ATOM     19  C   UNL     1      33.382  16.292  16.869  0.00  0.00    +0.118 A 
ENDBRANCH  13  14
BRANCH  13  20
ATOM     20  C   UNL     1      31.409  19.439  16.239  0.00  0.00    +0.034 C 
ATOM     21  C   UNL     1      30.390  20.264  16.997  0.00  0.00    +0.008 C 
ATOM     22  C   UNL     1      30.242  20.084  15.517  0.00  0.00    +0.008 C 
ENDBRANCH  13  20
ENDBRANCH  12  13
ENDBRANCH   5  12
TORSDOF 5
ENDMDL
MODEL 7
REMARK VINA RESULT:      -6.5      2.605      6.933
REMARK  Name = ZINC001228612316
REMARK  5 active torsions:
REMARK  status: ('A' for Active; 'I' for Inactive)
REMARK    1  A    between atoms: C_2  and  C_4
REMARK    2  A    between atoms: C_8  and  O_9
REMARK    3  A    between atoms: O_9  and  C_10
REMARK    4  A    between atoms: C_10  and  C_11
REMARK    5  A    between atoms: C_10  and  C_17
REMARK                            x       y       z     vdW  Elec       q    Type
REMARK                         _______ _______ _______ _____ _____    ______ ____
ROOT
ATOM      1  C   UNL     1      29.083  22.276  17.461  0.00  0.00    +0.040 A 
ATOM      2  C   UNL     1      30.258  23.024  17.566  0.00  0.00    +0.013 A 
ATOM      3  C   UNL     1      31.441  22.529  17.012  0.00  0.00    +0.004 A 
ATOM      4  C   UNL     1      31.444  21.298  16.349  0.00  0.00    +0.046 A 
ATOM      5  C   UNL     1      30.269  20.551  16.235  0.00  0.00    +0.122 A 
ATOM      6  C   UNL     1      29.103  21.034  16.821  0.00  0.00    +0.058 A 
ENDROOT
BRANCH   1   8
ATOM      7  N   UNL     1      27.791  23.416  19.185  0.00  0.00    -0.325 N 
ATOM      8  C   UNL     1      27.778  22.735  18.002  0.00  0.00    +0.242 C 
ATOM      9  O   UNL     1      26.733  22.570  17.385  0.00  0.00    -0.270 OA
ATOM     10  H   UNL     1      26.912  23.842  19.454  0.00  0.00    +0.145 HD
ATOM     11  H   UNL     1      28.637  23.808  19.571  0.00  0.00    +0.145 HD
ENDBRANCH   1   8
BRANCH   5  12
ATOM     12  O   UNL     1      30.373  19.366  15.560  0.00  0.00    -0.484 OA
BRANCH  12  13
ATOM     13  C   UNL     1      30.759  18.200  16.311  0.00  0.00    +0.208 C 
BRANCH  13  14
ATOM     14  C   UNL     1      30.220  16.968  15.616  0.00  0.00    +0.011 A 
ATOM     15  C   UNL     1      29.321  16.122  16.280  0.00  0.00    +0.010 A 
ATOM     16  C   UNL     1      28.830  14.988  15.646  0.00  0.00    +0.020 A 
ATOM     17  C   UNL     1      29.255  14.730  14.355  0.00  0.00    +0.111 A 
ATOM     18  N   UNL     1      30.123  15.513  13.679  0.00  0.00    -0.263 NA
ATOM     19  C   UNL     1      30.588  16.611  14.324  0.00  0.00    +0.118 A 
ENDBRANCH  13  14
BRANCH  13  20
ATOM     20  C   UNL     1      32.268  18.134  16.404  0.00  0.00    +0.034 C 
ATOM     21  C   UNL     1      32.987  16.927  16.968  0.00  0.00    +0.008 C 
ATOM     22  C   UNL     1      32.964  18.204  17.749  0.00  0.00    +0.008 C 
ENDBRANCH  13  20
ENDBRANCH  12  13
ENDBRANCH   5  12
TORSDOF 5
ENDMDL
MODEL 8
REMARK VINA RESULT:      -6.4      2.016      6.342
REMARK  Name = ZINC001228612316
REMARK  5 active torsions:
REMARK  status: ('A' for Active; 'I' for Inactive)
REMARK    1  A    between atoms: C_2  and  C_4
REMARK    2  A    between atoms: C_8  and  O_9
REMARK    3  A    between atoms: O_9  and  C_10
REMARK    4  A    between atoms: C_10  and  C_11
REMARK    5  A    between atoms: C_10  and  C_17
REMARK                            x       y       z     vdW  Elec       q    Type
REMARK                         _______ _______ _______ _____ _____    ______ ____
ROOT
ATOM      1  C   UNL     1      29.980  20.695  16.208  0.00  0.00    +0.040 A 
ATOM      2  C   UNL     1      30.796  21.660  15.613  0.00  0.00    +0.013 A 
ATOM      3  C   UNL     1      31.665  21.287  14.584  0.00  0.00    +0.004 A 
ATOM      4  C   UNL     1      31.708  19.959  14.148  0.00  0.00    +0.046 A 
ATOM      5  C   UNL     1      30.887  18.993  14.736  0.00  0.00    +0.122 A 
ATOM      6  C   UNL     1      30.051  19.364  15.784  0.00  0.00    +0.058 A 
ENDROOT
BRANCH   1   8
ATOM      7  N   UNL     1      27.884  20.242  17.367  0.00  0.00    -0.325 N 
ATOM      8  C   UNL     1      29.013  21.005  17.292  0.00  0.00    +0.242 C 
ATOM      9  O   UNL     1      29.243  21.869  18.130  0.00  0.00    -0.270 OA
ATOM     10  H   UNL     1      27.319  20.378  18.196  0.00  0.00    +0.145 HD
ATOM     11  H   UNL     1      27.796  19.362  16.881  0.00  0.00    +0.145 HD
ENDBRANCH   1   8
BRANCH   5  12
ATOM     12  O   UNL     1      30.996  17.726  14.233  0.00  0.00    -0.484 OA
BRANCH  12  13
ATOM     13  C   UNL     1      30.849  16.627  15.151  0.00  0.00    +0.208 C 
BRANCH  13  14
ATOM     14  C   UNL     1      29.889  15.617  14.558  0.00  0.00    +0.011 A 
ATOM     15  C   UNL     1      30.014  15.231  13.217  0.00  0.00    +0.010 A 
ATOM     16  C   UNL     1      29.129  14.310  12.670  0.00  0.00    +0.020 A 
ATOM     17  C   UNL     1      28.139  13.796  13.487  0.00  0.00    +0.111 A 
ATOM     18  N   UNL     1      27.978  14.142  14.783  0.00  0.00    -0.263 NA
ATOM     19  C   UNL     1      28.853  15.045  15.288  0.00  0.00    +0.118 A 
ENDBRANCH  13  14
BRANCH  13  20
ATOM     20  C   UNL     1      32.198  15.989  15.399  0.00  0.00    +0.034 C 
ATOM     21  C   UNL     1      32.410  14.951  16.481  0.00  0.00    +0.008 C 
ATOM     22  C   UNL     1      32.995  16.320  16.646  0.00  0.00    +0.008 C 
ENDBRANCH  13  20
ENDBRANCH  12  13
ENDBRANCH   5  12
TORSDOF 5
ENDMDL
MODEL 9
REMARK VINA RESULT:      -6.2      2.933      6.500
REMARK  Name = ZINC001228612316
REMARK  5 active torsions:
REMARK  status: ('A' for Active; 'I' for Inactive)
REMARK    1  A    between atoms: C_2  and  C_4
REMARK    2  A    between atoms: C_8  and  O_9
REMARK    3  A    between atoms: O_9  and  C_10
REMARK    4  A    between atoms: C_10  and  C_11
REMARK    5  A    between atoms: C_10  and  C_17
REMARK                            x       y       z     vdW  Elec       q    Type
REMARK                         _______ _______ _______ _____ _____    ______ ____
ROOT
ATOM      1  C   UNL     1      29.655  20.834  16.178  0.00  0.00    +0.040 A 
ATOM      2  C   UNL     1      30.068  21.231  14.904  0.00  0.00    +0.013 A 
ATOM      3  C   UNL     1      30.675  20.301  14.055  0.00  0.00    +0.004 A 
ATOM      4  C   UNL     1      30.857  18.980  14.478  0.00  0.00    +0.046 A 
ATOM      5  C   UNL     1      30.436  18.578  15.748  0.00  0.00    +0.122 A 
ATOM      6  C   UNL     1      29.866  19.518  16.600  0.00  0.00    +0.058 A 
ENDROOT
BRANCH   1   8
ATOM      7  N   UNL     1      28.910  23.070  16.798  0.00  0.00    -0.325 N 
ATOM      8  C   UNL     1      28.984  21.750  17.135  0.00  0.00    +0.242 C 
ATOM      9  O   UNL     1      28.456  21.334  18.160  0.00  0.00    -0.270 OA
ATOM     10  H   UNL     1      28.324  23.642  17.394  0.00  0.00    +0.145 HD
ATOM     11  H   UNL     1      29.079  23.396  15.857  0.00  0.00    +0.145 HD
ENDBRANCH   1   8
BRANCH   5  12
ATOM     12  O   UNL     1      30.649  17.264  16.063  0.00  0.00    -0.484 OA
BRANCH  12  13
ATOM     13  C   UNL     1      31.261  16.427  15.063  0.00  0.00    +0.208 C 
BRANCH  13  14
ATOM     14  C   UNL     1      32.574  15.899  15.602  0.00  0.00    +0.011 A 
ATOM     15  C   UNL     1      32.580  14.916  16.600  0.00  0.00    +0.010 A 
ATOM     16  C   UNL     1      33.784  14.436  17.100  0.00  0.00    +0.020 A 
ATOM     17  C   UNL     1      34.957  14.955  16.581  0.00  0.00    +0.111 A 
ATOM     18  N   UNL     1      34.998  15.906  15.622  0.00  0.00    -0.263 NA
ATOM     19  C   UNL     1      33.808  16.358  15.157  0.00  0.00    +0.118 A 
ENDBRANCH  13  14
BRANCH  13  20
ATOM     20  C   UNL     1      30.332  15.282  14.724  0.00  0.00    +0.034 C 
ATOM     21  C   UNL     1      30.611  14.334  13.576  0.00  0.00    +0.008 C 
ATOM     22  C   UNL     1      29.487  15.317  13.466  0.00  0.00    +0.008 C 
ENDBRANCH  13  20
ENDBRANCH  12  13
ENDBRANCH   5  12
TORSDOF 5
ENDMDL
