MODEL 1
REMARK VINA RESULT:      -6.3      0.000      0.000
REMARK  Name = ZINC000870248439
REMARK  2 active torsions:
REMARK  status: ('A' for Active; 'I' for Inactive)
REMARK    1  A    between atoms: C_2  and  C_4
REMARK    2  A    between atoms: C_7  and  C_8
REMARK                            x       y       z     vdW  Elec       q    Type
REMARK                         _______ _______ _______ _____ _____    ______ ____
ROOT
ATOM      1  C   UNL     1      33.290  23.383   9.175  0.00  0.00    +0.247 C 
ATOM      2  O   UNL     1      32.565  24.279   8.746  0.00  0.00    -0.270 OA
ATOM      3  N   UNL     1      33.324  23.003  10.524  0.00  0.00    -0.297 N 
ATOM      4  C   UNL     1      34.191  21.970  11.096  0.00  0.00    +0.108 C 
ATOM      5  C   UNL     1      33.513  21.149  12.185  0.00  0.00    +0.026 C 
ATOM      6  C   UNL     1      32.825  22.007  13.269  0.00  0.00    -0.025 C 
ATOM      7  C   UNL     1      32.005  21.047  14.168  0.00  0.00    +0.017 C 
ATOM      8  C   UNL     1      31.277  21.715  15.328  0.00  0.00    +0.069 C 
ATOM      9  S   UNL     1      32.415  22.554  16.464  0.00  0.00    -0.161 S 
ATOM     10  C   UNL     1      33.337  23.563  15.273  0.00  0.00    +0.069 C 
ATOM     11  C   UNL     1      33.897  22.725  14.129  0.00  0.00    +0.017 C 
ATOM     12  C   UNL     1      31.886  23.000  12.536  0.00  0.00    +0.026 C 
ATOM     13  C   UNL     1      32.610  23.841  11.483  0.00  0.00    +0.108 C 
ENDROOT
BRANCH   1  17
ATOM     14  C   UNL     1      35.545  21.437   6.116  0.00  0.00    +0.037 A 
ATOM     15  C   UNL     1      34.455  20.773   6.691  0.00  0.00    +0.014 A 
ATOM     16  C   UNL     1      33.773  21.359   7.757  0.00  0.00    +0.014 A 
ATOM     17  C   UNL     1      34.114  22.647   8.185  0.00  0.00    +0.037 A 
ATOM     18  C   UNL     1      35.258  23.270   7.671  0.00  0.00    +0.014 A 
ATOM     19  C   UNL     1      35.981  22.659   6.642  0.00  0.00    +0.014 A 
BRANCH  14  21
ATOM     20  N   UNL     1      36.653  21.738   3.974  0.00  0.00    -0.325 N 
ATOM     21  C   UNL     1      36.258  20.863   4.947  0.00  0.00    +0.242 C 
ATOM     22  O   UNL     1      36.528  19.674   4.881  0.00  0.00    -0.270 OA
ATOM     23  H   UNL     1      37.243  21.356   3.246  0.00  0.00    +0.145 HD
ATOM     24  H   UNL     1      36.681  22.737   4.123  0.00  0.00    +0.145 HD
ENDBRANCH  14  21
ENDBRANCH   1  17
TORSDOF 2
ENDMDL
MODEL 2
REMARK VINA RESULT:      -6.3     28.214     30.730
REMARK  Name = ZINC000870248439
REMARK  2 active torsions:
REMARK  status: ('A' for Active; 'I' for Inactive)
REMARK    1  A    between atoms: C_2  and  C_4
REMARK    2  A    between atoms: C_7  and  C_8
REMARK                            x       y       z     vdW  Elec       q    Type
REMARK                         _______ _______ _______ _____ _____    ______ ____
ROOT
ATOM      1  C   UNL     1      18.969   5.147  28.138  0.00  0.00    +0.247 C 
ATOM      2  O   UNL     1      18.934   5.673  27.026  0.00  0.00    -0.270 OA
ATOM      3  N   UNL     1      20.151   4.682  28.731  0.00  0.00    -0.297 N 
ATOM      4  C   UNL     1      20.246   4.018  30.033  0.00  0.00    +0.108 C 
ATOM      5  C   UNL     1      21.493   4.407  30.817  0.00  0.00    +0.026 C 
ATOM      6  C   UNL     1      22.799   4.293  30.001  0.00  0.00    -0.025 C 
ATOM      7  C   UNL     1      23.932   4.923  30.849  0.00  0.00    +0.017 C 
ATOM      8  C   UNL     1      25.316   4.869  30.216  0.00  0.00    +0.069 C 
ATOM      9  S   UNL     1      25.865   3.170  29.900  0.00  0.00    -0.161 S 
ATOM     10  C   UNL     1      24.426   2.556  28.983  0.00  0.00    +0.069 C 
ATOM     11  C   UNL     1      23.124   2.799  29.738  0.00  0.00    +0.017 C 
ATOM     12  C   UNL     1      22.589   5.096  28.691  0.00  0.00    +0.026 C 
ATOM     13  C   UNL     1      21.355   4.648  27.906  0.00  0.00    +0.108 C 
ENDROOT
BRANCH   1  17
ATOM     14  C   UNL     1      15.156   5.011  30.055  0.00  0.00    +0.037 A 
ATOM     15  C   UNL     1      16.042   6.048  30.367  0.00  0.00    +0.014 A 
ATOM     16  C   UNL     1      17.326   6.048  29.820  0.00  0.00    +0.014 A 
ATOM     17  C   UNL     1      17.692   5.069  28.890  0.00  0.00    +0.037 A 
ATOM     18  C   UNL     1      16.838   3.985  28.649  0.00  0.00    +0.014 A 
ATOM     19  C   UNL     1      15.573   3.950  29.241  0.00  0.00    +0.014 A 
BRANCH  14  21
ATOM     20  N   UNL     1      12.963   6.048  30.198  0.00  0.00    -0.325 N 
ATOM     21  C   UNL     1      13.767   5.010  30.578  0.00  0.00    +0.242 C 
ATOM     22  O   UNL     1      13.343   4.098  31.272  0.00  0.00    -0.270 OA
ATOM     23  H   UNL     1      11.987   5.973  30.458  0.00  0.00    +0.145 HD
ATOM     24  H   UNL     1      13.196   6.660  29.428  0.00  0.00    +0.145 HD
ENDBRANCH  14  21
ENDBRANCH   1  17
TORSDOF 2
ENDMDL
MODEL 3
REMARK VINA RESULT:      -6.3     27.601     29.781
REMARK  Name = ZINC000870248439
REMARK  2 active torsions:
REMARK  status: ('A' for Active; 'I' for Inactive)
REMARK    1  A    between atoms: C_2  and  C_4
REMARK    2  A    between atoms: C_7  and  C_8
REMARK                            x       y       z     vdW  Elec       q    Type
REMARK                         _______ _______ _______ _____ _____    ______ ____
ROOT
ATOM      1  C   UNL     1      21.529   5.963  28.780  0.00  0.00    +0.247 C 
ATOM      2  O   UNL     1      21.753   6.877  27.987  0.00  0.00    -0.270 OA
ATOM      3  N   UNL     1      22.541   5.204  29.383  0.00  0.00    -0.297 N 
ATOM      4  C   UNL     1      22.332   4.084  30.304  0.00  0.00    +0.108 C 
ATOM      5  C   UNL     1      23.358   4.030  31.429  0.00  0.00    +0.026 C 
ATOM      6  C   UNL     1      24.819   4.125  30.940  0.00  0.00    -0.025 C 
ATOM      7  C   UNL     1      25.718   4.278  32.193  0.00  0.00    +0.017 C 
ATOM      8  C   UNL     1      27.213   4.351  31.908  0.00  0.00    +0.069 C 
ATOM      9  S   UNL     1      27.830   2.863  31.075  0.00  0.00    -0.161 S 
ATOM     10  C   UNL     1      26.650   2.778  29.701  0.00  0.00    +0.069 C 
ATOM     11  C   UNL     1      25.205   2.826  30.187  0.00  0.00    +0.017 C 
ATOM     12  C   UNL     1      24.918   5.385  30.042  0.00  0.00    +0.026 C 
ATOM     13  C   UNL     1      23.906   5.384  28.896  0.00  0.00    +0.108 C 
ENDROOT
BRANCH   1  17
ATOM     14  C   UNL     1      17.397   5.532  29.767  0.00  0.00    +0.037 A 
ATOM     15  C   UNL     1      18.350   5.529  30.792  0.00  0.00    +0.014 A 
ATOM     16  C   UNL     1      19.707   5.571  30.474  0.00  0.00    +0.014 A 
ATOM     17  C   UNL     1      20.111   5.714  29.142  0.00  0.00    +0.037 A 
ATOM     18  C   UNL     1      19.164   5.626  28.115  0.00  0.00    +0.014 A 
ATOM     19  C   UNL     1      17.805   5.524  28.428  0.00  0.00    +0.014 A 
BRANCH  14  21
ATOM     20  N   UNL     1      15.449   6.658  30.687  0.00  0.00    -0.325 N 
ATOM     21  C   UNL     1      15.945   5.541  30.075  0.00  0.00    +0.242 C 
ATOM     22  O   UNL     1      15.215   4.618  29.748  0.00  0.00    -0.270 OA
ATOM     23  H   UNL     1      14.443   6.705  30.780  0.00  0.00    +0.145 HD
ATOM     24  H   UNL     1      15.964   7.527  30.727  0.00  0.00    +0.145 HD
ENDBRANCH  14  21
ENDBRANCH   1  17
TORSDOF 2
ENDMDL
MODEL 4
REMARK VINA RESULT:      -6.3      4.182      8.145
REMARK  Name = ZINC000870248439
REMARK  2 active torsions:
REMARK  status: ('A' for Active; 'I' for Inactive)
REMARK    1  A    between atoms: C_2  and  C_4
REMARK    2  A    between atoms: C_7  and  C_8
REMARK                            x       y       z     vdW  Elec       q    Type
REMARK                         _______ _______ _______ _____ _____    ______ ____
ROOT
ATOM      1  C   UNL     1      35.451  24.661   8.939  0.00  0.00    +0.247 C 
ATOM      2  O   UNL     1      35.853  25.819   9.046  0.00  0.00    -0.270 OA
ATOM      3  N   UNL     1      36.002  23.736   8.042  0.00  0.00    -0.297 N 
ATOM      4  C   UNL     1      35.541  22.359   7.848  0.00  0.00    +0.108 C 
ATOM      5  C   UNL     1      36.676  21.373   7.601  0.00  0.00    +0.026 C 
ATOM      6  C   UNL     1      37.661  21.825   6.502  0.00  0.00    -0.025 C 
ATOM      7  C   UNL     1      38.861  20.844   6.522  0.00  0.00    +0.017 C 
ATOM      8  C   UNL     1      39.930  21.111   5.471  0.00  0.00    +0.069 C 
ATOM      9  S   UNL     1      39.277  21.008   3.782  0.00  0.00    -0.161 S 
ATOM     10  C   UNL     1      37.862  22.131   3.939  0.00  0.00    +0.069 C 
ATOM     11  C   UNL     1      36.967  21.759   5.116  0.00  0.00    +0.017 C 
ATOM     12  C   UNL     1      38.125  23.259   6.867  0.00  0.00    +0.026 C 
ATOM     13  C   UNL     1      36.962  24.233   7.060  0.00  0.00    +0.108 C 
ENDROOT
BRANCH   1  17
ATOM     14  C   UNL     1      32.270  23.716  11.625  0.00  0.00    +0.037 A 
ATOM     15  C   UNL     1      33.593  23.603  12.065  0.00  0.00    +0.014 A 
ATOM     16  C   UNL     1      34.640  23.815  11.168  0.00  0.00    +0.014 A 
ATOM     17  C   UNL     1      34.369  24.233   9.861  0.00  0.00    +0.037 A 
ATOM     18  C   UNL     1      33.047  24.258   9.398  0.00  0.00    +0.014 A 
ATOM     19  C   UNL     1      31.997  23.988  10.279  0.00  0.00    +0.014 A 
BRANCH  14  21
ATOM     20  N   UNL     1      30.590  24.688  13.088  0.00  0.00    -0.325 N 
ATOM     21  C   UNL     1      31.135  23.548  12.567  0.00  0.00    +0.242 C 
ATOM     22  O   UNL     1      30.673  22.447  12.825  0.00  0.00    -0.270 OA
ATOM     23  H   UNL     1      29.743  24.569  13.630  0.00  0.00    +0.145 HD
ATOM     24  H   UNL     1      30.771  25.602  12.697  0.00  0.00    +0.145 HD
ENDBRANCH  14  21
ENDBRANCH   1  17
TORSDOF 2
ENDMDL
MODEL 5
REMARK VINA RESULT:      -6.1      3.922      8.165
REMARK  Name = ZINC000870248439
REMARK  2 active torsions:
REMARK  status: ('A' for Active; 'I' for Inactive)
REMARK    1  A    between atoms: C_2  and  C_4
REMARK    2  A    between atoms: C_7  and  C_8
REMARK                            x       y       z     vdW  Elec       q    Type
REMARK                         _______ _______ _______ _____ _____    ______ ____
ROOT
ATOM      1  C   UNL     1      35.066  21.204  12.418  0.00  0.00    +0.247 C 
ATOM      2  O   UNL     1      35.965  20.494  12.865  0.00  0.00    -0.270 OA
ATOM      3  N   UNL     1      35.111  21.792  11.147  0.00  0.00    -0.297 N 
ATOM      4  C   UNL     1      34.088  22.673  10.579  0.00  0.00    +0.108 C 
ATOM      5  C   UNL     1      33.865  22.455   9.087  0.00  0.00    +0.026 C 
ATOM      6  C   UNL     1      35.168  22.456   8.260  0.00  0.00    -0.025 C 
ATOM      7  C   UNL     1      34.804  22.008   6.822  0.00  0.00    +0.017 C 
ATOM      8  C   UNL     1      35.968  21.982   5.841  0.00  0.00    +0.069 C 
ATOM      9  S   UNL     1      36.734  23.614   5.637  0.00  0.00    -0.161 S 
ATOM     10  C   UNL     1      37.027  24.026   7.378  0.00  0.00    +0.069 C 
ATOM     11  C   UNL     1      35.761  23.888   8.217  0.00  0.00    +0.017 C 
ATOM     12  C   UNL     1      36.129  21.433   8.921  0.00  0.00    +0.026 C 
ATOM     13  C   UNL     1      36.367  21.710  10.406  0.00  0.00    +0.108 C 
ENDROOT
BRANCH   1  17
ATOM     14  C   UNL     1      31.756  21.613  15.084  0.00  0.00    +0.037 A 
ATOM     15  C   UNL     1      31.753  20.577  14.143  0.00  0.00    +0.014 A 
ATOM     16  C   UNL     1      32.782  20.493  13.205  0.00  0.00    +0.014 A 
ATOM     17  C   UNL     1      33.861  21.382  13.266  0.00  0.00    +0.037 A 
ATOM     18  C   UNL     1      33.817  22.470  14.147  0.00  0.00    +0.014 A 
ATOM     19  C   UNL     1      32.757  22.591  15.050  0.00  0.00    +0.014 A 
BRANCH  14  21
ATOM     20  N   UNL     1      30.357  22.949  16.555  0.00  0.00    -0.325 N 
ATOM     21  C   UNL     1      30.704  21.698  16.128  0.00  0.00    +0.242 C 
ATOM     22  O   UNL     1      30.136  20.702  16.549  0.00  0.00    -0.270 OA
ATOM     23  H   UNL     1      29.557  23.002  17.173  0.00  0.00    +0.145 HD
ATOM     24  H   UNL     1      30.611  23.785  16.047  0.00  0.00    +0.145 HD
ENDBRANCH  14  21
ENDBRANCH   1  17
TORSDOF 2
ENDMDL
MODEL 6
REMARK VINA RESULT:      -6.0     14.836     16.497
REMARK  Name = ZINC000870248439
REMARK  2 active torsions:
REMARK  status: ('A' for Active; 'I' for Inactive)
REMARK    1  A    between atoms: C_2  and  C_4
REMARK    2  A    between atoms: C_7  and  C_8
REMARK                            x       y       z     vdW  Elec       q    Type
REMARK                         _______ _______ _______ _____ _____    ______ ____
ROOT
ATOM      1  C   UNL     1      26.250  32.191  16.749  0.00  0.00    +0.247 C 
ATOM      2  O   UNL     1      27.076  31.404  17.210  0.00  0.00    -0.270 OA
ATOM      3  N   UNL     1      26.546  33.529  16.454  0.00  0.00    -0.297 N 
ATOM      4  C   UNL     1      25.595  34.517  15.940  0.00  0.00    +0.108 C 
ATOM      5  C   UNL     1      26.209  35.472  14.923  0.00  0.00    +0.026 C 
ATOM      6  C   UNL     1      27.530  36.116  15.398  0.00  0.00    -0.025 C 
ATOM      7  C   UNL     1      28.136  36.874  14.190  0.00  0.00    +0.017 C 
ATOM      8  C   UNL     1      29.437  37.611  14.479  0.00  0.00    +0.069 C 
ATOM      9  S   UNL     1      29.243  38.874  15.767  0.00  0.00    -0.161 S 
ATOM     10  C   UNL     1      28.467  37.866  17.059  0.00  0.00    +0.069 C 
ATOM     11  C   UNL     1      27.241  37.122  16.543  0.00  0.00    +0.017 C 
ATOM     12  C   UNL     1      28.466  34.962  15.842  0.00  0.00    +0.026 C 
ATOM     13  C   UNL     1      27.835  34.053  16.897  0.00  0.00    +0.108 C 
ENDROOT
BRANCH   1  17
ATOM     14  C   UNL     1      22.448  30.395  16.009  0.00  0.00    +0.037 A 
ATOM     15  C   UNL     1      23.345  30.560  14.948  0.00  0.00    +0.014 A 
ATOM     16  C   UNL     1      24.549  31.232  15.159  0.00  0.00    +0.014 A 
ATOM     17  C   UNL     1      24.900  31.654  16.446  0.00  0.00    +0.037 A 
ATOM     18  C   UNL     1      23.965  31.570  17.485  0.00  0.00    +0.014 A 
ATOM     19  C   UNL     1      22.732  30.949  17.263  0.00  0.00    +0.014 A 
BRANCH  14  21
ATOM     20  N   UNL     1      21.288  28.370  15.331  0.00  0.00    -0.325 N 
ATOM     21  C   UNL     1      21.184  29.639  15.829  0.00  0.00    +0.242 C 
ATOM     22  O   UNL     1      20.104  30.105  16.159  0.00  0.00    -0.270 OA
ATOM     23  H   UNL     1      20.437  27.822  15.329  0.00  0.00    +0.145 HD
ATOM     24  H   UNL     1      22.165  27.870  15.301  0.00  0.00    +0.145 HD
ENDBRANCH  14  21
ENDBRANCH   1  17
TORSDOF 2
ENDMDL
MODEL 7
REMARK VINA RESULT:      -6.0      6.701      9.445
REMARK  Name = ZINC000870248439
REMARK  2 active torsions:
REMARK  status: ('A' for Active; 'I' for Inactive)
REMARK    1  A    between atoms: C_2  and  C_4
REMARK    2  A    between atoms: C_7  and  C_8
REMARK                            x       y       z     vdW  Elec       q    Type
REMARK                         _______ _______ _______ _____ _____    ______ ____
ROOT
ATOM      1  C   UNL     1      34.466  18.833  17.383  0.00  0.00    +0.247 C 
ATOM      2  O   UNL     1      34.170  18.945  18.572  0.00  0.00    -0.270 OA
ATOM      3  N   UNL     1      35.354  17.862  16.900  0.00  0.00    -0.297 N 
ATOM      4  C   UNL     1      35.768  17.706  15.504  0.00  0.00    +0.108 C 
ATOM      5  C   UNL     1      35.927  16.250  15.082  0.00  0.00    +0.026 C 
ATOM      6  C   UNL     1      36.794  15.416  16.050  0.00  0.00    -0.025 C 
ATOM      7  C   UNL     1      36.681  13.934  15.614  0.00  0.00    +0.017 C 
ATOM      8  C   UNL     1      37.506  12.955  16.438  0.00  0.00    +0.069 C 
ATOM      9  S   UNL     1      39.281  13.322  16.372  0.00  0.00    -0.161 S 
ATOM     10  C   UNL     1      39.240  15.077  16.826  0.00  0.00    +0.069 C 
ATOM     11  C   UNL     1      38.274  15.869  15.952  0.00  0.00    +0.017 C 
ATOM     12  C   UNL     1      36.205  15.611  17.472  0.00  0.00    +0.026 C 
ATOM     13  C   UNL     1      36.104  17.081  17.880  0.00  0.00    +0.108 C 
ENDROOT
BRANCH   1  17
ATOM     14  C   UNL     1      32.335  21.538  14.858  0.00  0.00    +0.037 A 
ATOM     15  C   UNL     1      32.137  20.161  14.707  0.00  0.00    +0.014 A 
ATOM     16  C   UNL     1      32.899  19.266  15.459  0.00  0.00    +0.014 A 
ATOM     17  C   UNL     1      33.788  19.745  16.429  0.00  0.00    +0.037 A 
ATOM     18  C   UNL     1      34.050  21.118  16.515  0.00  0.00    +0.014 A 
ATOM     19  C   UNL     1      33.330  22.015  15.720  0.00  0.00    +0.014 A 
BRANCH  14  21
ATOM     20  N   UNL     1      31.443  23.785  14.612  0.00  0.00    -0.325 N 
ATOM     21  C   UNL     1      31.503  22.514  14.112  0.00  0.00    +0.242 C 
ATOM     22  O   UNL     1      30.942  22.214  13.069  0.00  0.00    -0.270 OA
ATOM     23  H   UNL     1      30.976  24.470  14.031  0.00  0.00    +0.145 HD
ATOM     24  H   UNL     1      32.094  24.126  15.305  0.00  0.00    +0.145 HD
ENDBRANCH  14  21
ENDBRANCH   1  17
TORSDOF 2
ENDMDL
MODEL 8
REMARK VINA RESULT:      -5.9      6.824      9.453
REMARK  Name = ZINC000870248439
REMARK  2 active torsions:
REMARK  status: ('A' for Active; 'I' for Inactive)
REMARK    1  A    between atoms: C_2  and  C_4
REMARK    2  A    between atoms: C_7  and  C_8
REMARK                            x       y       z     vdW  Elec       q    Type
REMARK                         _______ _______ _______ _____ _____    ______ ____
ROOT
ATOM      1  C   UNL     1      35.122  17.281  13.939  0.00  0.00    +0.247 C 
ATOM      2  O   UNL     1      36.201  17.428  14.512  0.00  0.00    -0.270 OA
ATOM      3  N   UNL     1      34.730  16.079  13.334  0.00  0.00    -0.297 N 
ATOM      4  C   UNL     1      33.476  15.859  12.610  0.00  0.00    +0.108 C 
ATOM      5  C   UNL     1      32.883  14.474  12.839  0.00  0.00    +0.026 C 
ATOM      6  C   UNL     1      33.894  13.325  12.630  0.00  0.00    -0.025 C 
ATOM      7  C   UNL     1      33.214  12.017  13.108  0.00  0.00    +0.017 C 
ATOM      8  C   UNL     1      34.054  10.758  12.943  0.00  0.00    +0.069 C 
ATOM      9  S   UNL     1      34.494  10.444  11.212  0.00  0.00    -0.161 S 
ATOM     10  C   UNL     1      35.195  12.061  10.784  0.00  0.00    +0.069 C 
ATOM     11  C   UNL     1      34.243  13.202  11.124  0.00  0.00    +0.017 C 
ATOM     12  C   UNL     1      35.134  13.645  13.504  0.00  0.00    +0.026 C 
ATOM     13  C   UNL     1      35.731  15.022  13.214  0.00  0.00    +0.108 C 
ENDROOT
BRANCH   1  17
ATOM     14  C   UNL     1      32.204  20.397  13.993  0.00  0.00    +0.037 A 
ATOM     15  C   UNL     1      32.908  20.139  12.811  0.00  0.00    +0.014 A 
ATOM     16  C   UNL     1      33.931  19.190  12.810  0.00  0.00    +0.014 A 
ATOM     17  C   UNL     1      34.185  18.432  13.957  0.00  0.00    +0.037 A 
ATOM     18  C   UNL     1      33.542  18.753  15.160  0.00  0.00    +0.014 A 
ATOM     19  C   UNL     1      32.558  19.745  15.180  0.00  0.00    +0.014 A 
BRANCH  14  21
ATOM     20  N   UNL     1      30.439  21.544  15.209  0.00  0.00    -0.325 N 
ATOM     21  C   UNL     1      31.076  21.362  14.014  0.00  0.00    +0.242 C 
ATOM     22  O   UNL     1      30.764  22.006  13.023  0.00  0.00    -0.270 OA
ATOM     23  H   UNL     1      29.757  22.290  15.241  0.00  0.00    +0.145 HD
ATOM     24  H   UNL     1      30.835  21.235  16.086  0.00  0.00    +0.145 HD
ENDBRANCH  14  21
ENDBRANCH   1  17
TORSDOF 2
ENDMDL
MODEL 9
REMARK VINA RESULT:      -5.9      5.117      8.795
REMARK  Name = ZINC000870248439
REMARK  2 active torsions:
REMARK  status: ('A' for Active; 'I' for Inactive)
REMARK    1  A    between atoms: C_2  and  C_4
REMARK    2  A    between atoms: C_7  and  C_8
REMARK                            x       y       z     vdW  Elec       q    Type
REMARK                         _______ _______ _______ _____ _____    ______ ____
ROOT
ATOM      1  C   UNL     1      33.772  17.908  12.923  0.00  0.00    +0.247 C 
ATOM      2  O   UNL     1      33.466  16.746  13.187  0.00  0.00    -0.270 OA
ATOM      3  N   UNL     1      34.688  18.252  11.920  0.00  0.00    -0.297 N 
ATOM      4  C   UNL     1      35.115  19.613  11.587  0.00  0.00    +0.108 C 
ATOM      5  C   UNL     1      35.314  19.833  10.093  0.00  0.00    +0.026 C 
ATOM      6  C   UNL     1      36.196  18.759   9.420  0.00  0.00    -0.025 C 
ATOM      7  C   UNL     1      36.123  18.991   7.890  0.00  0.00    +0.017 C 
ATOM      8  C   UNL     1      36.967  18.039   7.053  0.00  0.00    +0.069 C 
ATOM      9  S   UNL     1      38.733  18.148   7.455  0.00  0.00    -0.161 S 
ATOM     10  C   UNL     1      38.644  17.937   9.253  0.00  0.00    +0.069 C 
ATOM     11  C   UNL     1      37.664  18.913   9.894  0.00  0.00    +0.017 C 
ATOM     12  C   UNL     1      35.593  17.378   9.791  0.00  0.00    +0.026 C 
ATOM     13  C   UNL     1      35.451  17.173  11.299  0.00  0.00    +0.108 C 
ENDROOT
BRANCH   1  17
ATOM     14  C   UNL     1      31.613  20.778  15.232  0.00  0.00    +0.037 A 
ATOM     15  C   UNL     1      31.336  20.650  13.866  0.00  0.00    +0.014 A 
ATOM     16  C   UNL     1      32.101  19.786  13.084  0.00  0.00    +0.014 A 
ATOM     17  C   UNL     1      33.077  18.979  13.680  0.00  0.00    +0.037 A 
ATOM     18  C   UNL     1      33.413  19.174  15.026  0.00  0.00    +0.014 A 
ATOM     19  C   UNL     1      32.687  20.083  15.800  0.00  0.00    +0.014 A 
BRANCH  14  21
ATOM     20  N   UNL     1      31.233  22.922  16.312  0.00  0.00    -0.325 N 
ATOM     21  C   UNL     1      30.782  21.650  16.101  0.00  0.00    +0.242 C 
ATOM     22  O   UNL     1      29.718  21.267  16.563  0.00  0.00    -0.270 OA
ATOM     23  H   UNL     1      30.601  23.543  16.802  0.00  0.00    +0.145 HD
ATOM     24  H   UNL     1      31.953  23.344  15.742  0.00  0.00    +0.145 HD
ENDBRANCH  14  21
ENDBRANCH   1  17
TORSDOF 2
ENDMDL
