MODEL 1
REMARK VINA RESULT:      -7.7      0.000      0.000
REMARK  Name = ZINC000329563636
REMARK  3 active torsions:
REMARK  status: ('A' for Active; 'I' for Inactive)
REMARK    1  A    between atoms: C_1  and  C_2
REMARK    2  A    between atoms: C_2  and  N_3
REMARK    3  A    between atoms: N_9  and  C_10
REMARK                            x       y       z     vdW  Elec       q    Type
REMARK                         _______ _______ _______ _____ _____    ______ ____
ROOT
ATOM      1  C   UNL     1      28.093  21.841  18.798  0.00  0.00    +0.112 C 
ATOM      2  C   UNL     1      27.968  21.391  17.340  0.00  0.00    +0.075 C 
ATOM      3  C   UNL     1      29.298  21.285  16.577  0.00  0.00    +0.113 C 
ATOM      4  C   UNL     1      30.054  19.945  16.770  0.00  0.00    +0.048 C 
ATOM      5  C   UNL     1      30.000  19.226  15.427  0.00  0.00    +0.004 C 
ATOM      6  C   UNL     1      29.939  20.348  14.410  0.00  0.00    +0.004 C 
ATOM      7  C   UNL     1      28.993  21.344  15.058  0.00  0.00    +0.048 C 
ATOM      8  O   UNL     1      30.175  22.387  16.877  0.00  0.00    -0.485 OA
ATOM      9  C   UNL     1      30.446  22.509  18.214  0.00  0.00    +0.126 A 
ATOM     10  C   UNL     1      31.724  22.931  18.577  0.00  0.00    +0.046 A 
ATOM     11  C   UNL     1      32.067  23.035  19.926  0.00  0.00    +0.004 A 
ATOM     12  C   UNL     1      31.128  22.736  20.910  0.00  0.00    +0.001 A 
ATOM     13  C   UNL     1      29.841  22.345  20.543  0.00  0.00    +0.009 A 
ATOM     14  C   UNL     1      29.490  22.228  19.187  0.00  0.00    +0.015 A 
ENDROOT
BRANCH   1  21
ATOM     15  N   UNL     1      23.568  25.715  20.828  0.00  0.00    -0.299 N 
ATOM     16  C   UNL     1      23.100  24.386  20.437  0.00  0.00    +0.127 C 
ATOM     17  C   UNL     1      23.667  23.947  19.091  0.00  0.00    +0.129 C 
ATOM     18  N   UNL     1      25.121  24.006  19.148  0.00  0.00    -0.275 N 
ATOM     19  C   UNL     1      25.846  22.856  18.936  0.00  0.00    +0.303 C 
ATOM     20  O   UNL     1      25.315  21.774  18.693  0.00  0.00    -0.253 OA
ATOM     21  N   UNL     1      27.202  22.975  19.045  0.00  0.00    -0.292 N 
ATOM     22  C   UNL     1      25.660  25.325  19.488  0.00  0.00    +0.205 C 
ATOM     23  C   UNL     1      24.772  26.234  20.364  0.00  0.00    +0.233 C 
ATOM     24  O   UNL     1      25.146  27.375  20.643  0.00  0.00    -0.274 OA
ATOM     25  H   UNL     1      27.612  23.880  18.885  0.00  0.00    +0.151 HD
BRANCH  15  27
ATOM     26  C   UNL     1      21.850  25.551  22.594  0.00  0.00    +0.024 C 
ATOM     27  C   UNL     1      22.799  26.453  21.824  0.00  0.00    +0.104 C 
ENDBRANCH  15  27
ENDBRANCH   1  21
TORSDOF 2
ENDMDL
MODEL 2
REMARK VINA RESULT:      -7.2      7.742     13.016
REMARK  Name = ZINC000329563636
REMARK  3 active torsions:
REMARK  status: ('A' for Active; 'I' for Inactive)
REMARK    1  A    between atoms: C_1  and  C_2
REMARK    2  A    between atoms: C_2  and  N_3
REMARK    3  A    between atoms: N_9  and  C_10
REMARK                            x       y       z     vdW  Elec       q    Type
REMARK                         _______ _______ _______ _____ _____    ______ ____
ROOT
ATOM      1  C   UNL     1      31.455  16.499  13.037  0.00  0.00    +0.112 C 
ATOM      2  C   UNL     1      30.829  17.117  14.291  0.00  0.00    +0.075 C 
ATOM      3  C   UNL     1      31.236  18.572  14.569  0.00  0.00    +0.113 C 
ATOM      4  C   UNL     1      30.402  19.637  13.810  0.00  0.00    +0.048 C 
ATOM      5  C   UNL     1      29.583  20.371  14.865  0.00  0.00    +0.004 C 
ATOM      6  C   UNL     1      30.435  20.290  16.116  0.00  0.00    +0.004 C 
ATOM      7  C   UNL     1      30.977  18.873  16.067  0.00  0.00    +0.048 C 
ATOM      8  O   UNL     1      32.639  18.791  14.329  0.00  0.00    -0.485 OA
ATOM      9  C   UNL     1      33.023  18.464  13.055  0.00  0.00    +0.126 A 
ATOM     10  C   UNL     1      34.006  19.250  12.457  0.00  0.00    +0.046 A 
ATOM     11  C   UNL     1      34.407  18.988  11.146  0.00  0.00    +0.004 A 
ATOM     12  C   UNL     1      33.840  17.929  10.441  0.00  0.00    +0.001 A 
ATOM     13  C   UNL     1      32.879  17.125  11.055  0.00  0.00    +0.009 A 
ATOM     14  C   UNL     1      32.462  17.389  12.370  0.00  0.00    +0.015 A 
ENDROOT
BRANCH   1  21
ATOM     15  N   UNL     1      34.511  10.998  12.978  0.00  0.00    -0.299 N 
ATOM     16  C   UNL     1      33.491  11.138  11.939  0.00  0.00    +0.127 C 
ATOM     17  C   UNL     1      32.174  11.672  12.492  0.00  0.00    +0.129 C 
ATOM     18  N   UNL     1      32.423  12.937  13.169  0.00  0.00    -0.275 N 
ATOM     19  C   UNL     1      31.785  14.072  12.724  0.00  0.00    +0.303 C 
ATOM     20  O   UNL     1      31.002  14.062  11.775  0.00  0.00    -0.253 OA
ATOM     21  N   UNL     1      32.096  15.229  13.378  0.00  0.00    -0.292 N 
ATOM     22  C   UNL     1      33.403  12.858  14.256  0.00  0.00    +0.205 C 
ATOM     23  C   UNL     1      34.491  11.770  14.134  0.00  0.00    +0.233 C 
ATOM     24  O   UNL     1      35.314  11.619  15.039  0.00  0.00    -0.274 OA
ATOM     25  H   UNL     1      32.428  15.163  14.325  0.00  0.00    +0.151 HD
BRANCH  15  27
ATOM     26  C   UNL     1      35.280   8.651  12.966  0.00  0.00    +0.024 C 
ATOM     27  C   UNL     1      35.638  10.107  12.723  0.00  0.00    +0.104 C 
ENDBRANCH  15  27
ENDBRANCH   1  21
TORSDOF 2
ENDMDL
MODEL 3
REMARK VINA RESULT:      -7.0      5.153      7.823
REMARK  Name = ZINC000329563636
REMARK  3 active torsions:
REMARK  status: ('A' for Active; 'I' for Inactive)
REMARK    1  A    between atoms: C_1  and  C_2
REMARK    2  A    between atoms: C_2  and  N_3
REMARK    3  A    between atoms: N_9  and  C_10
REMARK                            x       y       z     vdW  Elec       q    Type
REMARK                         _______ _______ _______ _____ _____    ______ ____
ROOT
ATOM      1  C   UNL     1      31.624  22.637  13.077  0.00  0.00    +0.112 C 
ATOM      2  C   UNL     1      31.962  23.901  12.280  0.00  0.00    +0.075 C 
ATOM      3  C   UNL     1      33.026  23.714  11.188  0.00  0.00    +0.113 C 
ATOM      4  C   UNL     1      32.484  23.186   9.835  0.00  0.00    +0.048 C 
ATOM      5  C   UNL     1      32.630  24.331   8.839  0.00  0.00    +0.004 C 
ATOM      6  C   UNL     1      33.827  25.109   9.345  0.00  0.00    +0.004 C 
ATOM      7  C   UNL     1      33.626  25.102  10.850  0.00  0.00    +0.048 C 
ATOM      8  O   UNL     1      34.112  22.880  11.636  0.00  0.00    -0.485 OA
ATOM      9  C   UNL     1      33.700  21.644  12.062  0.00  0.00    +0.126 A 
ATOM     10  C   UNL     1      34.536  20.561  11.801  0.00  0.00    +0.046 A 
ATOM     11  C   UNL     1      34.148  19.274  12.177  0.00  0.00    +0.004 A 
ATOM     12  C   UNL     1      32.934  19.074  12.830  0.00  0.00    +0.001 A 
ATOM     13  C   UNL     1      32.115  20.165  13.117  0.00  0.00    +0.009 A 
ATOM     14  C   UNL     1      32.493  21.463  12.733  0.00  0.00    +0.015 A 
ENDROOT
BRANCH   1  21
ATOM     15  N   UNL     1      31.779  22.295  19.359  0.00  0.00    -0.299 N 
ATOM     16  C   UNL     1      30.609  21.668  18.745  0.00  0.00    +0.127 C 
ATOM     17  C   UNL     1      29.958  22.564  17.695  0.00  0.00    +0.129 C 
ATOM     18  N   UNL     1      30.956  22.926  16.698  0.00  0.00    -0.275 N 
ATOM     19  C   UNL     1      30.746  22.576  15.384  0.00  0.00    +0.303 C 
ATOM     20  O   UNL     1      29.741  21.971  15.013  0.00  0.00    -0.253 OA
ATOM     21  N   UNL     1      31.740  22.909  14.510  0.00  0.00    -0.292 N 
ATOM     22  C   UNL     1      32.137  23.602  17.241  0.00  0.00    +0.205 C 
ATOM     23  C   UNL     1      32.524  23.264  18.696  0.00  0.00    +0.233 C 
ATOM     24  O   UNL     1      33.477  23.838  19.228  0.00  0.00    -0.274 OA
ATOM     25  H   UNL     1      32.340  23.681  14.747  0.00  0.00    +0.151 HD
BRANCH  15  27
ATOM     26  C   UNL     1      31.261  22.133  21.768  0.00  0.00    +0.024 C 
ATOM     27  C   UNL     1      32.233  21.793  20.651  0.00  0.00    +0.104 C 
ENDBRANCH  15  27
ENDBRANCH   1  21
TORSDOF 2
ENDMDL
MODEL 4
REMARK VINA RESULT:      -7.0      5.476     10.017
REMARK  Name = ZINC000329563636
REMARK  3 active torsions:
REMARK  status: ('A' for Active; 'I' for Inactive)
REMARK    1  A    between atoms: C_1  and  C_2
REMARK    2  A    between atoms: C_2  and  N_3
REMARK    3  A    between atoms: N_9  and  C_10
REMARK                            x       y       z     vdW  Elec       q    Type
REMARK                         _______ _______ _______ _____ _____    ______ ____
ROOT
ATOM      1  C   UNL     1      31.659  22.060  15.177  0.00  0.00    +0.112 C 
ATOM      2  C   UNL     1      30.153  22.271  15.359  0.00  0.00    +0.075 C 
ATOM      3  C   UNL     1      29.408  21.099  16.016  0.00  0.00    +0.113 C 
ATOM      4  C   UNL     1      29.443  21.092  17.567  0.00  0.00    +0.048 C 
ATOM      5  C   UNL     1      28.019  21.379  18.029  0.00  0.00    +0.004 C 
ATOM      6  C   UNL     1      27.152  20.817  16.920  0.00  0.00    +0.004 C 
ATOM      7  C   UNL     1      27.904  21.219  15.663  0.00  0.00    +0.048 C 
ATOM      8  O   UNL     1      29.862  19.828  15.514  0.00  0.00    -0.485 OA
ATOM      9  C   UNL     1      31.209  19.636  15.675  0.00  0.00    +0.126 A 
ATOM     10  C   UNL     1      31.646  18.345  15.963  0.00  0.00    +0.046 A 
ATOM     11  C   UNL     1      33.003  18.099  16.177  0.00  0.00    +0.004 A 
ATOM     12  C   UNL     1      33.924  19.140  16.083  0.00  0.00    +0.001 A 
ATOM     13  C   UNL     1      33.485  20.425  15.763  0.00  0.00    +0.009 A 
ATOM     14  C   UNL     1      32.120  20.682  15.557  0.00  0.00    +0.015 A 
ENDROOT
BRANCH   1  21
ATOM     15  N   UNL     1      34.673  22.774   9.699  0.00  0.00    -0.299 N 
ATOM     16  C   UNL     1      35.338  23.396  10.844  0.00  0.00    +0.127 C 
ATOM     17  C   UNL     1      34.372  24.213  11.697  0.00  0.00    +0.129 C 
ATOM     18  N   UNL     1      33.272  23.358  12.118  0.00  0.00    -0.275 N 
ATOM     19  C   UNL     1      33.051  23.164  13.463  0.00  0.00    +0.303 C 
ATOM     20  O   UNL     1      33.746  23.692  14.330  0.00  0.00    -0.253 OA
ATOM     21  N   UNL     1      32.030  22.317  13.786  0.00  0.00    -0.292 N 
ATOM     22  C   UNL     1      32.532  22.738  11.016  0.00  0.00    +0.205 C 
ATOM     23  C   UNL     1      33.315  22.476   9.712  0.00  0.00    +0.233 C 
ATOM     24  O   UNL     1      32.737  22.005   8.731  0.00  0.00    -0.274 OA
ATOM     25  H   UNL     1      31.286  22.197  13.119  0.00  0.00    +0.151 HD
BRANCH  15  27
ATOM     26  C   UNL     1      35.773  23.494   7.609  0.00  0.00    +0.024 C 
ATOM     27  C   UNL     1      35.495  22.352   8.570  0.00  0.00    +0.104 C 
ENDBRANCH  15  27
ENDBRANCH   1  21
TORSDOF 2
ENDMDL
MODEL 5
REMARK VINA RESULT:      -6.8      5.383      9.819
REMARK  Name = ZINC000329563636
REMARK  3 active torsions:
REMARK  status: ('A' for Active; 'I' for Inactive)
REMARK    1  A    between atoms: C_1  and  C_2
REMARK    2  A    between atoms: C_2  and  N_3
REMARK    3  A    between atoms: N_9  and  C_10
REMARK                            x       y       z     vdW  Elec       q    Type
REMARK                         _______ _______ _______ _____ _____    ______ ____
ROOT
ATOM      1  C   UNL     1      32.765  21.897  15.536  0.00  0.00    +0.112 C 
ATOM      2  C   UNL     1      32.364  22.812  16.697  0.00  0.00    +0.075 C 
ATOM      3  C   UNL     1      31.210  22.288  17.566  0.00  0.00    +0.113 C 
ATOM      4  C   UNL     1      31.635  21.303  18.686  0.00  0.00    +0.048 C 
ATOM      5  C   UNL     1      31.408  22.031  20.006  0.00  0.00    +0.004 C 
ATOM      6  C   UNL     1      30.259  22.975  19.713  0.00  0.00    +0.004 C 
ATOM      7  C   UNL     1      30.587  23.489  18.322  0.00  0.00    +0.048 C 
ATOM      8  O   UNL     1      30.165  21.698  16.770  0.00  0.00    -0.485 OA
ATOM      9  C   UNL     1      30.609  20.678  15.971  0.00  0.00    +0.126 A 
ATOM     10  C   UNL     1      29.752  19.598  15.767  0.00  0.00    +0.046 A 
ATOM     11  C   UNL     1      30.168  18.513  14.995  0.00  0.00    +0.004 A 
ATOM     12  C   UNL     1      31.432  18.516  14.411  0.00  0.00    +0.001 A 
ATOM     13  C   UNL     1      32.275  19.612  14.591  0.00  0.00    +0.009 A 
ATOM     14  C   UNL     1      31.868  20.704  15.376  0.00  0.00    +0.015 A 
ENDROOT
BRANCH   1  21
ATOM     15  N   UNL     1      33.595  23.936   9.640  0.00  0.00    -0.299 N 
ATOM     16  C   UNL     1      34.803  23.416  10.279  0.00  0.00    +0.127 C 
ATOM     17  C   UNL     1      34.998  23.972  11.686  0.00  0.00    +0.129 C 
ATOM     18  N   UNL     1      33.809  23.685  12.477  0.00  0.00    -0.275 N 
ATOM     19  C   UNL     1      33.931  22.922  13.616  0.00  0.00    +0.303 C 
ATOM     20  O   UNL     1      35.011  22.475  14.000  0.00  0.00    -0.253 OA
ATOM     21  N   UNL     1      32.772  22.656  14.286  0.00  0.00    -0.292 N 
ATOM     22  C   UNL     1      32.566  24.220  11.917  0.00  0.00    +0.205 C 
ATOM     23  C   UNL     1      32.505  24.378  10.383  0.00  0.00    +0.233 C 
ATOM     24  O   UNL     1      31.507  24.871   9.854  0.00  0.00    -0.274 OA
ATOM     25  H   UNL     1      32.004  23.297  14.175  0.00  0.00    +0.151 HD
BRANCH  15  27
ATOM     26  C   UNL     1      33.447  22.439   7.682  0.00  0.00    +0.024 C 
ATOM     27  C   UNL     1      33.500  23.871   8.186  0.00  0.00    +0.104 C 
ENDBRANCH  15  27
ENDBRANCH   1  21
TORSDOF 2
ENDMDL
MODEL 6
REMARK VINA RESULT:      -6.7      5.258      8.529
REMARK  Name = ZINC000329563636
REMARK  3 active torsions:
REMARK  status: ('A' for Active; 'I' for Inactive)
REMARK    1  A    between atoms: C_1  and  C_2
REMARK    2  A    between atoms: C_2  and  N_3
REMARK    3  A    between atoms: N_9  and  C_10
REMARK                            x       y       z     vdW  Elec       q    Type
REMARK                         _______ _______ _______ _____ _____    ______ ____
ROOT
ATOM      1  C   UNL     1      33.626  21.838  12.739  0.00  0.00    +0.112 C 
ATOM      2  C   UNL     1      34.270  20.579  12.152  0.00  0.00    +0.075 C 
ATOM      3  C   UNL     1      34.467  20.601  10.628  0.00  0.00    +0.113 C 
ATOM      4  C   UNL     1      35.762  21.307  10.149  0.00  0.00    +0.048 C 
ATOM      5  C   UNL     1      36.656  20.215   9.573  0.00  0.00    +0.004 C 
ATOM      6  C   UNL     1      35.683  19.176   9.054  0.00  0.00    +0.004 C 
ATOM      7  C   UNL     1      34.616  19.139  10.135  0.00  0.00    +0.048 C 
ATOM      8  O   UNL     1      33.327  21.163   9.950  0.00  0.00    -0.485 OA
ATOM      9  C   UNL     1      33.023  22.431  10.371  0.00  0.00    +0.126 A 
ATOM     10  C   UNL     1      32.545  23.329   9.419  0.00  0.00    +0.046 A 
ATOM     11  C   UNL     1      32.257  24.645   9.784  0.00  0.00    +0.004 A 
ATOM     12  C   UNL     1      32.428  25.057  11.104  0.00  0.00    +0.001 A 
ATOM     13  C   UNL     1      32.876  24.146  12.060  0.00  0.00    +0.009 A 
ATOM     14  C   UNL     1      33.178  22.822  11.698  0.00  0.00    +0.015 A 
ENDROOT
BRANCH   1  21
ATOM     15  N   UNL     1      29.371  21.176  17.329  0.00  0.00    -0.299 N 
ATOM     16  C   UNL     1      30.760  21.038  17.764  0.00  0.00    +0.127 C 
ATOM     17  C   UNL     1      31.563  20.117  16.850  0.00  0.00    +0.129 C 
ATOM     18  N   UNL     1      31.477  20.615  15.484  0.00  0.00    -0.275 N 
ATOM     19  C   UNL     1      32.633  20.969  14.827  0.00  0.00    +0.303 C 
ATOM     20  O   UNL     1      33.744  20.877  15.347  0.00  0.00    -0.253 OA
ATOM     21  N   UNL     1      32.477  21.466  13.565  0.00  0.00    -0.292 N 
ATOM     22  C   UNL     1      30.111  20.733  14.967  0.00  0.00    +0.205 C 
ATOM     23  C   UNL     1      28.997  20.995  16.002  0.00  0.00    +0.233 C 
ATOM     24  O   UNL     1      27.820  21.053  15.637  0.00  0.00    -0.274 OA
ATOM     25  H   UNL     1      31.653  21.203  13.052  0.00  0.00    +0.151 HD
BRANCH  15  27
ATOM     26  C   UNL     1      29.031  22.340  19.480  0.00  0.00    +0.024 C 
ATOM     27  C   UNL     1      28.385  21.632  18.302  0.00  0.00    +0.104 C 
ENDBRANCH  15  27
ENDBRANCH   1  21
TORSDOF 2
ENDMDL
MODEL 7
REMARK VINA RESULT:      -6.6      6.271      9.991
REMARK  Name = ZINC000329563636
REMARK  3 active torsions:
REMARK  status: ('A' for Active; 'I' for Inactive)
REMARK    1  A    between atoms: C_1  and  C_2
REMARK    2  A    between atoms: C_2  and  N_3
REMARK    3  A    between atoms: N_9  and  C_10
REMARK                            x       y       z     vdW  Elec       q    Type
REMARK                         _______ _______ _______ _____ _____    ______ ____
ROOT
ATOM      1  C   UNL     1      32.373  19.543  14.349  0.00  0.00    +0.112 C 
ATOM      2  C   UNL     1      33.593  19.059  15.139  0.00  0.00    +0.075 C 
ATOM      3  C   UNL     1      33.420  19.059  16.666  0.00  0.00    +0.113 C 
ATOM      4  C   UNL     1      32.731  17.796  17.243  0.00  0.00    +0.048 C 
ATOM      5  C   UNL     1      33.798  17.052  18.039  0.00  0.00    +0.004 C 
ATOM      6  C   UNL     1      34.728  18.148  18.521  0.00  0.00    +0.004 C 
ATOM      7  C   UNL     1      34.827  19.066  17.315  0.00  0.00    +0.048 C 
ATOM      8  O   UNL     1      32.735  20.240  17.125  0.00  0.00    -0.485 OA
ATOM      9  C   UNL     1      31.505  20.408  16.545  0.00  0.00    +0.126 A 
ATOM     10  C   UNL     1      30.489  20.948  17.331  0.00  0.00    +0.046 A 
ATOM     11  C   UNL     1      29.207  21.104  16.803  0.00  0.00    +0.004 A 
ATOM     12  C   UNL     1      28.946  20.740  15.485  0.00  0.00    +0.001 A 
ATOM     13  C   UNL     1      29.973  20.229  14.692  0.00  0.00    +0.009 A 
ATOM     14  C   UNL     1      31.264  20.059  15.219  0.00  0.00    +0.015 A 
ENDROOT
BRANCH   1  21
ATOM     15  N   UNL     1      33.071  23.369   9.401  0.00  0.00    -0.299 N 
ATOM     16  C   UNL     1      33.102  21.943   9.076  0.00  0.00    +0.127 C 
ATOM     17  C   UNL     1      34.016  21.158  10.013  0.00  0.00    +0.129 C 
ATOM     18  N   UNL     1      33.591  21.383  11.387  0.00  0.00    -0.275 N 
ATOM     19  C   UNL     1      33.199  20.308  12.151  0.00  0.00    +0.303 C 
ATOM     20  O   UNL     1      33.198  19.156  11.721  0.00  0.00    -0.253 OA
ATOM     21  N   UNL     1      32.774  20.596  13.416  0.00  0.00    -0.292 N 
ATOM     22  C   UNL     1      33.582  22.791  11.794  0.00  0.00    +0.205 C 
ATOM     23  C   UNL     1      33.338  23.834  10.684  0.00  0.00    +0.233 C 
ATOM     24  O   UNL     1      33.369  25.037  10.953  0.00  0.00    -0.274 OA
ATOM     25  H   UNL     1      33.112  21.439  13.849  0.00  0.00    +0.151 HD
BRANCH  15  27
ATOM     26  C   UNL     1      33.028  23.846   6.979  0.00  0.00    +0.024 C 
ATOM     27  C   UNL     1      32.629  24.302   8.371  0.00  0.00    +0.104 C 
ENDBRANCH  15  27
ENDBRANCH   1  21
TORSDOF 2
ENDMDL
MODEL 8
REMARK VINA RESULT:      -6.6      5.447      9.653
REMARK  Name = ZINC000329563636
REMARK  3 active torsions:
REMARK  status: ('A' for Active; 'I' for Inactive)
REMARK    1  A    between atoms: C_1  and  C_2
REMARK    2  A    between atoms: C_2  and  N_3
REMARK    3  A    between atoms: N_9  and  C_10
REMARK                            x       y       z     vdW  Elec       q    Type
REMARK                         _______ _______ _______ _____ _____    ______ ____
ROOT
ATOM      1  C   UNL     1      32.545  21.560  15.685  0.00  0.00    +0.112 C 
ATOM      2  C   UNL     1      33.201  22.344  16.826  0.00  0.00    +0.075 C 
ATOM      3  C   UNL     1      32.350  22.469  18.100  0.00  0.00    +0.113 C 
ATOM      4  C   UNL     1      32.450  21.264  19.070  0.00  0.00    +0.048 C 
ATOM      5  C   UNL     1      33.174  21.771  20.311  0.00  0.00    +0.004 C 
ATOM      6  C   UNL     1      32.810  23.241  20.375  0.00  0.00    +0.004 C 
ATOM      7  C   UNL     1      32.879  23.673  18.921  0.00  0.00    +0.048 C 
ATOM      8  O   UNL     1      30.969  22.737  17.796  0.00  0.00    -0.485 OA
ATOM      9  C   UNL     1      30.404  21.789  16.984  0.00  0.00    +0.126 A 
ATOM     10  C   UNL     1      29.066  21.466  17.204  0.00  0.00    +0.046 A 
ATOM     11  C   UNL     1      28.451  20.478  16.433  0.00  0.00    +0.004 A 
ATOM     12  C   UNL     1      29.167  19.830  15.430  0.00  0.00    +0.001 A 
ATOM     13  C   UNL     1      30.496  20.179  15.191  0.00  0.00    +0.009 A 
ATOM     14  C   UNL     1      31.125  21.164  15.970  0.00  0.00    +0.015 A 
ENDROOT
BRANCH   1  21
ATOM     15  N   UNL     1      33.117  23.621   9.767  0.00  0.00    -0.299 N 
ATOM     16  C   UNL     1      34.240  22.814  10.240  0.00  0.00    +0.127 C 
ATOM     17  C   UNL     1      34.722  23.249  11.621  0.00  0.00    +0.129 C 
ATOM     18  N   UNL     1      33.602  23.202  12.549  0.00  0.00    -0.275 N 
ATOM     19  C   UNL     1      33.679  22.381  13.651  0.00  0.00    +0.303 C 
ATOM     20  O   UNL     1      34.665  21.685  13.889  0.00  0.00    -0.253 OA
ATOM     21  N   UNL     1      32.577  22.354  14.457  0.00  0.00    -0.292 N 
ATOM     22  C   UNL     1      32.456  24.028  12.158  0.00  0.00    +0.205 C 
ATOM     23  C   UNL     1      32.253  24.264  10.647  0.00  0.00    +0.233 C 
ATOM     24  O   UNL     1      31.339  24.992  10.255  0.00  0.00    -0.274 OA
ATOM     25  H   UNL     1      31.969  23.156  14.454  0.00  0.00    +0.151 HD
BRANCH  15  27
ATOM     26  C   UNL     1      34.097  23.465   7.505  0.00  0.00    +0.024 C 
ATOM     27  C   UNL     1      32.837  23.644   8.335  0.00  0.00    +0.104 C 
ENDBRANCH  15  27
ENDBRANCH   1  21
TORSDOF 2
ENDMDL
MODEL 9
REMARK VINA RESULT:      -6.6      4.769      7.756
REMARK  Name = ZINC000329563636
REMARK  3 active torsions:
REMARK  status: ('A' for Active; 'I' for Inactive)
REMARK    1  A    between atoms: C_1  and  C_2
REMARK    2  A    between atoms: C_2  and  N_3
REMARK    3  A    between atoms: N_9  and  C_10
REMARK                            x       y       z     vdW  Elec       q    Type
REMARK                         _______ _______ _______ _____ _____    ______ ____
ROOT
ATOM      1  C   UNL     1      22.980  26.632  21.198  0.00  0.00    +0.112 C 
ATOM      2  C   UNL     1      23.731  27.964  21.287  0.00  0.00    +0.075 C 
ATOM      3  C   UNL     1      25.006  28.048  20.434  0.00  0.00    +0.113 C 
ATOM      4  C   UNL     1      24.773  28.449  18.954  0.00  0.00    +0.048 C 
ATOM      5  C   UNL     1      25.377  29.839  18.787  0.00  0.00    +0.004 C 
ATOM      6  C   UNL     1      26.505  29.875  19.800  0.00  0.00    +0.004 C 
ATOM      7  C   UNL     1      25.901  29.176  21.006  0.00  0.00    +0.048 C 
ATOM      8  O   UNL     1      25.771  26.829  20.493  0.00  0.00    -0.485 OA
ATOM      9  C   UNL     1      25.055  25.726  20.105  0.00  0.00    +0.126 A 
ATOM     10  C   UNL     1      25.735  24.729  19.409  0.00  0.00    +0.046 A 
ATOM     11  C   UNL     1      25.048  23.603  18.955  0.00  0.00    +0.004 A 
ATOM     12  C   UNL     1      23.686  23.465  19.213  0.00  0.00    +0.001 A 
ATOM     13  C   UNL     1      23.016  24.451  19.937  0.00  0.00    +0.009 A 
ATOM     14  C   UNL     1      23.699  25.593  20.389  0.00  0.00    +0.015 A 
ENDROOT
BRANCH   1  21
ATOM     15  N   UNL     1      21.383  23.159  26.197  0.00  0.00    -0.299 N 
ATOM     16  C   UNL     1      20.344  23.265  25.174  0.00  0.00    +0.127 C 
ATOM     17  C   UNL     1      20.139  24.703  24.708  0.00  0.00    +0.129 C 
ATOM     18  N   UNL     1      21.410  25.233  24.235  0.00  0.00    -0.275 N 
ATOM     19  C   UNL     1      21.513  25.660  22.931  0.00  0.00    +0.303 C 
ATOM     20  O   UNL     1      20.568  25.618  22.144  0.00  0.00    -0.253 OA
ATOM     21  N   UNL     1      22.744  26.106  22.543  0.00  0.00    -0.292 N 
ATOM     22  C   UNL     1      22.486  25.200  25.228  0.00  0.00    +0.205 C 
ATOM     23  C   UNL     1      22.413  24.088  26.296  0.00  0.00    +0.233 C 
ATOM     24  O   UNL     1      23.261  24.037  27.190  0.00  0.00    -0.274 OA
ATOM     25  H   UNL     1      23.364  26.460  23.252  0.00  0.00    +0.151 HD
BRANCH  15  27
ATOM     26  C   UNL     1      22.039  20.783  26.366  0.00  0.00    +0.024 C 
ATOM     27  C   UNL     1      21.394  21.975  27.051  0.00  0.00    +0.104 C 
ENDBRANCH  15  27
ENDBRANCH   1  21
TORSDOF 2
ENDMDL
