MODEL 1
REMARK VINA RESULT:      -6.7      0.000      0.000
REMARK  Name = ZINC000870248439
REMARK  2 active torsions:
REMARK  status: ('A' for Active; 'I' for Inactive)
REMARK    1  A    between atoms: C_2  and  C_4
REMARK    2  A    between atoms: C_7  and  C_8
REMARK                            x       y       z     vdW  Elec       q    Type
REMARK                         _______ _______ _______ _____ _____    ______ ____
ROOT
ATOM      1  C   UNL     1      30.147  23.428  13.151  0.00  0.00    +0.247 C 
ATOM      2  O   UNL     1      29.382  24.064  12.427  0.00  0.00    -0.270 OA
ATOM      3  N   UNL     1      31.540  23.448  13.001  0.00  0.00    -0.297 N 
ATOM      4  C   UNL     1      32.495  22.686  13.808  0.00  0.00    +0.108 C 
ATOM      5  C   UNL     1      33.778  23.451  14.107  0.00  0.00    +0.026 C 
ATOM      6  C   UNL     1      34.432  24.077  12.856  0.00  0.00    -0.025 C 
ATOM      7  C   UNL     1      35.583  24.992  13.344  0.00  0.00    +0.017 C 
ATOM      8  C   UNL     1      36.376  25.675  12.238  0.00  0.00    +0.069 C 
ATOM      9  S   UNL     1      37.173  24.484  11.125  0.00  0.00    -0.161 S 
ATOM     10  C   UNL     1      35.737  23.458  10.708  0.00  0.00    +0.069 C 
ATOM     11  C   UNL     1      35.014  22.958  11.954  0.00  0.00    +0.017 C 
ATOM     12  C   UNL     1      33.339  24.912  12.140  0.00  0.00    +0.026 C 
ATOM     13  C   UNL     1      32.086  24.100  11.813  0.00  0.00    +0.108 C 
ENDROOT
BRANCH   1  17
ATOM     14  C   UNL     1      28.139  21.276  16.243  0.00  0.00    +0.037 A 
ATOM     15  C   UNL     1      28.717  22.515  16.537  0.00  0.00    +0.014 A 
ATOM     16  C   UNL     1      29.459  23.181  15.560  0.00  0.00    +0.014 A 
ATOM     17  C   UNL     1      29.541  22.658  14.265  0.00  0.00    +0.037 A 
ATOM     18  C   UNL     1      29.039  21.378  13.999  0.00  0.00    +0.014 A 
ATOM     19  C   UNL     1      28.347  20.681  14.993  0.00  0.00    +0.014 A 
BRANCH  14  21
ATOM     20  N   UNL     1      27.590  19.253  17.473  0.00  0.00    -0.325 N 
ATOM     21  C   UNL     1      27.300  20.569  17.244  0.00  0.00    +0.242 C 
ATOM     22  O   UNL     1      26.428  21.147  17.873  0.00  0.00    -0.270 OA
ATOM     23  H   UNL     1      27.096  18.816  18.242  0.00  0.00    +0.145 HD
ATOM     24  H   UNL     1      28.456  18.828  17.173  0.00  0.00    +0.145 HD
ENDBRANCH  14  21
ENDBRANCH   1  17
TORSDOF 2
ENDMDL
MODEL 2
REMARK VINA RESULT:      -6.7      2.158      3.047
REMARK  Name = ZINC000870248439
REMARK  2 active torsions:
REMARK  status: ('A' for Active; 'I' for Inactive)
REMARK    1  A    between atoms: C_2  and  C_4
REMARK    2  A    between atoms: C_7  and  C_8
REMARK                            x       y       z     vdW  Elec       q    Type
REMARK                         _______ _______ _______ _____ _____    ______ ____
ROOT
ATOM      1  C   UNL     1      31.381  22.025  15.642  0.00  0.00    +0.247 C 
ATOM      2  O   UNL     1      32.056  21.179  16.227  0.00  0.00    -0.270 OA
ATOM      3  N   UNL     1      31.821  22.703  14.497  0.00  0.00    -0.297 N 
ATOM      4  C   UNL     1      31.076  23.742  13.784  0.00  0.00    +0.108 C 
ATOM      5  C   UNL     1      31.242  23.672  12.271  0.00  0.00    +0.026 C 
ATOM      6  C   UNL     1      32.714  23.583  11.813  0.00  0.00    -0.025 C 
ATOM      7  C   UNL     1      32.710  23.298  10.290  0.00  0.00    +0.017 C 
ATOM      8  C   UNL     1      34.087  23.213   9.647  0.00  0.00    +0.069 C 
ATOM      9  S   UNL     1      35.030  24.752   9.826  0.00  0.00    -0.161 S 
ATOM     10  C   UNL     1      34.881  24.986  11.618  0.00  0.00    +0.069 C 
ATOM     11  C   UNL     1      33.429  24.933  12.081  0.00  0.00    +0.017 C 
ATOM     12  C   UNL     1      33.361  22.404  12.585  0.00  0.00    +0.026 C 
ATOM     13  C   UNL     1      33.217  22.532  14.102  0.00  0.00    +0.108 C 
ENDROOT
BRANCH   1  17
ATOM     14  C   UNL     1      27.517  22.582  17.373  0.00  0.00    +0.037 A 
ATOM     15  C   UNL     1      27.654  21.747  16.258  0.00  0.00    +0.014 A 
ATOM     16  C   UNL     1      28.893  21.635  15.627  0.00  0.00    +0.014 A 
ATOM     17  C   UNL     1      30.014  22.278  16.164  0.00  0.00    +0.037 A 
ATOM     18  C   UNL     1      29.858  23.181  17.222  0.00  0.00    +0.014 A 
ATOM     19  C   UNL     1      28.605  23.341  17.821  0.00  0.00    +0.014 A 
BRANCH  14  21
ATOM     20  N   UNL     1      26.086  23.723  18.972  0.00  0.00    -0.325 N 
ATOM     21  C   UNL     1      26.226  22.681  18.099  0.00  0.00    +0.242 C 
ATOM     22  O   UNL     1      25.310  21.901  17.887  0.00  0.00    -0.270 OA
ATOM     23  H   UNL     1      25.163  23.851  19.367  0.00  0.00    +0.145 HD
ATOM     24  H   UNL     1      26.708  24.519  18.970  0.00  0.00    +0.145 HD
ENDBRANCH  14  21
ENDBRANCH   1  17
TORSDOF 2
ENDMDL
MODEL 3
REMARK VINA RESULT:      -6.5      1.858      2.304
REMARK  Name = ZINC000870248439
REMARK  2 active torsions:
REMARK  status: ('A' for Active; 'I' for Inactive)
REMARK    1  A    between atoms: C_2  and  C_4
REMARK    2  A    between atoms: C_7  and  C_8
REMARK                            x       y       z     vdW  Elec       q    Type
REMARK                         _______ _______ _______ _____ _____    ______ ____
ROOT
ATOM      1  C   UNL     1      31.258  22.892  13.678  0.00  0.00    +0.247 C 
ATOM      2  O   UNL     1      31.060  24.104  13.615  0.00  0.00    -0.270 OA
ATOM      3  N   UNL     1      32.280  22.243  12.971  0.00  0.00    -0.297 N 
ATOM      4  C   UNL     1      32.538  20.801  12.980  0.00  0.00    +0.108 C 
ATOM      5  C   UNL     1      34.021  20.454  12.955  0.00  0.00    +0.026 C 
ATOM      6  C   UNL     1      34.810  21.187  11.849  0.00  0.00    -0.025 C 
ATOM      7  C   UNL     1      36.315  20.908  12.090  0.00  0.00    +0.017 C 
ATOM      8  C   UNL     1      37.258  21.526  11.066  0.00  0.00    +0.069 C 
ATOM      9  S   UNL     1      36.939  20.925   9.385  0.00  0.00    -0.161 S 
ATOM     10  C   UNL     1      35.157  21.247   9.285  0.00  0.00    +0.069 C 
ATOM     11  C   UNL     1      34.402  20.635  10.459  0.00  0.00    +0.017 C 
ATOM     12  C   UNL     1      34.508  22.701  12.000  0.00  0.00    +0.026 C 
ATOM     13  C   UNL     1      33.012  23.017  11.973  0.00  0.00    +0.108 C 
ENDROOT
BRANCH   1  17
ATOM     14  C   UNL     1      28.577  20.870  16.315  0.00  0.00    +0.037 A 
ATOM     15  C   UNL     1      29.742  21.446  16.833  0.00  0.00    +0.014 A 
ATOM     16  C   UNL     1      30.671  22.023  15.967  0.00  0.00    +0.014 A 
ATOM     17  C   UNL     1      30.394  22.112  14.599  0.00  0.00    +0.037 A 
ATOM     18  C   UNL     1      29.274  21.457  14.072  0.00  0.00    +0.014 A 
ATOM     19  C   UNL     1      28.370  20.825  14.931  0.00  0.00    +0.014 A 
BRANCH  14  21
ATOM     20  N   UNL     1      27.649  18.963  17.503  0.00  0.00    -0.325 N 
ATOM     21  C   UNL     1      27.545  20.295  17.214  0.00  0.00    +0.242 C 
ATOM     22  O   UNL     1      26.674  20.989  17.716  0.00  0.00    -0.270 OA
ATOM     23  H   UNL     1      27.016  18.611  18.210  0.00  0.00    +0.145 HD
ATOM     24  H   UNL     1      28.490  18.434  17.323  0.00  0.00    +0.145 HD
ENDBRANCH  14  21
ENDBRANCH   1  17
TORSDOF 2
ENDMDL
MODEL 4
REMARK VINA RESULT:      -6.3      3.876      7.807
REMARK  Name = ZINC000870248439
REMARK  2 active torsions:
REMARK  status: ('A' for Active; 'I' for Inactive)
REMARK    1  A    between atoms: C_2  and  C_4
REMARK    2  A    between atoms: C_7  and  C_8
REMARK                            x       y       z     vdW  Elec       q    Type
REMARK                         _______ _______ _______ _____ _____    ______ ____
ROOT
ATOM      1  C   UNL     1      31.649  24.168  11.391  0.00  0.00    +0.247 C 
ATOM      2  O   UNL     1      30.598  24.611  10.929  0.00  0.00    -0.270 OA
ATOM      3  N   UNL     1      31.857  23.958  12.762  0.00  0.00    -0.297 N 
ATOM      4  C   UNL     1      33.096  23.468  13.370  0.00  0.00    +0.108 C 
ATOM      5  C   UNL     1      32.860  22.527  14.545  0.00  0.00    +0.026 C 
ATOM      6  C   UNL     1      31.869  23.081  15.591  0.00  0.00    -0.025 C 
ATOM      7  C   UNL     1      31.566  21.938  16.593  0.00  0.00    +0.017 C 
ATOM      8  C   UNL     1      30.626  22.311  17.731  0.00  0.00    +0.069 C 
ATOM      9  S   UNL     1      31.279  23.660  18.752  0.00  0.00    -0.161 S 
ATOM     10  C   UNL     1      31.649  24.867  17.451  0.00  0.00    +0.069 C 
ATOM     11  C   UNL     1      32.516  24.269  16.349  0.00  0.00    +0.017 C 
ATOM     12  C   UNL     1      30.582  23.491  14.829  0.00  0.00    +0.026 C 
ATOM     13  C   UNL     1      30.851  24.472  13.687  0.00  0.00    +0.108 C 
ENDROOT
BRANCH   1  17
ATOM     14  C   UNL     1      34.602  23.302   8.432  0.00  0.00    +0.037 A 
ATOM     15  C   UNL     1      33.502  22.449   8.571  0.00  0.00    +0.014 A 
ATOM     16  C   UNL     1      32.583  22.668   9.598  0.00  0.00    +0.014 A 
ATOM     17  C   UNL     1      32.708  23.791  10.423  0.00  0.00    +0.037 A 
ATOM     18  C   UNL     1      33.855  24.590  10.340  0.00  0.00    +0.014 A 
ATOM     19  C   UNL     1      34.809  24.339   9.350  0.00  0.00    +0.014 A 
BRANCH  14  21
ATOM     20  N   UNL     1      35.596  24.106   6.364  0.00  0.00    -0.325 N 
ATOM     21  C   UNL     1      35.568  23.127   7.318  0.00  0.00    +0.242 C 
ATOM     22  O   UNL     1      36.340  22.182   7.281  0.00  0.00    -0.270 OA
ATOM     23  H   UNL     1      36.339  24.040   5.680  0.00  0.00    +0.145 HD
ATOM     24  H   UNL     1      35.169  25.011   6.505  0.00  0.00    +0.145 HD
ENDBRANCH  14  21
ENDBRANCH   1  17
TORSDOF 2
ENDMDL
MODEL 5
REMARK VINA RESULT:      -6.3     24.255     26.155
REMARK  Name = ZINC000870248439
REMARK  2 active torsions:
REMARK  status: ('A' for Active; 'I' for Inactive)
REMARK    1  A    between atoms: C_2  and  C_4
REMARK    2  A    between atoms: C_7  and  C_8
REMARK                            x       y       z     vdW  Elec       q    Type
REMARK                         _______ _______ _______ _____ _____    ______ ____
ROOT
ATOM      1  C   UNL     1      20.108   8.023  29.688  0.00  0.00    +0.247 C 
ATOM      2  O   UNL     1      20.285   8.996  28.955  0.00  0.00    -0.270 OA
ATOM      3  N   UNL     1      21.155   7.333  30.313  0.00  0.00    -0.297 N 
ATOM      4  C   UNL     1      21.007   6.150  31.164  0.00  0.00    +0.108 C 
ATOM      5  C   UNL     1      21.969   6.133  32.345  0.00  0.00    +0.026 C 
ATOM      6  C   UNL     1      23.439   6.393  31.950  0.00  0.00    -0.025 C 
ATOM      7  C   UNL     1      24.248   6.563  33.261  0.00  0.00    +0.017 C 
ATOM      8  C   UNL     1      25.741   6.794  33.071  0.00  0.00    +0.069 C 
ATOM      9  S   UNL     1      26.547   5.419  32.206  0.00  0.00    -0.161 S 
ATOM     10  C   UNL     1      25.459   5.297  30.760  0.00  0.00    +0.069 C 
ATOM     11  C   UNL     1      23.992   5.179  31.159  0.00  0.00    +0.017 C 
ATOM     12  C   UNL     1      23.463   7.704  31.122  0.00  0.00    +0.026 C 
ATOM     13  C   UNL     1      22.521   7.668  29.919  0.00  0.00    +0.108 C 
ENDROOT
BRANCH   1  17
ATOM     14  C   UNL     1      16.162   6.744  30.696  0.00  0.00    +0.037 A 
ATOM     15  C   UNL     1      16.863   6.072  29.689  0.00  0.00    +0.014 A 
ATOM     16  C   UNL     1      18.113   6.542  29.285  0.00  0.00    +0.014 A 
ATOM     17  C   UNL     1      18.704   7.621  29.951  0.00  0.00    +0.037 A 
ATOM     18  C   UNL     1      17.966   8.346  30.894  0.00  0.00    +0.014 A 
ATOM     19  C   UNL     1      16.688   7.913  31.259  0.00  0.00    +0.014 A 
BRANCH  14  21
ATOM     20  N   UNL     1      13.932   7.173  31.563  0.00  0.00    -0.325 N 
ATOM     21  C   UNL     1      14.855   6.238  31.185  0.00  0.00    +0.242 C 
ATOM     22  O   UNL     1      14.593   5.045  31.198  0.00  0.00    -0.270 OA
ATOM     23  H   UNL     1      13.006   6.824  31.776  0.00  0.00    +0.145 HD
ATOM     24  H   UNL     1      14.018   8.149  31.317  0.00  0.00    +0.145 HD
ENDBRANCH  14  21
ENDBRANCH   1  17
TORSDOF 2
ENDMDL
MODEL 6
REMARK VINA RESULT:      -6.3      4.651      5.603
REMARK  Name = ZINC000870248439
REMARK  2 active torsions:
REMARK  status: ('A' for Active; 'I' for Inactive)
REMARK    1  A    between atoms: C_2  and  C_4
REMARK    2  A    between atoms: C_7  and  C_8
REMARK                            x       y       z     vdW  Elec       q    Type
REMARK                         _______ _______ _______ _____ _____    ______ ____
ROOT
ATOM      1  C   UNL     1      31.820  22.838  16.519  0.00  0.00    +0.247 C 
ATOM      2  O   UNL     1      32.535  22.502  15.575  0.00  0.00    -0.270 OA
ATOM      3  N   UNL     1      32.266  23.656  17.566  0.00  0.00    -0.297 N 
ATOM      4  C   UNL     1      31.472  24.057  18.729  0.00  0.00    +0.108 C 
ATOM      5  C   UNL     1      31.739  25.489  19.176  0.00  0.00    +0.026 C 
ATOM      6  C   UNL     1      33.238  25.816  19.345  0.00  0.00    -0.025 C 
ATOM      7  C   UNL     1      33.356  27.343  19.581  0.00  0.00    +0.017 C 
ATOM      8  C   UNL     1      34.773  27.852  19.808  0.00  0.00    +0.069 C 
ATOM      9  S   UNL     1      35.553  27.098  21.262  0.00  0.00    -0.161 S 
ATOM     10  C   UNL     1      35.271  25.348  20.878  0.00  0.00    +0.069 C 
ATOM     11  C   UNL     1      33.804  25.061  20.575  0.00  0.00    +0.017 C 
ATOM     12  C   UNL     1      33.944  25.414  18.024  0.00  0.00    +0.026 C 
ATOM     13  C   UNL     1      33.693  23.958  17.631  0.00  0.00    +0.108 C 
ENDROOT
BRANCH   1  17
ATOM     14  C   UNL     1      27.707  21.706  16.679  0.00  0.00    +0.037 A 
ATOM     15  C   UNL     1      28.687  20.774  17.035  0.00  0.00    +0.014 A 
ATOM     16  C   UNL     1      30.036  21.101  16.893  0.00  0.00    +0.014 A 
ATOM     17  C   UNL     1      30.406  22.389  16.490  0.00  0.00    +0.037 A 
ATOM     18  C   UNL     1      29.427  23.288  16.048  0.00  0.00    +0.014 A 
ATOM     19  C   UNL     1      28.076  22.942  16.133  0.00  0.00    +0.014 A 
BRANCH  14  21
ATOM     20  N   UNL     1      25.910  20.089  16.937  0.00  0.00    -0.325 N 
ATOM     21  C   UNL     1      26.265  21.408  16.867  0.00  0.00    +0.242 C 
ATOM     22  O   UNL     1      25.439  22.297  17.009  0.00  0.00    -0.270 OA
ATOM     23  H   UNL     1      24.948  19.900  17.188  0.00  0.00    +0.145 HD
ATOM     24  H   UNL     1      26.586  19.354  17.089  0.00  0.00    +0.145 HD
ENDBRANCH  14  21
ENDBRANCH   1  17
TORSDOF 2
ENDMDL
MODEL 7
REMARK VINA RESULT:      -6.2     11.107     12.676
REMARK  Name = ZINC000870248439
REMARK  2 active torsions:
REMARK  status: ('A' for Active; 'I' for Inactive)
REMARK    1  A    between atoms: C_2  and  C_4
REMARK    2  A    between atoms: C_7  and  C_8
REMARK                            x       y       z     vdW  Elec       q    Type
REMARK                         _______ _______ _______ _____ _____    ______ ____
ROOT
ATOM      1  C   UNL     1      21.474  25.538  21.112  0.00  0.00    +0.247 C 
ATOM      2  O   UNL     1      20.417  25.256  21.674  0.00  0.00    -0.270 OA
ATOM      3  N   UNL     1      22.572  26.101  21.777  0.00  0.00    -0.297 N 
ATOM      4  C   UNL     1      23.839  26.488  21.152  0.00  0.00    +0.108 C 
ATOM      5  C   UNL     1      25.054  26.207  22.028  0.00  0.00    +0.026 C 
ATOM      6  C   UNL     1      24.917  26.748  23.468  0.00  0.00    -0.025 C 
ATOM      7  C   UNL     1      26.114  26.200  24.285  0.00  0.00    +0.017 C 
ATOM      8  C   UNL     1      26.170  26.661  25.735  0.00  0.00    +0.069 C 
ATOM      9  S   UNL     1      26.298  28.464  25.881  0.00  0.00    -0.161 S 
ATOM     10  C   UNL     1      24.902  28.949  24.831  0.00  0.00    +0.069 C 
ATOM     11  C   UNL     1      24.972  28.298  23.454  0.00  0.00    +0.017 C 
ATOM     12  C   UNL     1      23.579  26.206  24.034  0.00  0.00    +0.026 C 
ATOM     13  C   UNL     1      22.376  26.547  23.154  0.00  0.00    +0.108 C 
ENDROOT
BRANCH   1  17
ATOM     14  C   UNL     1      21.500  24.516  16.966  0.00  0.00    +0.037 A 
ATOM     15  C   UNL     1      22.025  23.613  17.897  0.00  0.00    +0.014 A 
ATOM     16  C   UNL     1      22.110  23.977  19.241  0.00  0.00    +0.014 A 
ATOM     17  C   UNL     1      21.585  25.200  19.671  0.00  0.00    +0.037 A 
ATOM     18  C   UNL     1      21.144  26.138  18.728  0.00  0.00    +0.014 A 
ATOM     19  C   UNL     1      21.112  25.799  17.372  0.00  0.00    +0.014 A 
BRANCH  14  21
ATOM     20  N   UNL     1      20.539  24.931  14.773  0.00  0.00    -0.325 N 
ATOM     21  C   UNL     1      21.348  24.139  15.539  0.00  0.00    +0.242 C 
ATOM     22  O   UNL     1      21.958  23.198  15.055  0.00  0.00    -0.270 OA
ATOM     23  H   UNL     1      20.539  24.738  13.779  0.00  0.00    +0.145 HD
ATOM     24  H   UNL     1      20.240  25.849  15.071  0.00  0.00    +0.145 HD
ENDBRANCH  14  21
ENDBRANCH   1  17
TORSDOF 2
ENDMDL
MODEL 8
REMARK VINA RESULT:      -6.2      2.230      2.952
REMARK  Name = ZINC000870248439
REMARK  2 active torsions:
REMARK  status: ('A' for Active; 'I' for Inactive)
REMARK    1  A    between atoms: C_2  and  C_4
REMARK    2  A    between atoms: C_7  and  C_8
REMARK                            x       y       z     vdW  Elec       q    Type
REMARK                         _______ _______ _______ _____ _____    ______ ____
ROOT
ATOM      1  C   UNL     1      31.577  22.436  16.524  0.00  0.00    +0.247 C 
ATOM      2  O   UNL     1      32.409  22.107  17.369  0.00  0.00    -0.270 OA
ATOM      3  N   UNL     1      31.922  22.896  15.246  0.00  0.00    -0.297 N 
ATOM      4  C   UNL     1      30.978  23.333  14.215  0.00  0.00    +0.108 C 
ATOM      5  C   UNL     1      31.394  22.928  12.806  0.00  0.00    +0.026 C 
ATOM      6  C   UNL     1      32.853  23.295  12.462  0.00  0.00    -0.025 C 
ATOM      7  C   UNL     1      33.189  22.632  11.102  0.00  0.00    +0.017 C 
ATOM      8  C   UNL     1      34.590  22.916  10.576  0.00  0.00    +0.069 C 
ATOM      9  S   UNL     1      34.883  24.686  10.312  0.00  0.00    -0.161 S 
ATOM     10  C   UNL     1      34.381  25.317  11.936  0.00  0.00    +0.069 C 
ATOM     11  C   UNL     1      32.990  24.834  12.330  0.00  0.00    +0.017 C 
ATOM     12  C   UNL     1      33.747  22.712  13.587  0.00  0.00    +0.026 C 
ATOM     13  C   UNL     1      33.331  23.177  14.983  0.00  0.00    +0.108 C 
ENDROOT
BRANCH   1  17
ATOM     14  C   UNL     1      27.396  21.998  17.271  0.00  0.00    +0.037 A 
ATOM     15  C   UNL     1      28.040  23.180  17.655  0.00  0.00    +0.014 A 
ATOM     16  C   UNL     1      29.422  23.294  17.504  0.00  0.00    +0.014 A 
ATOM     17  C   UNL     1      30.147  22.271  16.883  0.00  0.00    +0.037 A 
ATOM     18  C   UNL     1      29.517  21.056  16.583  0.00  0.00    +0.014 A 
ATOM     19  C   UNL     1      28.142  20.916  16.788  0.00  0.00    +0.014 A 
BRANCH  14  21
ATOM     20  N   UNL     1      25.241  22.919  17.915  0.00  0.00    -0.325 N 
ATOM     21  C   UNL     1      25.921  21.866  17.370  0.00  0.00    +0.242 C 
ATOM     22  O   UNL     1      25.335  20.886  16.936  0.00  0.00    -0.270 OA
ATOM     23  H   UNL     1      24.231  22.870  17.864  0.00  0.00    +0.145 HD
ATOM     24  H   UNL     1      25.660  23.831  18.033  0.00  0.00    +0.145 HD
ENDBRANCH  14  21
ENDBRANCH   1  17
TORSDOF 2
ENDMDL
MODEL 9
REMARK VINA RESULT:      -6.2      6.138      7.588
REMARK  Name = ZINC000870248439
REMARK  2 active torsions:
REMARK  status: ('A' for Active; 'I' for Inactive)
REMARK    1  A    between atoms: C_2  and  C_4
REMARK    2  A    between atoms: C_7  and  C_8
REMARK                            x       y       z     vdW  Elec       q    Type
REMARK                         _______ _______ _______ _____ _____    ______ ____
ROOT
ATOM      1  C   UNL     1      31.586  24.298  18.995  0.00  0.00    +0.247 C 
ATOM      2  O   UNL     1      30.919  25.235  19.431  0.00  0.00    -0.270 OA
ATOM      3  N   UNL     1      32.662  23.730  19.692  0.00  0.00    -0.297 N 
ATOM      4  C   UNL     1      33.510  22.639  19.207  0.00  0.00    +0.108 C 
ATOM      5  C   UNL     1      33.920  21.662  20.302  0.00  0.00    +0.026 C 
ATOM      6  C   UNL     1      34.501  22.347  21.558  0.00  0.00    -0.025 C 
ATOM      7  C   UNL     1      34.660  21.258  22.648  0.00  0.00    +0.017 C 
ATOM      8  C   UNL     1      35.260  21.743  23.961  0.00  0.00    +0.069 C 
ATOM      9  S   UNL     1      36.926  22.429  23.746  0.00  0.00    -0.161 S 
ATOM     10  C   UNL     1      36.593  23.611  22.412  0.00  0.00    +0.069 C 
ATOM     11  C   UNL     1      35.891  22.952  21.230  0.00  0.00    +0.017 C 
ATOM     12  C   UNL     1      33.476  23.421  22.007  0.00  0.00    +0.026 C 
ATOM     13  C   UNL     1      33.125  24.413  20.897  0.00  0.00    +0.108 C 
ENDROOT
BRANCH   1  17
ATOM     14  C   UNL     1      30.169  22.831  15.244  0.00  0.00    +0.037 A 
ATOM     15  C   UNL     1      29.983  22.058  16.396  0.00  0.00    +0.014 A 
ATOM     16  C   UNL     1      30.527  22.482  17.608  0.00  0.00    +0.014 A 
ATOM     17  C   UNL     1      31.172  23.721  17.692  0.00  0.00    +0.037 A 
ATOM     18  C   UNL     1      31.435  24.449  16.524  0.00  0.00    +0.014 A 
ATOM     19  C   UNL     1      30.942  23.997  15.297  0.00  0.00    +0.014 A 
BRANCH  14  21
ATOM     20  N   UNL     1      29.905  23.167  12.851  0.00  0.00    -0.325 N 
ATOM     21  C   UNL     1      29.557  22.434  13.951  0.00  0.00    +0.242 C 
ATOM     22  O   UNL     1      28.820  21.464  13.862  0.00  0.00    -0.270 OA
ATOM     23  H   UNL     1      29.581  22.813  11.960  0.00  0.00    +0.145 HD
ATOM     24  H   UNL     1      30.700  23.791  12.845  0.00  0.00    +0.145 HD
ENDBRANCH  14  21
ENDBRANCH   1  17
TORSDOF 2
ENDMDL
