MODEL 1
REMARK VINA RESULT:      -6.9      0.000      0.000
REMARK  Name = ZINC000329563636
REMARK  3 active torsions:
REMARK  status: ('A' for Active; 'I' for Inactive)
REMARK    1  A    between atoms: C_1  and  C_2
REMARK    2  A    between atoms: C_2  and  N_3
REMARK    3  A    between atoms: N_9  and  C_10
REMARK                            x       y       z     vdW  Elec       q    Type
REMARK                         _______ _______ _______ _____ _____    ______ ____
ROOT
ATOM      1  C   UNL     1      31.530  23.783  13.306  0.00  0.00    +0.112 C 
ATOM      2  C   UNL     1      30.259  22.958  13.538  0.00  0.00    +0.075 C 
ATOM      3  C   UNL     1      30.230  22.172  14.856  0.00  0.00    +0.113 C 
ATOM      4  C   UNL     1      29.756  22.986  16.089  0.00  0.00    +0.048 C 
ATOM      5  C   UNL     1      28.403  22.409  16.487  0.00  0.00    +0.004 C 
ATOM      6  C   UNL     1      28.489  20.954  16.070  0.00  0.00    +0.004 C 
ATOM      7  C   UNL     1      29.188  21.030  14.723  0.00  0.00    +0.048 C 
ATOM      8  O   UNL     1      31.500  21.552  15.140  0.00  0.00    -0.485 OA
ATOM      9  C   UNL     1      32.534  22.449  15.185  0.00  0.00    +0.126 A 
ATOM     10  C   UNL     1      33.549  22.210  16.110  0.00  0.00    +0.046 A 
ATOM     11  C   UNL     1      34.610  23.110  16.232  0.00  0.00    +0.004 A 
ATOM     12  C   UNL     1      34.665  24.235  15.412  0.00  0.00    +0.001 A 
ATOM     13  C   UNL     1      33.663  24.453  14.465  0.00  0.00    +0.009 A 
ATOM     14  C   UNL     1      32.587  23.559  14.345  0.00  0.00    +0.015 A 
ENDROOT
BRANCH   1  21
ATOM     15  N   UNL     1      34.653  23.782   7.814  0.00  0.00    -0.299 N 
ATOM     16  C   UNL     1      34.052  25.057   8.205  0.00  0.00    +0.127 C 
ATOM     17  C   UNL     1      32.603  24.884   8.646  0.00  0.00    +0.129 C 
ATOM     18  N   UNL     1      32.563  23.952   9.764  0.00  0.00    -0.275 N 
ATOM     19  C   UNL     1      32.071  24.386  10.975  0.00  0.00    +0.303 C 
ATOM     20  O   UNL     1      31.667  25.534  11.150  0.00  0.00    -0.253 OA
ATOM     21  N   UNL     1      32.086  23.473  11.987  0.00  0.00    -0.292 N 
ATOM     22  C   UNL     1      33.143  22.637   9.475  0.00  0.00    +0.205 C 
ATOM     23  C   UNL     1      34.303  22.596   8.457  0.00  0.00    +0.233 C 
ATOM     24  O   UNL     1      34.864  21.526   8.210  0.00  0.00    -0.274 OA
ATOM     25  H   UNL     1      32.075  22.495  11.745  0.00  0.00    +0.151 HD
BRANCH  15  27
ATOM     26  C   UNL     1      35.560  23.795   5.507  0.00  0.00    +0.024 C 
ATOM     27  C   UNL     1      35.862  23.813   6.999  0.00  0.00    +0.104 C 
ENDBRANCH  15  27
ENDBRANCH   1  21
TORSDOF 2
ENDMDL
MODEL 2
REMARK VINA RESULT:      -6.8      5.764      8.877
REMARK  Name = ZINC000329563636
REMARK  3 active torsions:
REMARK  status: ('A' for Active; 'I' for Inactive)
REMARK    1  A    between atoms: C_1  and  C_2
REMARK    2  A    between atoms: C_2  and  N_3
REMARK    3  A    between atoms: N_9  and  C_10
REMARK                            x       y       z     vdW  Elec       q    Type
REMARK                         _______ _______ _______ _____ _____    ______ ____
ROOT
ATOM      1  C   UNL     1      34.343  23.065  18.306  0.00  0.00    +0.112 C 
ATOM      2  C   UNL     1      34.911  24.326  18.968  0.00  0.00    +0.075 C 
ATOM      3  C   UNL     1      35.825  24.069  20.174  0.00  0.00    +0.113 C 
ATOM      4  C   UNL     1      37.303  23.763  19.816  0.00  0.00    +0.048 C 
ATOM      5  C   UNL     1      38.116  24.959  20.300  0.00  0.00    +0.004 C 
ATOM      6  C   UNL     1      37.335  25.473  21.493  0.00  0.00    +0.004 C 
ATOM      7  C   UNL     1      35.893  25.365  21.023  0.00  0.00    +0.048 C 
ATOM      8  O   UNL     1      35.306  23.032  21.030  0.00  0.00    -0.485 OA
ATOM      9  C   UNL     1      35.102  21.847  20.371  0.00  0.00    +0.126 A 
ATOM     10  C   UNL     1      35.345  20.671  21.078  0.00  0.00    +0.046 A 
ATOM     11  C   UNL     1      35.194  19.434  20.449  0.00  0.00    +0.004 A 
ATOM     12  C   UNL     1      34.778  19.375  19.121  0.00  0.00    +0.001 A 
ATOM     13  C   UNL     1      34.505  20.555  18.426  0.00  0.00    +0.009 A 
ATOM     14  C   UNL     1      34.666  21.803  19.049  0.00  0.00    +0.015 A 
ENDROOT
BRANCH   1  21
ATOM     15  N   UNL     1      28.217  22.273  16.983  0.00  0.00    -0.299 N 
ATOM     16  C   UNL     1      29.145  22.009  15.884  0.00  0.00    +0.127 C 
ATOM     17  C   UNL     1      30.168  23.129  15.730  0.00  0.00    +0.129 C 
ATOM     18  N   UNL     1      30.903  23.267  16.979  0.00  0.00    -0.275 N 
ATOM     19  C   UNL     1      32.265  23.068  16.975  0.00  0.00    +0.303 C 
ATOM     20  O   UNL     1      32.887  22.775  15.955  0.00  0.00    -0.253 OA
ATOM     21  N   UNL     1      32.890  23.185  18.182  0.00  0.00    -0.292 N 
ATOM     22  C   UNL     1      30.060  23.535  18.149  0.00  0.00    +0.205 C 
ATOM     23  C   UNL     1      28.637  22.938  18.133  0.00  0.00    +0.233 C 
ATOM     24  O   UNL     1      27.899  23.088  19.111  0.00  0.00    -0.274 OA
ATOM     25  H   UNL     1      32.451  23.752  18.890  0.00  0.00    +0.151 HD
BRANCH  15  27
ATOM     26  C   UNL     1      27.148  20.073  17.385  0.00  0.00    +0.024 C 
ATOM     27  C   UNL     1      26.959  21.537  17.012  0.00  0.00    +0.104 C 
ENDBRANCH  15  27
ENDBRANCH   1  21
TORSDOF 2
ENDMDL
MODEL 3
REMARK VINA RESULT:      -6.6      5.291      8.245
REMARK  Name = ZINC000329563636
REMARK  3 active torsions:
REMARK  status: ('A' for Active; 'I' for Inactive)
REMARK    1  A    between atoms: C_1  and  C_2
REMARK    2  A    between atoms: C_2  and  N_3
REMARK    3  A    between atoms: N_9  and  C_10
REMARK                            x       y       z     vdW  Elec       q    Type
REMARK                         _______ _______ _______ _____ _____    ______ ____
ROOT
ATOM      1  C   UNL     1      33.747  23.489  16.691  0.00  0.00    +0.112 C 
ATOM      2  C   UNL     1      34.062  24.974  16.482  0.00  0.00    +0.075 C 
ATOM      3  C   UNL     1      35.073  25.566  17.475  0.00  0.00    +0.113 C 
ATOM      4  C   UNL     1      36.562  25.343  17.098  0.00  0.00    +0.048 C 
ATOM      5  C   UNL     1      37.122  26.714  16.736  0.00  0.00    +0.004 C 
ATOM      6  C   UNL     1      36.312  27.675  17.584  0.00  0.00    +0.004 C 
ATOM      7  C   UNL     1      34.905  27.108  17.485  0.00  0.00    +0.048 C 
ATOM      8  O   UNL     1      34.837  25.108  18.820  0.00  0.00    -0.485 OA
ATOM      9  C   UNL     1      34.859  23.742  18.932  0.00  0.00    +0.126 A 
ATOM     10  C   UNL     1      35.387  23.204  20.104  0.00  0.00    +0.046 A 
ATOM     11  C   UNL     1      35.474  21.819  20.259  0.00  0.00    +0.004 A 
ATOM     12  C   UNL     1      35.010  20.976  19.252  0.00  0.00    +0.001 A 
ATOM     13  C   UNL     1      34.453  21.520  18.094  0.00  0.00    +0.009 A 
ATOM     14  C   UNL     1      34.374  22.911  17.925  0.00  0.00    +0.015 A 
ENDROOT
BRANCH   1  21
ATOM     15  N   UNL     1      27.854  21.212  16.654  0.00  0.00    -0.299 N 
ATOM     16  C   UNL     1      28.721  20.752  15.570  0.00  0.00    +0.127 C 
ATOM     17  C   UNL     1      29.456  21.912  14.908  0.00  0.00    +0.129 C 
ATOM     18  N   UNL     1      30.246  22.603  15.917  0.00  0.00    -0.275 N 
ATOM     19  C   UNL     1      31.613  22.661  15.767  0.00  0.00    +0.303 C 
ATOM     20  O   UNL     1      32.195  22.147  14.813  0.00  0.00    -0.253 OA
ATOM     21  N   UNL     1      32.297  23.297  16.761  0.00  0.00    -0.292 N 
ATOM     22  C   UNL     1      29.467  23.106  17.053  0.00  0.00    +0.205 C 
ATOM     23  C   UNL     1      28.213  22.298  17.450  0.00  0.00    +0.233 C 
ATOM     24  O   UNL     1      27.546  22.644  18.429  0.00  0.00    -0.274 OA
ATOM     25  H   UNL     1      31.806  23.988  17.307  0.00  0.00    +0.151 HD
BRANCH  15  27
ATOM     26  C   UNL     1      27.287  18.899  17.341  0.00  0.00    +0.024 C 
ATOM     27  C   UNL     1      26.795  20.321  17.113  0.00  0.00    +0.104 C 
ENDBRANCH  15  27
ENDBRANCH   1  21
TORSDOF 2
ENDMDL
MODEL 4
REMARK VINA RESULT:      -6.6      3.883      8.539
REMARK  Name = ZINC000329563636
REMARK  3 active torsions:
REMARK  status: ('A' for Active; 'I' for Inactive)
REMARK    1  A    between atoms: C_1  and  C_2
REMARK    2  A    between atoms: C_2  and  N_3
REMARK    3  A    between atoms: N_9  and  C_10
REMARK                            x       y       z     vdW  Elec       q    Type
REMARK                         _______ _______ _______ _____ _____    ______ ____
ROOT
ATOM      1  C   UNL     1      32.085  23.662  15.551  0.00  0.00    +0.112 C 
ATOM      2  C   UNL     1      32.952  23.878  14.306  0.00  0.00    +0.075 C 
ATOM      3  C   UNL     1      32.397  23.255  13.016  0.00  0.00    +0.113 C 
ATOM      4  C   UNL     1      31.355  24.127  12.269  0.00  0.00    +0.048 C 
ATOM      5  C   UNL     1      32.022  24.576  10.974  0.00  0.00    +0.004 C 
ATOM      6  C   UNL     1      32.982  23.448  10.647  0.00  0.00    +0.004 C 
ATOM      7  C   UNL     1      33.565  23.098  12.007  0.00  0.00    +0.048 C 
ATOM      8  O   UNL     1      31.858  21.938  13.245  0.00  0.00    -0.485 OA
ATOM      9  C   UNL     1      30.876  21.921  14.200  0.00  0.00    +0.126 A 
ATOM     10  C   UNL     1      29.819  21.031  14.016  0.00  0.00    +0.046 A 
ATOM     11  C   UNL     1      28.767  20.996  14.933  0.00  0.00    +0.004 A 
ATOM     12  C   UNL     1      28.787  21.834  16.046  0.00  0.00    +0.001 A 
ATOM     13  C   UNL     1      29.863  22.701  16.243  0.00  0.00    +0.009 A 
ATOM     14  C   UNL     1      30.918  22.750  15.318  0.00  0.00    +0.015 A 
ENDROOT
BRANCH   1  21
ATOM     15  N   UNL     1      34.777  22.248  21.088  0.00  0.00    -0.299 N 
ATOM     16  C   UNL     1      34.520  23.668  20.850  0.00  0.00    +0.127 C 
ATOM     17  C   UNL     1      35.003  24.103  19.471  0.00  0.00    +0.129 C 
ATOM     18  N   UNL     1      34.328  23.299  18.463  0.00  0.00    -0.275 N 
ATOM     19  C   UNL     1      33.532  23.929  17.533  0.00  0.00    +0.303 C 
ATOM     20  O   UNL     1      33.366  25.148  17.523  0.00  0.00    -0.253 OA
ATOM     21  N   UNL     1      32.906  23.117  16.634  0.00  0.00    -0.292 N 
ATOM     22  C   UNL     1      34.523  21.854  18.613  0.00  0.00    +0.205 C 
ATOM     23  C   UNL     1      34.711  21.321  20.050  0.00  0.00    +0.233 C 
ATOM     24  O   UNL     1      34.830  20.109  20.244  0.00  0.00    -0.274 OA
ATOM     25  H   UNL     1      33.319  22.219  16.439  0.00  0.00    +0.151 HD
BRANCH  15  27
ATOM     26  C   UNL     1      33.359  21.765  23.064  0.00  0.00    +0.024 C 
ATOM     27  C   UNL     1      34.759  21.768  22.466  0.00  0.00    +0.104 C 
ENDBRANCH  15  27
ENDBRANCH   1  21
TORSDOF 2
ENDMDL
MODEL 5
REMARK VINA RESULT:      -6.3      2.014      4.286
REMARK  Name = ZINC000329563636
REMARK  3 active torsions:
REMARK  status: ('A' for Active; 'I' for Inactive)
REMARK    1  A    between atoms: C_1  and  C_2
REMARK    2  A    between atoms: C_2  and  N_3
REMARK    3  A    between atoms: N_9  and  C_10
REMARK                            x       y       z     vdW  Elec       q    Type
REMARK                         _______ _______ _______ _____ _____    ______ ____
ROOT
ATOM      1  C   UNL     1      32.651  22.394  15.357  0.00  0.00    +0.112 C 
ATOM      2  C   UNL     1      33.553  23.115  16.364  0.00  0.00    +0.075 C 
ATOM      3  C   UNL     1      32.853  23.563  17.655  0.00  0.00    +0.113 C 
ATOM      4  C   UNL     1      32.747  22.469  18.750  0.00  0.00    +0.048 C 
ATOM      5  C   UNL     1      33.665  22.908  19.884  0.00  0.00    +0.004 C 
ATOM      6  C   UNL     1      33.643  24.422  19.806  0.00  0.00    +0.004 C 
ATOM      7  C   UNL     1      33.702  24.683  18.310  0.00  0.00    +0.048 C 
ATOM      8  O   UNL     1      31.550  24.120  17.394  0.00  0.00    -0.485 OA
ATOM      9  C   UNL     1      30.724  23.258  16.722  0.00  0.00    +0.126 A 
ATOM     10  C   UNL     1      29.369  23.287  17.044  0.00  0.00    +0.046 A 
ATOM     11  C   UNL     1      28.484  22.404  16.422  0.00  0.00    +0.004 A 
ATOM     12  C   UNL     1      28.953  21.510  15.463  0.00  0.00    +0.001 A 
ATOM     13  C   UNL     1      30.306  21.506  15.120  0.00  0.00    +0.009 A 
ATOM     14  C   UNL     1      31.204  22.382  15.750  0.00  0.00    +0.015 A 
ENDROOT
BRANCH   1  21
ATOM     15  N   UNL     1      33.084  23.653   9.181  0.00  0.00    -0.299 N 
ATOM     16  C   UNL     1      33.843  22.494   9.649  0.00  0.00    +0.127 C 
ATOM     17  C   UNL     1      34.654  22.822  10.898  0.00  0.00    +0.129 C 
ATOM     18  N   UNL     1      33.746  23.275  11.941  0.00  0.00    -0.275 N 
ATOM     19  C   UNL     1      33.671  22.560  13.116  0.00  0.00    +0.303 C 
ATOM     20  O   UNL     1      34.341  21.548  13.317  0.00  0.00    -0.253 OA
ATOM     21  N   UNL     1      32.781  23.021  14.040  0.00  0.00    -0.292 N 
ATOM     22  C   UNL     1      32.934  24.438  11.571  0.00  0.00    +0.205 C 
ATOM     23  C   UNL     1      32.555  24.577  10.081  0.00  0.00    +0.233 C 
ATOM     24  O   UNL     1      31.832  25.508   9.717  0.00  0.00    -0.274 OA
ATOM     25  H   UNL     1      32.529  23.996  14.011  0.00  0.00    +0.151 HD
BRANCH  15  27
ATOM     26  C   UNL     1      33.532  24.354   6.846  0.00  0.00    +0.024 C 
ATOM     27  C   UNL     1      32.591  23.644   7.808  0.00  0.00    +0.104 C 
ENDBRANCH  15  27
ENDBRANCH   1  21
TORSDOF 2
ENDMDL
MODEL 6
REMARK VINA RESULT:      -6.3      4.335      8.345
REMARK  Name = ZINC000329563636
REMARK  3 active torsions:
REMARK  status: ('A' for Active; 'I' for Inactive)
REMARK    1  A    between atoms: C_1  and  C_2
REMARK    2  A    between atoms: C_2  and  N_3
REMARK    3  A    between atoms: N_9  and  C_10
REMARK                            x       y       z     vdW  Elec       q    Type
REMARK                         _______ _______ _______ _____ _____    ______ ____
ROOT
ATOM      1  C   UNL     1      32.912  20.359  13.336  0.00  0.00    +0.112 C 
ATOM      2  C   UNL     1      34.159  20.031  12.507  0.00  0.00    +0.075 C 
ATOM      3  C   UNL     1      34.175  18.625  11.892  0.00  0.00    +0.113 C 
ATOM      4  C   UNL     1      33.418  18.497  10.543  0.00  0.00    +0.048 C 
ATOM      5  C   UNL     1      34.481  18.250   9.479  0.00  0.00    +0.004 C 
ATOM      6  C   UNL     1      35.580  17.516  10.222  0.00  0.00    +0.004 C 
ATOM      7  C   UNL     1      35.642  18.256  11.548  0.00  0.00    +0.048 C 
ATOM      8  O   UNL     1      33.696  17.628  12.816  0.00  0.00    -0.485 OA
ATOM      9  C   UNL     1      32.434  17.891  13.280  0.00  0.00    +0.126 A 
ATOM     10  C   UNL     1      31.596  16.802  13.509  0.00  0.00    +0.046 A 
ATOM     11  C   UNL     1      30.284  17.008  13.943  0.00  0.00    +0.004 A 
ATOM     12  C   UNL     1      29.823  18.303  14.169  0.00  0.00    +0.001 A 
ATOM     13  C   UNL     1      30.676  19.389  13.970  0.00  0.00    +0.009 A 
ATOM     14  C   UNL     1      31.991  19.190  13.521  0.00  0.00    +0.015 A 
ENDROOT
BRANCH   1  21
ATOM     15  N   UNL     1      33.157  22.908  19.111  0.00  0.00    -0.299 N 
ATOM     16  C   UNL     1      32.372  23.646  18.123  0.00  0.00    +0.127 C 
ATOM     17  C   UNL     1      33.134  23.815  16.813  0.00  0.00    +0.129 C 
ATOM     18  N   UNL     1      33.473  22.497  16.295  0.00  0.00    -0.275 N 
ATOM     19  C   UNL     1      32.981  22.118  15.066  0.00  0.00    +0.303 C 
ATOM     20  O   UNL     1      32.262  22.850  14.388  0.00  0.00    -0.253 OA
ATOM     21  N   UNL     1      33.312  20.862  14.652  0.00  0.00    -0.292 N 
ATOM     22  C   UNL     1      34.263  21.672  17.214  0.00  0.00    +0.205 C 
ATOM     23  C   UNL     1      34.026  21.889  18.724  0.00  0.00    +0.233 C 
ATOM     24  O   UNL     1      34.625  21.190  19.545  0.00  0.00    -0.274 OA
ATOM     25  H   UNL     1      34.150  20.445  15.025  0.00  0.00    +0.151 HD
BRANCH  15  27
ATOM     26  C   UNL     1      31.376  22.448  20.773  0.00  0.00    +0.024 C 
ATOM     27  C   UNL     1      32.767  23.008  20.513  0.00  0.00    +0.104 C 
ENDBRANCH  15  27
ENDBRANCH   1  21
TORSDOF 2
ENDMDL
MODEL 7
REMARK VINA RESULT:      -6.3      5.408      7.531
REMARK  Name = ZINC000329563636
REMARK  3 active torsions:
REMARK  status: ('A' for Active; 'I' for Inactive)
REMARK    1  A    between atoms: C_1  and  C_2
REMARK    2  A    between atoms: C_2  and  N_3
REMARK    3  A    between atoms: N_9  and  C_10
REMARK                            x       y       z     vdW  Elec       q    Type
REMARK                         _______ _______ _______ _____ _____    ______ ____
ROOT
ATOM      1  C   UNL     1      34.700  22.483  17.172  0.00  0.00    +0.112 C 
ATOM      2  C   UNL     1      34.811  23.943  16.716  0.00  0.00    +0.075 C 
ATOM      3  C   UNL     1      34.603  24.984  17.825  0.00  0.00    +0.113 C 
ATOM      4  C   UNL     1      35.867  25.299  18.667  0.00  0.00    +0.048 C 
ATOM      5  C   UNL     1      36.267  26.728  18.319  0.00  0.00    +0.004 C 
ATOM      6  C   UNL     1      34.953  27.402  17.974  0.00  0.00    +0.004 C 
ATOM      7  C   UNL     1      34.232  26.337  17.164  0.00  0.00    +0.048 C 
ATOM      8  O   UNL     1      33.512  24.629  18.698  0.00  0.00    -0.485 OA
ATOM      9  C   UNL     1      33.669  23.396  19.275  0.00  0.00    +0.126 A 
ATOM     10  C   UNL     1      33.206  23.237  20.580  0.00  0.00    +0.046 A 
ATOM     11  C   UNL     1      33.375  22.016  21.237  0.00  0.00    +0.004 A 
ATOM     12  C   UNL     1      33.983  20.950  20.577  0.00  0.00    +0.001 A 
ATOM     13  C   UNL     1      34.415  21.104  19.259  0.00  0.00    +0.009 A 
ATOM     14  C   UNL     1      34.261  22.333  18.597  0.00  0.00    +0.015 A 
ENDROOT
BRANCH   1  21
ATOM     15  N   UNL     1      30.968  18.221  14.378  0.00  0.00    -0.299 N 
ATOM     16  C   UNL     1      32.294  17.745  14.771  0.00  0.00    +0.127 C 
ATOM     17  C   UNL     1      33.390  18.707  14.326  0.00  0.00    +0.129 C 
ATOM     18  N   UNL     1      33.135  20.013  14.916  0.00  0.00    -0.275 N 
ATOM     19  C   UNL     1      34.073  20.554  15.766  0.00  0.00    +0.303 C 
ATOM     20  O   UNL     1      35.120  19.974  16.049  0.00  0.00    -0.253 OA
ATOM     21  N   UNL     1      33.762  21.767  16.306  0.00  0.00    -0.292 N 
ATOM     22  C   UNL     1      31.826  20.581  14.582  0.00  0.00    +0.205 C 
ATOM     23  C   UNL     1      30.671  19.582  14.350  0.00  0.00    +0.233 C 
ATOM     24  O   UNL     1      29.536  20.002  14.114  0.00  0.00    -0.274 OA
ATOM     25  H   UNL     1      33.114  22.356  15.807  0.00  0.00    +0.151 HD
BRANCH  15  27
ATOM     26  C   UNL     1      29.298  16.995  15.740  0.00  0.00    +0.024 C 
ATOM     27  C   UNL     1      29.871  17.259  14.355  0.00  0.00    +0.104 C 
ENDBRANCH  15  27
ENDBRANCH   1  21
TORSDOF 2
ENDMDL
MODEL 8
REMARK VINA RESULT:      -6.2      2.849      7.668
REMARK  Name = ZINC000329563636
REMARK  3 active torsions:
REMARK  status: ('A' for Active; 'I' for Inactive)
REMARK    1  A    between atoms: C_1  and  C_2
REMARK    2  A    between atoms: C_2  and  N_3
REMARK    3  A    between atoms: N_9  and  C_10
REMARK                            x       y       z     vdW  Elec       q    Type
REMARK                         _______ _______ _______ _____ _____    ______ ____
ROOT
ATOM      1  C   UNL     1      33.119  23.891  10.963  0.00  0.00    +0.112 C 
ATOM      2  C   UNL     1      34.127  24.825  11.642  0.00  0.00    +0.075 C 
ATOM      3  C   UNL     1      35.277  25.299  10.742  0.00  0.00    +0.113 C 
ATOM      4  C   UNL     1      34.947  26.530   9.858  0.00  0.00    +0.048 C 
ATOM      5  C   UNL     1      35.783  27.684  10.402  0.00  0.00    +0.004 C 
ATOM      6  C   UNL     1      37.017  27.007  10.965  0.00  0.00    +0.004 C 
ATOM      7  C   UNL     1      36.444  25.776  11.647  0.00  0.00    +0.048 C 
ATOM      8  O   UNL     1      35.791  24.233   9.920  0.00  0.00    -0.485 OA
ATOM      9  C   UNL     1      34.830  23.651   9.136  0.00  0.00    +0.126 A 
ATOM     10  C   UNL     1      35.212  23.220   7.867  0.00  0.00    +0.046 A 
ATOM     11  C   UNL     1      34.268  22.658   7.006  0.00  0.00    +0.004 A 
ATOM     12  C   UNL     1      32.948  22.505   7.426  0.00  0.00    +0.001 A 
ATOM     13  C   UNL     1      32.577  22.908   8.709  0.00  0.00    +0.009 A 
ATOM     14  C   UNL     1      33.518  23.487   9.575  0.00  0.00    +0.015 A 
ENDROOT
BRANCH   1  21
ATOM     15  N   UNL     1      30.878  18.836  14.017  0.00  0.00    -0.299 N 
ATOM     16  C   UNL     1      30.050  20.039  14.085  0.00  0.00    +0.127 C 
ATOM     17  C   UNL     1      30.874  21.268  14.450  0.00  0.00    +0.129 C 
ATOM     18  N   UNL     1      31.922  21.442  13.455  0.00  0.00    -0.275 N 
ATOM     19  C   UNL     1      31.948  22.599  12.709  0.00  0.00    +0.303 C 
ATOM     20  O   UNL     1      31.114  23.493  12.849  0.00  0.00    -0.253 OA
ATOM     21  N   UNL     1      32.938  22.687  11.776  0.00  0.00    -0.292 N 
ATOM     22  C   UNL     1      32.813  20.286  13.308  0.00  0.00    +0.205 C 
ATOM     23  C   UNL     1      32.197  18.895  13.570  0.00  0.00    +0.233 C 
ATOM     24  O   UNL     1      32.884  17.882  13.414  0.00  0.00    -0.274 OA
ATOM     25  H   UNL     1      33.776  22.146  11.921  0.00  0.00    +0.151 HD
BRANCH  15  27
ATOM     26  C   UNL     1      29.553  17.292  15.434  0.00  0.00    +0.024 C 
ATOM     27  C   UNL     1      30.214  17.539  14.085  0.00  0.00    +0.104 C 
ENDBRANCH  15  27
ENDBRANCH   1  21
TORSDOF 2
ENDMDL
MODEL 9
REMARK VINA RESULT:      -6.1      3.843      8.463
REMARK  Name = ZINC000329563636
REMARK  3 active torsions:
REMARK  status: ('A' for Active; 'I' for Inactive)
REMARK    1  A    between atoms: C_1  and  C_2
REMARK    2  A    between atoms: C_2  and  N_3
REMARK    3  A    between atoms: N_9  and  C_10
REMARK                            x       y       z     vdW  Elec       q    Type
REMARK                         _______ _______ _______ _____ _____    ______ ____
ROOT
ATOM      1  C   UNL     1      31.841  23.311  14.686  0.00  0.00    +0.112 C 
ATOM      2  C   UNL     1      32.611  24.245  13.746  0.00  0.00    +0.075 C 
ATOM      3  C   UNL     1      32.929  23.654  12.365  0.00  0.00    +0.113 C 
ATOM      4  C   UNL     1      31.786  23.782  11.324  0.00  0.00    +0.048 C 
ATOM      5  C   UNL     1      32.272  24.774  10.274  0.00  0.00    +0.004 C 
ATOM      6  C   UNL     1      33.778  24.593  10.269  0.00  0.00    +0.004 C 
ATOM      7  C   UNL     1      34.105  24.456  11.747  0.00  0.00    +0.048 C 
ATOM      8  O   UNL     1      33.358  22.281  12.453  0.00  0.00    -0.485 OA
ATOM      9  C   UNL     1      32.442  21.475  13.077  0.00  0.00    +0.126 A 
ATOM     10  C   UNL     1      32.316  20.168  12.609  0.00  0.00    +0.046 A 
ATOM     11  C   UNL     1      31.371  19.310  13.176  0.00  0.00    +0.004 A 
ATOM     12  C   UNL     1      30.572  19.755  14.227  0.00  0.00    +0.001 A 
ATOM     13  C   UNL     1      30.724  21.054  14.714  0.00  0.00    +0.009 A 
ATOM     14  C   UNL     1      31.663  21.926  14.139  0.00  0.00    +0.015 A 
ENDROOT
BRANCH   1  21
ATOM     15  N   UNL     1      33.619  22.081  20.622  0.00  0.00    -0.299 N 
ATOM     16  C   UNL     1      32.206  22.406  20.435  0.00  0.00    +0.127 C 
ATOM     17  C   UNL     1      32.025  23.653  19.577  0.00  0.00    +0.129 C 
ATOM     18  N   UNL     1      32.658  23.429  18.286  0.00  0.00    -0.275 N 
ATOM     19  C   UNL     1      31.884  23.473  17.148  0.00  0.00    +0.303 C 
ATOM     20  O   UNL     1      30.674  23.692  17.181  0.00  0.00    -0.253 OA
ATOM     21  N   UNL     1      32.532  23.228  15.974  0.00  0.00    -0.292 N 
ATOM     22  C   UNL     1      34.083  23.095  18.362  0.00  0.00    +0.205 C 
ATOM     23  C   UNL     1      34.551  22.323  19.614  0.00  0.00    +0.233 C 
ATOM     24  O   UNL     1      35.730  21.970  19.712  0.00  0.00    -0.274 OA
ATOM     25  H   UNL     1      33.523  23.407  15.933  0.00  0.00    +0.151 HD
BRANCH  15  27
ATOM     26  C   UNL     1      33.564  21.740  23.077  0.00  0.00    +0.024 C 
ATOM     27  C   UNL     1      33.981  21.192  21.720  0.00  0.00    +0.104 C 
ENDBRANCH  15  27
ENDBRANCH   1  21
TORSDOF 2
ENDMDL
