MODEL 1
REMARK VINA RESULT:      -6.4      0.000      0.000
REMARK  Name = ZINC000329563636
REMARK  3 active torsions:
REMARK  status: ('A' for Active; 'I' for Inactive)
REMARK    1  A    between atoms: C_1  and  C_2
REMARK    2  A    between atoms: C_2  and  N_3
REMARK    3  A    between atoms: N_9  and  C_10
REMARK                            x       y       z     vdW  Elec       q    Type
REMARK                         _______ _______ _______ _____ _____    ______ ____
ROOT
ATOM      1  C   UNL     1      34.745  22.391  12.203  0.00  0.00    +0.112 C 
ATOM      2  C   UNL     1      35.053  21.505  13.414  0.00  0.00    +0.075 C 
ATOM      3  C   UNL     1      33.902  21.362  14.422  0.00  0.00    +0.113 C 
ATOM      4  C   UNL     1      32.863  20.266  14.073  0.00  0.00    +0.048 C 
ATOM      5  C   UNL     1      33.024  19.173  15.123  0.00  0.00    +0.004 C 
ATOM      6  C   UNL     1      33.511  19.912  16.353  0.00  0.00    +0.004 C 
ATOM      7  C   UNL     1      34.499  20.912  15.780  0.00  0.00    +0.048 C 
ATOM      8  O   UNL     1      33.231  22.616  14.648  0.00  0.00    -0.485 OA
ATOM      9  C   UNL     1      32.739  23.177  13.499  0.00  0.00    +0.126 A 
ATOM     10  C   UNL     1      31.531  23.866  13.584  0.00  0.00    +0.046 A 
ATOM     11  C   UNL     1      30.963  24.423  12.438  0.00  0.00    +0.004 A 
ATOM     12  C   UNL     1      31.612  24.307  11.211  0.00  0.00    +0.001 A 
ATOM     13  C   UNL     1      32.837  23.644  11.136  0.00  0.00    +0.009 A 
ATOM     14  C   UNL     1      33.410  23.072  12.284  0.00  0.00    +0.015 A 
ENDROOT
BRANCH   1  21
ATOM     15  N   UNL     1      38.356  27.202  10.356  0.00  0.00    -0.299 N 
ATOM     16  C   UNL     1      37.937  26.308   9.277  0.00  0.00    +0.127 C 
ATOM     17  C   UNL     1      38.139  24.839   9.634  0.00  0.00    +0.129 C 
ATOM     18  N   UNL     1      37.430  24.551  10.872  0.00  0.00    -0.275 N 
ATOM     19  C   UNL     1      36.438  23.596  10.870  0.00  0.00    +0.303 C 
ATOM     20  O   UNL     1      36.128  22.967   9.860  0.00  0.00    -0.253 OA
ATOM     21  N   UNL     1      35.787  23.407  12.055  0.00  0.00    -0.292 N 
ATOM     22  C   UNL     1      37.836  25.381  12.009  0.00  0.00    +0.205 C 
ATOM     23  C   UNL     1      38.369  26.792  11.684  0.00  0.00    +0.233 C 
ATOM     24  O   UNL     1      38.775  27.521  12.592  0.00  0.00    -0.274 OA
ATOM     25  H   UNL     1      36.271  23.645  12.904  0.00  0.00    +0.151 HD
BRANCH  15  27
ATOM     26  C   UNL     1      37.445  29.306   9.438  0.00  0.00    +0.024 C 
ATOM     27  C   UNL     1      38.650  28.592  10.025  0.00  0.00    +0.104 C 
ENDBRANCH  15  27
ENDBRANCH   1  21
TORSDOF 2
ENDMDL
MODEL 2
REMARK VINA RESULT:      -6.3      6.056      9.415
REMARK  Name = ZINC000329563636
REMARK  3 active torsions:
REMARK  status: ('A' for Active; 'I' for Inactive)
REMARK    1  A    between atoms: C_1  and  C_2
REMARK    2  A    between atoms: C_2  and  N_3
REMARK    3  A    between atoms: N_9  and  C_10
REMARK                            x       y       z     vdW  Elec       q    Type
REMARK                         _______ _______ _______ _____ _____    ______ ____
ROOT
ATOM      1  C   UNL     1      34.578  19.117  14.326  0.00  0.00    +0.112 C 
ATOM      2  C   UNL     1      33.406  20.096  14.214  0.00  0.00    +0.075 C 
ATOM      3  C   UNL     1      32.956  20.723  15.542  0.00  0.00    +0.113 C 
ATOM      4  C   UNL     1      33.764  21.973  15.978  0.00  0.00    +0.048 C 
ATOM      5  C   UNL     1      32.811  23.158  15.870  0.00  0.00    +0.004 C 
ATOM      6  C   UNL     1      31.444  22.556  16.125  0.00  0.00    +0.004 C 
ATOM      7  C   UNL     1      31.505  21.240  15.370  0.00  0.00    +0.048 C 
ATOM      8  O   UNL     1      32.938  19.758  16.611  0.00  0.00    -0.485 OA
ATOM      9  C   UNL     1      34.150  19.147  16.803  0.00  0.00    +0.126 A 
ATOM     10  C   UNL     1      34.512  18.833  18.111  0.00  0.00    +0.046 A 
ATOM     11  C   UNL     1      35.752  18.246  18.370  0.00  0.00    +0.004 A 
ATOM     12  C   UNL     1      36.619  17.955  17.319  0.00  0.00    +0.001 A 
ATOM     13  C   UNL     1      36.238  18.243  16.008  0.00  0.00    +0.009 A 
ATOM     14  C   UNL     1      34.997  18.843  15.741  0.00  0.00    +0.015 A 
ENDROOT
BRANCH   1  21
ATOM     15  N   UNL     1      34.555  13.318  11.879  0.00  0.00    -0.299 N 
ATOM     16  C   UNL     1      35.699  14.140  11.485  0.00  0.00    +0.127 C 
ATOM     17  C   UNL     1      35.279  15.537  11.038  0.00  0.00    +0.129 C 
ATOM     18  N   UNL     1      34.514  16.165  12.106  0.00  0.00    -0.275 N 
ATOM     19  C   UNL     1      34.973  17.339  12.658  0.00  0.00    +0.303 C 
ATOM     20  O   UNL     1      36.007  17.887  12.280  0.00  0.00    -0.253 OA
ATOM     21  N   UNL     1      34.229  17.850  13.682  0.00  0.00    -0.292 N 
ATOM     22  C   UNL     1      33.324  15.415  12.519  0.00  0.00    +0.205 C 
ATOM     23  C   UNL     1      33.372  13.883  12.342  0.00  0.00    +0.233 C 
ATOM     24  O   UNL     1      32.384  13.201  12.622  0.00  0.00    -0.274 OA
ATOM     25  H   UNL     1      33.253  17.608  13.725  0.00  0.00    +0.151 HD
BRANCH  15  27
ATOM     26  C   UNL     1      34.849  11.294  10.496  0.00  0.00    +0.024 C 
ATOM     27  C   UNL     1      34.719  11.869  11.896  0.00  0.00    +0.104 C 
ENDBRANCH  15  27
ENDBRANCH   1  21
TORSDOF 2
ENDMDL
MODEL 3
REMARK VINA RESULT:      -6.2      3.519      5.238
REMARK  Name = ZINC000329563636
REMARK  3 active torsions:
REMARK  status: ('A' for Active; 'I' for Inactive)
REMARK    1  A    between atoms: C_1  and  C_2
REMARK    2  A    between atoms: C_2  and  N_3
REMARK    3  A    between atoms: N_9  and  C_10
REMARK                            x       y       z     vdW  Elec       q    Type
REMARK                         _______ _______ _______ _____ _____    ______ ____
ROOT
ATOM      1  C   UNL     1      33.462  22.805  12.277  0.00  0.00    +0.112 C 
ATOM      2  C   UNL     1      32.304  22.047  12.932  0.00  0.00    +0.075 C 
ATOM      3  C   UNL     1      32.529  21.663  14.403  0.00  0.00    +0.113 C 
ATOM      4  C   UNL     1      32.182  22.775  15.426  0.00  0.00    +0.048 C 
ATOM      5  C   UNL     1      30.954  22.290  16.187  0.00  0.00    +0.004 C 
ATOM      6  C   UNL     1      31.080  20.780  16.166  0.00  0.00    +0.004 C 
ATOM      7  C   UNL     1      31.568  20.499  14.755  0.00  0.00    +0.048 C 
ATOM      8  O   UNL     1      33.870  21.191  14.633  0.00  0.00    -0.485 OA
ATOM      9  C   UNL     1      34.829  22.097  14.265  0.00  0.00    +0.126 A 
ATOM     10  C   UNL     1      35.984  22.165  15.042  0.00  0.00    +0.046 A 
ATOM     11  C   UNL     1      36.976  23.097  14.737  0.00  0.00    +0.004 A 
ATOM     12  C   UNL     1      36.823  23.947  13.644  0.00  0.00    +0.001 A 
ATOM     13  C   UNL     1      35.681  23.854  12.850  0.00  0.00    +0.009 A 
ATOM     14  C   UNL     1      34.672  22.925  13.157  0.00  0.00    +0.015 A 
ENDROOT
BRANCH   1  21
ATOM     15  N   UNL     1      36.039  21.195   6.766  0.00  0.00    -0.299 N 
ATOM     16  C   UNL     1      35.575  22.580   6.839  0.00  0.00    +0.127 C 
ATOM     17  C   UNL     1      34.169  22.688   7.419  0.00  0.00    +0.129 C 
ATOM     18  N   UNL     1      34.147  22.049   8.727  0.00  0.00    -0.275 N 
ATOM     19  C   UNL     1      33.806  22.795   9.832  0.00  0.00    +0.303 C 
ATOM     20  O   UNL     1      33.511  23.987   9.760  0.00  0.00    -0.253 OA
ATOM     21  N   UNL     1      33.845  22.143  11.031  0.00  0.00    -0.292 N 
ATOM     22  C   UNL     1      34.556  20.642   8.719  0.00  0.00    +0.205 C 
ATOM     23  C   UNL     1      35.548  20.212   7.619  0.00  0.00    +0.233 C 
ATOM     24  O   UNL     1      35.892  19.032   7.527  0.00  0.00    -0.274 OA
ATOM     25  H   UNL     1      33.732  21.143  11.029  0.00  0.00    +0.151 HD
BRANCH  15  27
ATOM     26  C   UNL     1      36.784  21.213   4.412  0.00  0.00    +0.024 C 
ATOM     27  C   UNL     1      37.131  20.880   5.852  0.00  0.00    +0.104 C 
ENDBRANCH  15  27
ENDBRANCH   1  21
TORSDOF 2
ENDMDL
MODEL 4
REMARK VINA RESULT:      -6.1      1.904      2.256
REMARK  Name = ZINC000329563636
REMARK  3 active torsions:
REMARK  status: ('A' for Active; 'I' for Inactive)
REMARK    1  A    between atoms: C_1  and  C_2
REMARK    2  A    between atoms: C_2  and  N_3
REMARK    3  A    between atoms: N_9  and  C_10
REMARK                            x       y       z     vdW  Elec       q    Type
REMARK                         _______ _______ _______ _____ _____    ______ ____
ROOT
ATOM      1  C   UNL     1      34.747  22.497  13.281  0.00  0.00    +0.112 C 
ATOM      2  C   UNL     1      34.065  22.186  14.617  0.00  0.00    +0.075 C 
ATOM      3  C   UNL     1      32.534  22.322  14.611  0.00  0.00    +0.113 C 
ATOM      4  C   UNL     1      31.772  21.072  14.101  0.00  0.00    +0.048 C 
ATOM      5  C   UNL     1      31.043  20.492  15.308  0.00  0.00    +0.004 C 
ATOM      6  C   UNL     1      30.771  21.696  16.187  0.00  0.00    +0.004 C 
ATOM      7  C   UNL     1      32.056  22.498  16.075  0.00  0.00    +0.048 C 
ATOM      8  O   UNL     1      32.104  23.487  13.882  0.00  0.00    -0.485 OA
ATOM      9  C   UNL     1      32.550  23.505  12.586  0.00  0.00    +0.126 A 
ATOM     10  C   UNL     1      31.701  24.041  11.620  0.00  0.00    +0.046 A 
ATOM     11  C   UNL     1      32.088  24.048  10.279  0.00  0.00    +0.004 A 
ATOM     12  C   UNL     1      33.330  23.538   9.908  0.00  0.00    +0.001 A 
ATOM     13  C   UNL     1      34.189  23.031  10.883  0.00  0.00    +0.009 A 
ATOM     14  C   UNL     1      33.803  23.011  12.233  0.00  0.00    +0.015 A 
ENDROOT
BRANCH   1  21
ATOM     15  N   UNL     1      39.476  26.596  12.620  0.00  0.00    -0.299 N 
ATOM     16  C   UNL     1      39.673  25.325  11.925  0.00  0.00    +0.127 C 
ATOM     17  C   UNL     1      39.355  24.126  12.814  0.00  0.00    +0.129 C 
ATOM     18  N   UNL     1      37.995  24.256  13.316  0.00  0.00    -0.275 N 
ATOM     19  C   UNL     1      37.075  23.276  13.019  0.00  0.00    +0.303 C 
ATOM     20  O   UNL     1      37.358  22.285  12.348  0.00  0.00    -0.253 OA
ATOM     21  N   UNL     1      35.809  23.482  13.486  0.00  0.00    -0.292 N 
ATOM     22  C   UNL     1      37.742  25.490  14.065  0.00  0.00    +0.205 C 
ATOM     23  C   UNL     1      38.592  26.721  13.685  0.00  0.00    +0.233 C 
ATOM     24  O   UNL     1      38.463  27.774  14.312  0.00  0.00    -0.274 OA
ATOM     25  H   UNL     1      35.692  24.070  14.294  0.00  0.00    +0.151 HD
BRANCH  15  27
ATOM     26  C   UNL     1      39.526  28.247  10.784  0.00  0.00    +0.024 C 
ATOM     27  C   UNL     1      40.143  27.782  12.092  0.00  0.00    +0.104 C 
ENDBRANCH  15  27
ENDBRANCH   1  21
TORSDOF 2
ENDMDL
MODEL 5
REMARK VINA RESULT:      -6.0     13.729     15.450
REMARK  Name = ZINC000329563636
REMARK  3 active torsions:
REMARK  status: ('A' for Active; 'I' for Inactive)
REMARK    1  A    between atoms: C_1  and  C_2
REMARK    2  A    between atoms: C_2  and  N_3
REMARK    3  A    between atoms: N_9  and  C_10
REMARK                            x       y       z     vdW  Elec       q    Type
REMARK                         _______ _______ _______ _____ _____    ______ ____
ROOT
ATOM      1  C   UNL     1      24.588  34.634  16.097  0.00  0.00    +0.112 C 
ATOM      2  C   UNL     1      23.766  33.618  15.297  0.00  0.00    +0.075 C 
ATOM      3  C   UNL     1      24.062  32.145  15.621  0.00  0.00    +0.113 C 
ATOM      4  C   UNL     1      23.294  31.581  16.844  0.00  0.00    +0.048 C 
ATOM      5  C   UNL     1      22.303  30.561  16.293  0.00  0.00    +0.004 C 
ATOM      6  C   UNL     1      22.975  30.031  15.043  0.00  0.00    +0.004 C 
ATOM      7  C   UNL     1      23.583  31.279  14.428  0.00  0.00    +0.048 C 
ATOM      8  O   UNL     1      25.473  31.906  15.779  0.00  0.00    -0.485 OA
ATOM      9  C   UNL     1      26.046  32.691  16.746  0.00  0.00    +0.126 A 
ATOM     10  C   UNL     1      27.066  32.129  17.512  0.00  0.00    +0.046 A 
ATOM     11  C   UNL     1      27.657  32.868  18.537  0.00  0.00    +0.004 A 
ATOM     12  C   UNL     1      27.243  34.176  18.782  0.00  0.00    +0.001 A 
ATOM     13  C   UNL     1      26.244  34.745  17.992  0.00  0.00    +0.009 A 
ATOM     14  C   UNL     1      25.636  34.003  16.966  0.00  0.00    +0.015 A 
ENDROOT
BRANCH   1  21
ATOM     15  N   UNL     1      27.903  39.305  13.491  0.00  0.00    -0.299 N 
ATOM     16  C   UNL     1      27.056  39.713  14.611  0.00  0.00    +0.127 C 
ATOM     17  C   UNL     1      25.640  39.155  14.497  0.00  0.00    +0.129 C 
ATOM     18  N   UNL     1      25.711  37.706  14.380  0.00  0.00    -0.275 N 
ATOM     19  C   UNL     1      25.092  36.926  15.331  0.00  0.00    +0.303 C 
ATOM     20  O   UNL     1      24.472  37.407  16.278  0.00  0.00    -0.253 OA
ATOM     21  N   UNL     1      25.233  35.577  15.183  0.00  0.00    -0.292 N 
ATOM     22  C   UNL     1      26.508  37.228  13.247  0.00  0.00    +0.205 C 
ATOM     23  C   UNL     1      27.657  38.141  12.771  0.00  0.00    +0.233 C 
ATOM     24  O   UNL     1      28.332  37.820  11.791  0.00  0.00    -0.274 OA
ATOM     25  H   UNL     1      25.413  35.218  14.261  0.00  0.00    +0.151 HD
BRANCH  15  27
ATOM     26  C   UNL     1      30.296  39.609  14.018  0.00  0.00    +0.024 C 
ATOM     27  C   UNL     1      29.102  40.088  13.211  0.00  0.00    +0.104 C 
ENDBRANCH  15  27
ENDBRANCH   1  21
TORSDOF 2
ENDMDL
MODEL 6
REMARK VINA RESULT:      -6.0      5.324      8.206
REMARK  Name = ZINC000329563636
REMARK  3 active torsions:
REMARK  status: ('A' for Active; 'I' for Inactive)
REMARK    1  A    between atoms: C_1  and  C_2
REMARK    2  A    between atoms: C_2  and  N_3
REMARK    3  A    between atoms: N_9  and  C_10
REMARK                            x       y       z     vdW  Elec       q    Type
REMARK                         _______ _______ _______ _____ _____    ______ ____
ROOT
ATOM      1  C   UNL     1      34.672  16.189  12.749  0.00  0.00    +0.112 C 
ATOM      2  C   UNL     1      33.785  14.946  12.869  0.00  0.00    +0.075 C 
ATOM      3  C   UNL     1      33.748  14.053  11.619  0.00  0.00    +0.113 C 
ATOM      4  C   UNL     1      34.910  13.031  11.515  0.00  0.00    +0.048 C 
ATOM      5  C   UNL     1      34.286  11.652  11.696  0.00  0.00    +0.004 C 
ATOM      6  C   UNL     1      32.876  11.813  11.162  0.00  0.00    +0.004 C 
ATOM      7  C   UNL     1      32.469  13.180  11.683  0.00  0.00    +0.048 C 
ATOM      8  O   UNL     1      33.673  14.829  10.409  0.00  0.00    -0.485 OA
ATOM      9  C   UNL     1      34.704  15.723  10.279  0.00  0.00    +0.126 A 
ATOM     10  C   UNL     1      35.198  15.954   8.996  0.00  0.00    +0.046 A 
ATOM     11  C   UNL     1      36.273  16.823   8.809  0.00  0.00    +0.004 A 
ATOM     12  C   UNL     1      36.841  17.476   9.901  0.00  0.00    +0.001 A 
ATOM     13  C   UNL     1      36.323  17.265  11.179  0.00  0.00    +0.009 A 
ATOM     14  C   UNL     1      35.247  16.383  11.377  0.00  0.00    +0.015 A 
ENDROOT
BRANCH   1  21
ATOM     15  N   UNL     1      32.688  22.046  13.919  0.00  0.00    -0.299 N 
ATOM     16  C   UNL     1      34.006  21.730  14.468  0.00  0.00    +0.127 C 
ATOM     17  C   UNL     1      34.020  20.393  15.202  0.00  0.00    +0.129 C 
ATOM     18  N   UNL     1      33.554  19.352  14.297  0.00  0.00    -0.275 N 
ATOM     19  C   UNL     1      34.390  18.299  14.001  0.00  0.00    +0.303 C 
ATOM     20  O   UNL     1      35.519  18.197  14.478  0.00  0.00    -0.253 OA
ATOM     21  N   UNL     1      33.906  17.381  13.115  0.00  0.00    -0.292 N 
ATOM     22  C   UNL     1      32.216  19.583  13.746  0.00  0.00    +0.205 C 
ATOM     23  C   UNL     1      31.771  21.052  13.595  0.00  0.00    +0.233 C 
ATOM     24  O   UNL     1      30.637  21.312  13.186  0.00  0.00    -0.274 OA
ATOM     25  H   UNL     1      32.907  17.286  13.030  0.00  0.00    +0.151 HD
BRANCH  15  27
ATOM     26  C   UNL     1      32.660  23.754  12.135  0.00  0.00    +0.024 C 
ATOM     27  C   UNL     1      32.390  23.437  13.596  0.00  0.00    +0.104 C 
ENDBRANCH  15  27
ENDBRANCH   1  21
TORSDOF 2
ENDMDL
MODEL 7
REMARK VINA RESULT:      -6.0      3.617      5.456
REMARK  Name = ZINC000329563636
REMARK  3 active torsions:
REMARK  status: ('A' for Active; 'I' for Inactive)
REMARK    1  A    between atoms: C_1  and  C_2
REMARK    2  A    between atoms: C_2  and  N_3
REMARK    3  A    between atoms: N_9  and  C_10
REMARK                            x       y       z     vdW  Elec       q    Type
REMARK                         _______ _______ _______ _____ _____    ______ ____
ROOT
ATOM      1  C   UNL     1      34.493  20.838  12.341  0.00  0.00    +0.112 C 
ATOM      2  C   UNL     1      33.270  21.535  12.946  0.00  0.00    +0.075 C 
ATOM      3  C   UNL     1      32.398  20.648  13.847  0.00  0.00    +0.113 C 
ATOM      4  C   UNL     1      32.878  20.542  15.317  0.00  0.00    +0.048 C 
ATOM      5  C   UNL     1      31.836  21.265  16.162  0.00  0.00    +0.004 C 
ATOM      6  C   UNL     1      30.547  21.094  15.383  0.00  0.00    +0.004 C 
ATOM      7  C   UNL     1      30.990  21.289  13.944  0.00  0.00    +0.048 C 
ATOM      8  O   UNL     1      32.226  19.329  13.294  0.00  0.00    -0.485 OA
ATOM      9  C   UNL     1      33.413  18.685  13.062  0.00  0.00    +0.126 A 
ATOM     10  C   UNL     1      33.450  17.308  13.270  0.00  0.00    +0.046 A 
ATOM     11  C   UNL     1      34.643  16.607  13.089  0.00  0.00    +0.004 A 
ATOM     12  C   UNL     1      35.792  17.279  12.680  0.00  0.00    +0.001 A 
ATOM     13  C   UNL     1      35.743  18.652  12.442  0.00  0.00    +0.009 A 
ATOM     14  C   UNL     1      34.548  19.367  12.633  0.00  0.00    +0.015 A 
ENDROOT
BRANCH   1  21
ATOM     15  N   UNL     1      35.964  22.276   6.393  0.00  0.00    -0.299 N 
ATOM     16  C   UNL     1      36.223  23.344   7.358  0.00  0.00    +0.127 C 
ATOM     17  C   UNL     1      35.042  23.571   8.298  0.00  0.00    +0.129 C 
ATOM     18  N   UNL     1      34.720  22.316   8.963  0.00  0.00    -0.275 N 
ATOM     19  C   UNL     1      34.782  22.251  10.336  0.00  0.00    +0.303 C 
ATOM     20  O   UNL     1      35.095  23.217  11.031  0.00  0.00    -0.253 OA
ATOM     21  N   UNL     1      34.508  21.035  10.891  0.00  0.00    -0.292 N 
ATOM     22  C   UNL     1      34.403  21.213   8.052  0.00  0.00    +0.205 C 
ATOM     23  C   UNL     1      35.065  21.250   6.659  0.00  0.00    +0.233 C 
ATOM     24  O   UNL     1      34.800  20.378   5.829  0.00  0.00    -0.274 OA
ATOM     25  H   UNL     1      33.928  20.397  10.371  0.00  0.00    +0.151 HD
BRANCH  15  27
ATOM     26  C   UNL     1      36.975  23.618   4.583  0.00  0.00    +0.024 C 
ATOM     27  C   UNL     1      36.769  22.236   5.177  0.00  0.00    +0.104 C 
ENDBRANCH  15  27
ENDBRANCH   1  21
TORSDOF 2
ENDMDL
MODEL 8
REMARK VINA RESULT:      -6.0      5.097      8.496
REMARK  Name = ZINC000329563636
REMARK  3 active torsions:
REMARK  status: ('A' for Active; 'I' for Inactive)
REMARK    1  A    between atoms: C_1  and  C_2
REMARK    2  A    between atoms: C_2  and  N_3
REMARK    3  A    between atoms: N_9  and  C_10
REMARK                            x       y       z     vdW  Elec       q    Type
REMARK                         _______ _______ _______ _____ _____    ______ ____
ROOT
ATOM      1  C   UNL     1      33.832  20.735  16.537  0.00  0.00    +0.112 C 
ATOM      2  C   UNL     1      34.796  21.773  17.119  0.00  0.00    +0.075 C 
ATOM      3  C   UNL     1      34.633  23.195  16.561  0.00  0.00    +0.113 C 
ATOM      4  C   UNL     1      33.536  24.045  17.253  0.00  0.00    +0.048 C 
ATOM      5  C   UNL     1      34.264  25.150  18.010  0.00  0.00    +0.004 C 
ATOM      6  C   UNL     1      35.525  25.381  17.202  0.00  0.00    +0.004 C 
ATOM      7  C   UNL     1      35.948  23.973  16.820  0.00  0.00    +0.048 C 
ATOM      8  O   UNL     1      34.418  23.189  15.137  0.00  0.00    -0.485 OA
ATOM      9  C   UNL     1      33.331  22.443  14.761  0.00  0.00    +0.126 A 
ATOM     10  C   UNL     1      32.577  22.902  13.683  0.00  0.00    +0.046 A 
ATOM     11  C   UNL     1      31.436  22.204  13.282  0.00  0.00    +0.004 A 
ATOM     12  C   UNL     1      31.062  21.038  13.946  0.00  0.00    +0.001 A 
ATOM     13  C   UNL     1      31.838  20.566  15.005  0.00  0.00    +0.009 A 
ATOM     14  C   UNL     1      32.982  21.269  15.421  0.00  0.00    +0.015 A 
ENDROOT
BRANCH   1  21
ATOM     15  N   UNL     1      36.004  14.971  15.247  0.00  0.00    -0.299 N 
ATOM     16  C   UNL     1      35.704  15.206  16.659  0.00  0.00    +0.127 C 
ATOM     17  C   UNL     1      36.282  16.526  17.160  0.00  0.00    +0.129 C 
ATOM     18  N   UNL     1      35.786  17.608  16.322  0.00  0.00    -0.275 N 
ATOM     19  C   UNL     1      35.053  18.620  16.899  0.00  0.00    +0.303 C 
ATOM     20  O   UNL     1      34.803  18.652  18.103  0.00  0.00    -0.253 OA
ATOM     21  N   UNL     1      34.584  19.580  16.049  0.00  0.00    -0.292 N 
ATOM     22  C   UNL     1      36.094  17.460  14.897  0.00  0.00    +0.205 C 
ATOM     23  C   UNL     1      36.244  16.019  14.364  0.00  0.00    +0.233 C 
ATOM     24  O   UNL     1      36.553  15.828  13.186  0.00  0.00    -0.274 OA
ATOM     25  H   UNL     1      35.079  19.730  15.185  0.00  0.00    +0.151 HD
BRANCH  15  27
ATOM     26  C   UNL     1      34.509  13.218  14.359  0.00  0.00    +0.024 C 
ATOM     27  C   UNL     1      35.927  13.605  14.742  0.00  0.00    +0.104 C 
ENDBRANCH  15  27
ENDBRANCH   1  21
TORSDOF 2
ENDMDL
MODEL 9
REMARK VINA RESULT:      -6.0      4.840      9.212
REMARK  Name = ZINC000329563636
REMARK  3 active torsions:
REMARK  status: ('A' for Active; 'I' for Inactive)
REMARK    1  A    between atoms: C_1  and  C_2
REMARK    2  A    between atoms: C_2  and  N_3
REMARK    3  A    between atoms: N_9  and  C_10
REMARK                            x       y       z     vdW  Elec       q    Type
REMARK                         _______ _______ _______ _____ _____    ______ ____
ROOT
ATOM      1  C   UNL     1      34.484  19.595  13.764  0.00  0.00    +0.112 C 
ATOM      2  C   UNL     1      35.115  20.376  12.607  0.00  0.00    +0.075 C 
ATOM      3  C   UNL     1      34.411  21.695  12.255  0.00  0.00    +0.113 C 
ATOM      4  C   UNL     1      34.842  22.912  13.113  0.00  0.00    +0.048 C 
ATOM      5  C   UNL     1      35.601  23.848  12.179  0.00  0.00    +0.004 C 
ATOM      6  C   UNL     1      34.984  23.592  10.819  0.00  0.00    +0.004 C 
ATOM      7  C   UNL     1      34.802  22.084  10.806  0.00  0.00    +0.048 C 
ATOM      8  O   UNL     1      32.977  21.561  12.285  0.00  0.00    -0.485 OA
ATOM      9  C   UNL     1      32.504  21.121  13.494  0.00  0.00    +0.126 A 
ATOM     10  C   UNL     1      31.284  21.631  13.933  0.00  0.00    +0.046 A 
ATOM     11  C   UNL     1      30.774  21.249  15.174  0.00  0.00    +0.004 A 
ATOM     12  C   UNL     1      31.474  20.343  15.967  0.00  0.00    +0.001 A 
ATOM     13  C   UNL     1      32.680  19.811  15.510  0.00  0.00    +0.009 A 
ATOM     14  C   UNL     1      33.205  20.199  14.266  0.00  0.00    +0.015 A 
ENDROOT
BRANCH   1  21
ATOM     15  N   UNL     1      33.910  13.339  13.407  0.00  0.00    -0.299 N 
ATOM     16  C   UNL     1      35.194  13.802  13.930  0.00  0.00    +0.127 C 
ATOM     17  C   UNL     1      35.797  14.914  13.077  0.00  0.00    +0.129 C 
ATOM     18  N   UNL     1      34.838  16.004  12.974  0.00  0.00    -0.275 N 
ATOM     19  C   UNL     1      35.189  17.251  13.439  0.00  0.00    +0.303 C 
ATOM     20  O   UNL     1      36.290  17.486  13.936  0.00  0.00    -0.253 OA
ATOM     21  N   UNL     1      34.228  18.216  13.350  0.00  0.00    -0.292 N 
ATOM     22  C   UNL     1      33.541  15.618  12.413  0.00  0.00    +0.205 C 
ATOM     23  C   UNL     1      33.094  14.157  12.634  0.00  0.00    +0.233 C 
ATOM     24  O   UNL     1      32.037  13.756  12.142  0.00  0.00    -0.274 OA
ATOM     25  H   UNL     1      33.514  18.110  12.648  0.00  0.00    +0.151 HD
BRANCH  15  27
ATOM     26  C   UNL     1      34.080  10.906  13.019  0.00  0.00    +0.024 C 
ATOM     27  C   UNL     1      33.431  12.023  13.818  0.00  0.00    +0.104 C 
ENDBRANCH  15  27
ENDBRANCH   1  21
TORSDOF 2
ENDMDL
