MODEL 1
REMARK VINA RESULT:      -6.8      0.000      0.000
REMARK  Name = ZINC000560333501
REMARK  5 active torsions:
REMARK  status: ('A' for Active; 'I' for Inactive)
REMARK    1  A    between atoms: C_2  and  C_3
REMARK    2  A    between atoms: C_7  and  C_8
REMARK    3  A    between atoms: C_8  and  C_9
REMARK    4  A    between atoms: N_11  and  C_12
REMARK    5  A    between atoms: C_12  and  C_13
REMARK                            x       y       z     vdW  Elec       q    Type
REMARK                         _______ _______ _______ _____ _____    ______ ____
ROOT
ATOM      1  C   UNL     1      31.271  23.006  12.597  0.00  0.00    +0.217 C 
ATOM      2  O   UNL     1      32.253  22.263  12.514  0.00  0.00    -0.275 OA
ATOM      3  N   UNL     1      30.405  22.997  13.677  0.00  0.00    -0.315 N 
ATOM      4  H   UNL     1      29.829  23.823  13.789  0.00  0.00    +0.149 HD
ENDROOT
BRANCH   1   5
ATOM      5  C   UNL     1      30.947  23.988  11.497  0.00  0.00    +0.131 C 
BRANCH   5  10
ATOM      6  C   UNL     1      33.529  24.328   8.682  0.00  0.00    +0.052 A 
ATOM      7  C   UNL     1      34.226  25.468   9.097  0.00  0.00    +0.019 A 
ATOM      8  C   UNL     1      33.876  26.103  10.288  0.00  0.00    +0.002 A 
ATOM      9  C   UNL     1      32.835  25.600  11.071  0.00  0.00    +0.004 A 
ATOM     10  C   UNL     1      32.130  24.455  10.676  0.00  0.00    -0.037 A 
ATOM     11  C   UNL     1      32.481  23.828   9.468  0.00  0.00    +0.023 A 
BRANCH   6  13
ATOM     12  N   UNL     1      34.161  23.178   6.445  0.00  0.00    -0.191 NA
ATOM     13  C   UNL     1      33.877  23.689   7.448  0.00  0.00    +0.099 C 
ENDBRANCH   6  13
ENDBRANCH   5  10
ENDBRANCH   1   5
BRANCH   3  14
ATOM     14  C   UNL     1      30.834  22.331  14.894  0.00  0.00    +0.108 C 
BRANCH  14  15
ATOM     15  C   UNL     1      29.720  21.800  15.815  0.00  0.00    +0.011 C 
ATOM     16  C   UNL     1      30.130  21.713  17.282  0.00  0.00    +0.033 C 
ATOM     17  C   UNL     1      31.309  20.767  17.455  0.00  0.00    +0.161 C 
ATOM     18  O   UNL     1      31.137  19.513  16.800  0.00  0.00    -0.373 OA
ATOM     19  C   UNL     1      30.481  19.410  15.503  0.00  0.00    +0.070 C 
ATOM     20  C   UNL     1      31.379  19.372  14.218  0.00  0.00    +0.035 C 
ATOM     21  C   UNL     1      31.464  17.854  14.369  0.00  0.00    +0.006 C 
ATOM     22  C   UNL     1      30.143  17.920  15.157  0.00  0.00    +0.035 C 
ATOM     23  C   UNL     1      29.295  20.376  15.397  0.00  0.00    +0.040 C 
ENDBRANCH  14  15
ENDBRANCH   3  14
TORSDOF 5
ENDMDL
MODEL 2
REMARK VINA RESULT:      -6.7      1.372      1.891
REMARK  Name = ZINC000560333501
REMARK  5 active torsions:
REMARK  status: ('A' for Active; 'I' for Inactive)
REMARK    1  A    between atoms: C_2  and  C_3
REMARK    2  A    between atoms: C_7  and  C_8
REMARK    3  A    between atoms: C_8  and  C_9
REMARK    4  A    between atoms: N_11  and  C_12
REMARK    5  A    between atoms: C_12  and  C_13
REMARK                            x       y       z     vdW  Elec       q    Type
REMARK                         _______ _______ _______ _____ _____    ______ ____
ROOT
ATOM      1  C   UNL     1      31.368  23.082  12.792  0.00  0.00    +0.217 C 
ATOM      2  O   UNL     1      32.497  22.589  12.840  0.00  0.00    -0.275 OA
ATOM      3  N   UNL     1      30.413  22.887  13.775  0.00  0.00    -0.315 N 
ATOM      4  H   UNL     1      29.654  23.557  13.794  0.00  0.00    +0.149 HD
ENDROOT
BRANCH   1   5
ATOM      5  C   UNL     1      30.949  23.947  11.626  0.00  0.00    +0.131 C 
BRANCH   5  10
ATOM      6  C   UNL     1      33.780  25.790   9.812  0.00  0.00    +0.052 A 
ATOM      7  C   UNL     1      34.207  24.805   8.913  0.00  0.00    +0.019 A 
ATOM      8  C   UNL     1      33.565  23.568   8.883  0.00  0.00    +0.002 A 
ATOM      9  C   UNL     1      32.496  23.310   9.742  0.00  0.00    +0.004 A 
ATOM     10  C   UNL     1      32.049  24.287  10.644  0.00  0.00    -0.037 A 
ATOM     11  C   UNL     1      32.708  25.528  10.676  0.00  0.00    +0.023 A 
BRANCH   6  13
ATOM     12  N   UNL     1      35.005  28.076   9.889  0.00  0.00    -0.191 NA
ATOM     13  C   UNL     1      34.453  27.055   9.856  0.00  0.00    +0.099 C 
ENDBRANCH   6  13
ENDBRANCH   5  10
ENDBRANCH   1   5
BRANCH   3  14
ATOM     14  C   UNL     1      30.847  22.355  15.055  0.00  0.00    +0.108 C 
BRANCH  14  15
ATOM     15  C   UNL     1      29.756  21.726  15.942  0.00  0.00    +0.011 C 
ATOM     16  C   UNL     1      30.187  21.534  17.394  0.00  0.00    +0.033 C 
ATOM     17  C   UNL     1      31.389  20.606  17.479  0.00  0.00    +0.161 C 
ATOM     18  O   UNL     1      31.238  19.403  16.729  0.00  0.00    -0.373 OA
ATOM     19  C   UNL     1      30.569  19.387  15.435  0.00  0.00    +0.070 C 
ATOM     20  C   UNL     1      31.452  19.473  14.141  0.00  0.00    +0.035 C 
ATOM     21  C   UNL     1      31.574  17.949  14.171  0.00  0.00    +0.006 C 
ATOM     22  C   UNL     1      30.261  17.921  14.976  0.00  0.00    +0.035 C 
ATOM     23  C   UNL     1      29.360  20.330  15.418  0.00  0.00    +0.040 C 
ENDBRANCH  14  15
ENDBRANCH   3  14
TORSDOF 5
ENDMDL
MODEL 3
REMARK VINA RESULT:      -6.6      6.410      9.871
REMARK  Name = ZINC000560333501
REMARK  5 active torsions:
REMARK  status: ('A' for Active; 'I' for Inactive)
REMARK    1  A    between atoms: C_2  and  C_3
REMARK    2  A    between atoms: C_7  and  C_8
REMARK    3  A    between atoms: C_8  and  C_9
REMARK    4  A    between atoms: N_11  and  C_12
REMARK    5  A    between atoms: C_12  and  C_13
REMARK                            x       y       z     vdW  Elec       q    Type
REMARK                         _______ _______ _______ _____ _____    ______ ____
ROOT
ATOM      1  C   UNL     1      25.628  22.277  18.551  0.00  0.00    +0.217 C 
ATOM      2  O   UNL     1      25.923  22.497  19.729  0.00  0.00    -0.275 OA
ATOM      3  N   UNL     1      24.788  23.095  17.816  0.00  0.00    -0.315 N 
ATOM      4  H   UNL     1      24.850  23.003  16.809  0.00  0.00    +0.149 HD
ENDROOT
BRANCH   1   5
ATOM      5  C   UNL     1      26.178  21.071  17.827  0.00  0.00    +0.131 C 
BRANCH   5  10
ATOM      6  C   UNL     1      29.976  21.488  17.510  0.00  0.00    +0.052 A 
ATOM      7  C   UNL     1      30.143  21.377  16.125  0.00  0.00    +0.019 A 
ATOM      8  C   UNL     1      29.031  21.193  15.304  0.00  0.00    +0.002 A 
ATOM      9  C   UNL     1      27.752  21.125  15.860  0.00  0.00    +0.004 A 
ATOM     10  C   UNL     1      27.565  21.242  17.245  0.00  0.00    -0.037 A 
ATOM     11  C   UNL     1      28.691  21.416  18.066  0.00  0.00    +0.023 A 
BRANCH   6  13
ATOM     12  N   UNL     1      32.054  21.799  19.033  0.00  0.00    -0.191 NA
ATOM     13  C   UNL     1      31.122  21.658  18.355  0.00  0.00    +0.099 C 
ENDBRANCH   6  13
ENDBRANCH   5  10
ENDBRANCH   1   5
BRANCH   3  14
ATOM     14  C   UNL     1      24.497  24.421  18.332  0.00  0.00    +0.108 C 
BRANCH  14  15
ATOM     15  C   UNL     1      23.078  24.645  18.888  0.00  0.00    +0.011 C 
ATOM     16  C   UNL     1      22.420  25.926  18.382  0.00  0.00    +0.033 C 
ATOM     17  C   UNL     1      23.233  27.145  18.792  0.00  0.00    +0.161 C 
ATOM     18  O   UNL     1      23.595  27.155  20.171  0.00  0.00    -0.373 OA
ATOM     19  C   UNL     1      23.965  25.934  20.874  0.00  0.00    +0.070 C 
ATOM     20  C   UNL     1      25.489  25.587  21.009  0.00  0.00    +0.035 C 
ATOM     21  C   UNL     1      25.523  26.415  22.294  0.00  0.00    +0.006 C 
ATOM     22  C   UNL     1      24.009  26.164  22.423  0.00  0.00    +0.035 C 
ATOM     23  C   UNL     1      23.102  24.747  20.428  0.00  0.00    +0.040 C 
ENDBRANCH  14  15
ENDBRANCH   3  14
TORSDOF 5
ENDMDL
MODEL 4
REMARK VINA RESULT:      -6.5      5.105      7.069
REMARK  Name = ZINC000560333501
REMARK  5 active torsions:
REMARK  status: ('A' for Active; 'I' for Inactive)
REMARK    1  A    between atoms: C_2  and  C_3
REMARK    2  A    between atoms: C_7  and  C_8
REMARK    3  A    between atoms: C_8  and  C_9
REMARK    4  A    between atoms: N_11  and  C_12
REMARK    5  A    between atoms: C_12  and  C_13
REMARK                            x       y       z     vdW  Elec       q    Type
REMARK                         _______ _______ _______ _____ _____    ______ ____
ROOT
ATOM      1  C   UNL     1      29.260  21.597  16.620  0.00  0.00    +0.217 C 
ATOM      2  O   UNL     1      28.643  21.311  17.650  0.00  0.00    -0.275 OA
ATOM      3  N   UNL     1      30.202  22.608  16.558  0.00  0.00    -0.315 N 
ATOM      4  H   UNL     1      30.848  22.564  15.779  0.00  0.00    +0.149 HD
ENDROOT
BRANCH   1   5
ATOM      5  C   UNL     1      29.012  20.843  15.335  0.00  0.00    +0.131 C 
BRANCH   5  10
ATOM      6  C   UNL     1      31.637  18.048  15.361  0.00  0.00    +0.052 A 
ATOM      7  C   UNL     1      32.056  18.063  14.026  0.00  0.00    +0.019 A 
ATOM      8  C   UNL     1      31.508  18.986  13.136  0.00  0.00    +0.002 A 
ATOM      9  C   UNL     1      30.547  19.899  13.575  0.00  0.00    +0.004 A 
ATOM     10  C   UNL     1      30.121  19.904  14.911  0.00  0.00    -0.037 A 
ATOM     11  C   UNL     1      30.669  18.963  15.798  0.00  0.00    +0.023 A 
BRANCH   6  13
ATOM     12  N   UNL     1      32.624  16.301  17.005  0.00  0.00    -0.191 NA
ATOM     13  C   UNL     1      32.186  17.085  16.270  0.00  0.00    +0.099 C 
ENDBRANCH   6  13
ENDBRANCH   5  10
ENDBRANCH   1   5
BRANCH   3  14
ATOM     14  C   UNL     1      30.721  23.139  17.806  0.00  0.00    +0.108 C 
BRANCH  14  15
ATOM     15  C   UNL     1      32.252  23.277  17.910  0.00  0.00    +0.011 C 
ATOM     16  C   UNL     1      33.007  22.021  17.483  0.00  0.00    +0.033 C 
ATOM     17  C   UNL     1      32.628  20.840  18.364  0.00  0.00    +0.161 C 
ATOM     18  O   UNL     1      32.674  21.128  19.759  0.00  0.00    -0.373 OA
ATOM     19  C   UNL     1      32.255  22.420  20.288  0.00  0.00    +0.070 C 
ATOM     20  C   UNL     1      30.791  22.560  20.834  0.00  0.00    +0.035 C 
ATOM     21  C   UNL     1      31.296  22.091  22.198  0.00  0.00    +0.006 C 
ATOM     22  C   UNL     1      32.694  22.588  21.782  0.00  0.00    +0.035 C 
ATOM     23  C   UNL     1      32.679  23.568  19.364  0.00  0.00    +0.040 C 
ENDBRANCH  14  15
ENDBRANCH   3  14
TORSDOF 5
ENDMDL
MODEL 5
REMARK VINA RESULT:      -6.5      5.231      9.031
REMARK  Name = ZINC000560333501
REMARK  5 active torsions:
REMARK  status: ('A' for Active; 'I' for Inactive)
REMARK    1  A    between atoms: C_2  and  C_3
REMARK    2  A    between atoms: C_7  and  C_8
REMARK    3  A    between atoms: C_8  and  C_9
REMARK    4  A    between atoms: N_11  and  C_12
REMARK    5  A    between atoms: C_12  and  C_13
REMARK                            x       y       z     vdW  Elec       q    Type
REMARK                         _______ _______ _______ _____ _____    ______ ____
ROOT
ATOM      1  C   UNL     1      27.142  21.462  18.180  0.00  0.00    +0.217 C 
ATOM      2  O   UNL     1      28.164  21.512  18.870  0.00  0.00    -0.275 OA
ATOM      3  N   UNL     1      27.161  21.236  16.815  0.00  0.00    -0.315 N 
ATOM      4  H   UNL     1      26.291  20.919  16.406  0.00  0.00    +0.149 HD
ENDROOT
BRANCH   1   5
ATOM      5  C   UNL     1      25.778  21.654  18.800  0.00  0.00    +0.131 C 
BRANCH   5  10
ATOM      6  C   UNL     1      25.683  25.320  19.919  0.00  0.00    +0.052 A 
ATOM      7  C   UNL     1      24.613  25.804  19.157  0.00  0.00    +0.019 A 
ATOM      8  C   UNL     1      23.918  24.942  18.310  0.00  0.00    +0.002 A 
ATOM      9  C   UNL     1      24.283  23.597  18.223  0.00  0.00    +0.004 A 
ATOM     10  C   UNL     1      25.347  23.093  18.984  0.00  0.00    -0.037 A 
ATOM     11  C   UNL     1      26.049  23.970  19.827  0.00  0.00    +0.023 A 
BRANCH   6  13
ATOM     12  N   UNL     1      26.998  26.938  21.462  0.00  0.00    -0.191 NA
ATOM     13  C   UNL     1      26.409  26.211  20.775  0.00  0.00    +0.099 C 
ENDBRANCH   6  13
ENDBRANCH   5  10
ENDBRANCH   1   5
BRANCH   3  14
ATOM     14  C   UNL     1      28.384  20.722  16.222  0.00  0.00    +0.108 C 
BRANCH  14  15
ATOM     15  C   UNL     1      29.009  21.566  15.096  0.00  0.00    +0.011 C 
ATOM     16  C   UNL     1      29.359  20.758  13.850  0.00  0.00    +0.033 C 
ATOM     17  C   UNL     1      30.375  19.675  14.180  0.00  0.00    +0.161 C 
ATOM     18  O   UNL     1      31.493  20.147  14.928  0.00  0.00    -0.373 OA
ATOM     19  C   UNL     1      31.346  21.158  15.968  0.00  0.00    +0.070 C 
ATOM     20  C   UNL     1      31.210  20.680  17.455  0.00  0.00    +0.035 C 
ATOM     21  C   UNL     1      32.735  20.698  17.560  0.00  0.00    +0.006 C 
ATOM     22  C   UNL     1      32.740  21.722  16.409  0.00  0.00    +0.035 C 
ATOM     23  C   UNL     1      30.321  22.227  15.569  0.00  0.00    +0.040 C 
ENDBRANCH  14  15
ENDBRANCH   3  14
TORSDOF 5
ENDMDL
MODEL 6
REMARK VINA RESULT:      -6.5      1.820      2.333
REMARK  Name = ZINC000560333501
REMARK  5 active torsions:
REMARK  status: ('A' for Active; 'I' for Inactive)
REMARK    1  A    between atoms: C_2  and  C_3
REMARK    2  A    between atoms: C_7  and  C_8
REMARK    3  A    between atoms: C_8  and  C_9
REMARK    4  A    between atoms: N_11  and  C_12
REMARK    5  A    between atoms: C_12  and  C_13
REMARK                            x       y       z     vdW  Elec       q    Type
REMARK                         _______ _______ _______ _____ _____    ______ ____
ROOT
ATOM      1  C   UNL     1      31.736  23.320  12.312  0.00  0.00    +0.217 C 
ATOM      2  O   UNL     1      32.719  23.398  13.054  0.00  0.00    -0.275 OA
ATOM      3  N   UNL     1      30.634  22.532  12.596  0.00  0.00    -0.315 N 
ATOM      4  H   UNL     1      29.784  22.765  12.097  0.00  0.00    +0.149 HD
ENDROOT
BRANCH   1   5
ATOM      5  C   UNL     1      31.680  24.094  11.017  0.00  0.00    +0.131 C 
BRANCH   5  10
ATOM      6  C   UNL     1      33.896  21.761   8.932  0.00  0.00    +0.052 A 
ATOM      7  C   UNL     1      33.897  22.425   7.699  0.00  0.00    +0.019 A 
ATOM      8  C   UNL     1      33.205  23.627   7.557  0.00  0.00    +0.002 A 
ATOM      9  C   UNL     1      32.516  24.173   8.642  0.00  0.00    +0.004 A 
ATOM     10  C   UNL     1      32.511  23.527   9.886  0.00  0.00    -0.037 A 
ATOM     11  C   UNL     1      33.201  22.310  10.018  0.00  0.00    +0.023 A 
BRANCH   6  13
ATOM     12  N   UNL     1      35.149  19.504   9.191  0.00  0.00    -0.191 NA
ATOM     13  C   UNL     1      34.592  20.516   9.072  0.00  0.00    +0.099 C 
ENDBRANCH   6  13
ENDBRANCH   5  10
ENDBRANCH   1   5
BRANCH   3  14
ATOM     14  C   UNL     1      30.478  22.034  13.951  0.00  0.00    +0.108 C 
BRANCH  14  15
ATOM     15  C   UNL     1      29.454  20.902  14.153  0.00  0.00    +0.011 C 
ATOM     16  C   UNL     1      28.521  21.128  15.340  0.00  0.00    +0.033 C 
ATOM     17  C   UNL     1      29.313  21.218  16.636  0.00  0.00    +0.161 C 
ATOM     18  O   UNL     1      30.260  20.166  16.803  0.00  0.00    -0.373 OA
ATOM     19  C   UNL     1      31.022  19.637  15.680  0.00  0.00    +0.070 C 
ATOM     20  C   UNL     1      32.466  20.198  15.431  0.00  0.00    +0.035 C 
ATOM     21  C   UNL     1      33.003  19.130  16.384  0.00  0.00    +0.006 C 
ATOM     22  C   UNL     1      31.744  18.301  16.065  0.00  0.00    +0.035 C 
ATOM     23  C   UNL     1      30.166  19.557  14.409  0.00  0.00    +0.040 C 
ENDBRANCH  14  15
ENDBRANCH   3  14
TORSDOF 5
ENDMDL
MODEL 7
REMARK VINA RESULT:      -6.5      5.193      8.919
REMARK  Name = ZINC000560333501
REMARK  5 active torsions:
REMARK  status: ('A' for Active; 'I' for Inactive)
REMARK    1  A    between atoms: C_2  and  C_3
REMARK    2  A    between atoms: C_7  and  C_8
REMARK    3  A    between atoms: C_8  and  C_9
REMARK    4  A    between atoms: N_11  and  C_12
REMARK    5  A    between atoms: C_12  and  C_13
REMARK                            x       y       z     vdW  Elec       q    Type
REMARK                         _______ _______ _______ _____ _____    ______ ____
ROOT
ATOM      1  C   UNL     1      28.054  21.943  18.908  0.00  0.00    +0.217 C 
ATOM      2  O   UNL     1      27.698  21.106  18.075  0.00  0.00    -0.275 OA
ATOM      3  N   UNL     1      29.301  22.545  18.892  0.00  0.00    -0.315 N 
ATOM      4  H   UNL     1      29.382  23.408  19.415  0.00  0.00    +0.149 HD
ENDROOT
BRANCH   1   5
ATOM      5  C   UNL     1      27.130  22.367  20.025  0.00  0.00    +0.131 C 
BRANCH   5  10
ATOM      6  C   UNL     1      25.189  25.610  19.380  0.00  0.00    +0.052 A 
ATOM      7  C   UNL     1      24.060  25.118  18.715  0.00  0.00    +0.019 A 
ATOM      8  C   UNL     1      23.922  23.747  18.502  0.00  0.00    +0.002 A 
ATOM      9  C   UNL     1      24.904  22.864  18.954  0.00  0.00    +0.004 A 
ATOM     10  C   UNL     1      26.038  23.338  19.629  0.00  0.00    -0.037 A 
ATOM     11  C   UNL     1      26.175  24.722  19.830  0.00  0.00    +0.023 A 
BRANCH   6  13
ATOM     12  N   UNL     1      25.460  28.166  19.737  0.00  0.00    -0.191 NA
ATOM     13  C   UNL     1      25.339  27.022  19.582  0.00  0.00    +0.099 C 
ENDBRANCH   6  13
ENDBRANCH   5  10
ENDBRANCH   1   5
BRANCH   3  14
ATOM     14  C   UNL     1      30.098  22.437  17.683  0.00  0.00    +0.108 C 
BRANCH  14  15
ATOM     15  C   UNL     1      31.227  21.390  17.697  0.00  0.00    +0.011 C 
ATOM     16  C   UNL     1      32.579  21.944  17.256  0.00  0.00    +0.033 C 
ATOM     17  C   UNL     1      32.505  22.469  15.830  0.00  0.00    +0.161 C 
ATOM     18  O   UNL     1      31.898  21.559  14.916  0.00  0.00    -0.373 OA
ATOM     19  C   UNL     1      30.763  20.730  15.301  0.00  0.00    +0.070 C 
ATOM     20  C   UNL     1      29.321  21.236  14.951  0.00  0.00    +0.035 C 
ATOM     21  C   UNL     1      29.449  20.545  13.594  0.00  0.00    +0.006 C 
ATOM     22  C   UNL     1      30.493  19.612  14.238  0.00  0.00    +0.035 C 
ATOM     23  C   UNL     1      30.904  20.222  16.742  0.00  0.00    +0.040 C 
ENDBRANCH  14  15
ENDBRANCH   3  14
TORSDOF 5
ENDMDL
MODEL 8
REMARK VINA RESULT:      -6.4      4.407      6.332
REMARK  Name = ZINC000560333501
REMARK  5 active torsions:
REMARK  status: ('A' for Active; 'I' for Inactive)
REMARK    1  A    between atoms: C_2  and  C_3
REMARK    2  A    between atoms: C_7  and  C_8
REMARK    3  A    between atoms: C_8  and  C_9
REMARK    4  A    between atoms: N_11  and  C_12
REMARK    5  A    between atoms: C_12  and  C_13
REMARK                            x       y       z     vdW  Elec       q    Type
REMARK                         _______ _______ _______ _____ _____    ______ ____
ROOT
ATOM      1  C   UNL     1      29.175  21.485  16.419  0.00  0.00    +0.217 C 
ATOM      2  O   UNL     1      28.654  21.122  17.477  0.00  0.00    -0.275 OA
ATOM      3  N   UNL     1      30.065  22.543  16.337  0.00  0.00    -0.315 N 
ATOM      4  H   UNL     1      30.649  22.566  15.511  0.00  0.00    +0.149 HD
ENDROOT
BRANCH   1   5
ATOM      5  C   UNL     1      28.861  20.783  15.120  0.00  0.00    +0.131 C 
BRANCH   5  10
ATOM      6  C   UNL     1      31.716  18.990  13.291  0.00  0.00    +0.052 A 
ATOM      7  C   UNL     1      31.826  17.820  14.051  0.00  0.00    +0.019 A 
ATOM      8  C   UNL     1      30.967  17.608  15.128  0.00  0.00    +0.002 A 
ATOM      9  C   UNL     1      29.994  18.556  15.448  0.00  0.00    +0.004 A 
ATOM     10  C   UNL     1      29.863  19.731  14.694  0.00  0.00    -0.037 A 
ATOM     11  C   UNL     1      30.740  19.943  13.616  0.00  0.00    +0.023 A 
BRANCH   6  13
ATOM     12  N   UNL     1      33.341  19.393  11.310  0.00  0.00    -0.191 NA
ATOM     13  C   UNL     1      32.612  19.217  12.196  0.00  0.00    +0.099 C 
ENDBRANCH   6  13
ENDBRANCH   5  10
ENDBRANCH   1   5
BRANCH   3  14
ATOM     14  C   UNL     1      30.655  23.038  17.568  0.00  0.00    +0.108 C 
BRANCH  14  15
ATOM     15  C   UNL     1      32.193  23.126  17.605  0.00  0.00    +0.011 C 
ATOM     16  C   UNL     1      32.889  21.832  17.195  0.00  0.00    +0.033 C 
ATOM     17  C   UNL     1      32.508  20.697  18.133  0.00  0.00    +0.161 C 
ATOM     18  O   UNL     1      32.622  21.033  19.514  0.00  0.00    -0.373 OA
ATOM     19  C   UNL     1      32.267  22.356  20.011  0.00  0.00    +0.070 C 
ATOM     20  C   UNL     1      30.833  22.565  20.610  0.00  0.00    +0.035 C 
ATOM     21  C   UNL     1      31.379  22.128  21.970  0.00  0.00    +0.006 C 
ATOM     22  C   UNL     1      32.774  22.563  21.479  0.00  0.00    +0.035 C 
ATOM     23  C   UNL     1      32.689  23.455  19.028  0.00  0.00    +0.040 C 
ENDBRANCH  14  15
ENDBRANCH   3  14
TORSDOF 5
ENDMDL
MODEL 9
REMARK VINA RESULT:      -6.4      4.991      8.159
REMARK  Name = ZINC000560333501
REMARK  5 active torsions:
REMARK  status: ('A' for Active; 'I' for Inactive)
REMARK    1  A    between atoms: C_2  and  C_3
REMARK    2  A    between atoms: C_7  and  C_8
REMARK    3  A    between atoms: C_8  and  C_9
REMARK    4  A    between atoms: N_11  and  C_12
REMARK    5  A    between atoms: C_12  and  C_13
REMARK                            x       y       z     vdW  Elec       q    Type
REMARK                         _______ _______ _______ _____ _____    ______ ____
ROOT
ATOM      1  C   UNL     1      30.245  19.081  14.703  0.00  0.00    +0.217 C 
ATOM      2  O   UNL     1      29.912  18.148  15.438  0.00  0.00    -0.275 OA
ATOM      3  N   UNL     1      31.276  18.990  13.783  0.00  0.00    -0.315 N 
ATOM      4  H   UNL     1      31.270  19.680  13.043  0.00  0.00    +0.149 HD
ENDROOT
BRANCH   1   5
ATOM      5  C   UNL     1      29.532  20.411  14.768  0.00  0.00    +0.131 C 
BRANCH   5  10
ATOM      6  C   UNL     1      29.041  21.654  18.362  0.00  0.00    +0.052 A 
ATOM      7  C   UNL     1      27.656  21.512  18.506  0.00  0.00    +0.019 A 
ATOM      8  C   UNL     1      26.897  20.996  17.457  0.00  0.00    +0.002 A 
ATOM      9  C   UNL     1      27.516  20.616  16.264  0.00  0.00    +0.004 A 
ATOM     10  C   UNL     1      28.903  20.744  16.104  0.00  0.00    -0.037 A 
ATOM     11  C   UNL     1      29.659  21.275  17.162  0.00  0.00    +0.023 A 
BRANCH   6  13
ATOM     12  N   UNL     1      30.441  22.653  20.304  0.00  0.00    -0.191 NA
ATOM     13  C   UNL     1      29.818  22.202  19.434  0.00  0.00    +0.099 C 
ENDBRANCH   6  13
ENDBRANCH   5  10
ENDBRANCH   1   5
BRANCH   3  14
ATOM     14  C   UNL     1      31.772  17.669  13.439  0.00  0.00    +0.108 C 
BRANCH  14  15
ATOM     15  C   UNL     1      33.261  17.574  13.057  0.00  0.00    +0.011 C 
ATOM     16  C   UNL     1      33.552  18.012  11.625  0.00  0.00    +0.033 C 
ATOM     17  C   UNL     1      32.804  17.135  10.632  0.00  0.00    +0.161 C 
ATOM     18  O   UNL     1      32.949  15.739  10.878  0.00  0.00    -0.373 OA
ATOM     19  C   UNL     1      32.987  15.200  12.231  0.00  0.00    +0.070 C 
ATOM     20  C   UNL     1      31.656  14.645  12.848  0.00  0.00    +0.035 C 
ATOM     21  C   UNL     1      31.981  13.286  12.227  0.00  0.00    +0.006 C 
ATOM     22  C   UNL     1      33.463  13.707  12.233  0.00  0.00    +0.035 C 
ATOM     23  C   UNL     1      33.767  16.121  13.179  0.00  0.00    +0.040 C 
ENDBRANCH  14  15
ENDBRANCH   3  14
TORSDOF 5
ENDMDL
