MODEL 1
REMARK VINA RESULT:      -6.8      0.000      0.000
REMARK  Name = ZINC001228612316
REMARK  5 active torsions:
REMARK  status: ('A' for Active; 'I' for Inactive)
REMARK    1  A    between atoms: C_2  and  C_4
REMARK    2  A    between atoms: C_8  and  O_9
REMARK    3  A    between atoms: O_9  and  C_10
REMARK    4  A    between atoms: C_10  and  C_11
REMARK    5  A    between atoms: C_10  and  C_17
REMARK                            x       y       z     vdW  Elec       q    Type
REMARK                         _______ _______ _______ _____ _____    ______ ____
ROOT
ATOM      1  C   UNL     1      26.459  21.685  17.134  0.00  0.00    +0.040 A 
ATOM      2  C   UNL     1      26.191  20.322  16.960  0.00  0.00    +0.013 A 
ATOM      3  C   UNL     1      27.229  19.438  16.664  0.00  0.00    +0.004 A 
ATOM      4  C   UNL     1      28.540  19.906  16.541  0.00  0.00    +0.046 A 
ATOM      5  C   UNL     1      28.818  21.263  16.708  0.00  0.00    +0.122 A 
ATOM      6  C   UNL     1      27.775  22.148  17.007  0.00  0.00    +0.058 A 
ENDROOT
BRANCH   1   8
ATOM      7  N   UNL     1      25.451  23.387  18.567  0.00  0.00    -0.325 N 
ATOM      8  C   UNL     1      25.322  22.584  17.466  0.00  0.00    +0.242 C 
ATOM      9  O   UNL     1      24.319  22.640  16.765  0.00  0.00    -0.270 OA
ATOM     10  H   UNL     1      24.714  24.065  18.713  0.00  0.00    +0.145 HD
ATOM     11  H   UNL     1      26.335  23.549  19.025  0.00  0.00    +0.145 HD
ENDBRANCH   1   8
BRANCH   5  12
ATOM     12  O   UNL     1      30.043  21.851  16.541  0.00  0.00    -0.484 OA
BRANCH  12  13
ATOM     13  C   UNL     1      30.106  23.271  16.332  0.00  0.00    +0.208 C 
BRANCH  13  14
ATOM     14  C   UNL     1      31.047  23.977  17.289  0.00  0.00    +0.011 A 
ATOM     15  C   UNL     1      32.160  24.711  16.870  0.00  0.00    +0.010 A 
ATOM     16  C   UNL     1      32.924  25.403  17.808  0.00  0.00    +0.020 A 
ATOM     17  C   UNL     1      32.547  25.341  19.140  0.00  0.00    +0.111 A 
ATOM     18  N   UNL     1      31.487  24.637  19.586  0.00  0.00    -0.263 NA
ATOM     19  C   UNL     1      30.764  23.977  18.655  0.00  0.00    +0.118 A 
ENDBRANCH  13  14
BRANCH  13  20
ATOM     20  C   UNL     1      30.605  23.551  14.918  0.00  0.00    +0.034 C 
ATOM     21  C   UNL     1      29.908  24.568  14.047  0.00  0.00    +0.008 C 
ATOM     22  C   UNL     1      29.860  23.111  13.677  0.00  0.00    +0.008 C 
ENDBRANCH  13  20
ENDBRANCH  12  13
ENDBRANCH   5  12
TORSDOF 5
ENDMDL
MODEL 2
REMARK VINA RESULT:      -6.8      3.325      6.617
REMARK  Name = ZINC001228612316
REMARK  5 active torsions:
REMARK  status: ('A' for Active; 'I' for Inactive)
REMARK    1  A    between atoms: C_2  and  C_4
REMARK    2  A    between atoms: C_8  and  O_9
REMARK    3  A    between atoms: O_9  and  C_10
REMARK    4  A    between atoms: C_10  and  C_11
REMARK    5  A    between atoms: C_10  and  C_17
REMARK                            x       y       z     vdW  Elec       q    Type
REMARK                         _______ _______ _______ _____ _____    ______ ____
ROOT
ATOM      1  C   UNL     1      31.294  24.182  11.609  0.00  0.00    +0.040 A 
ATOM      2  C   UNL     1      30.491  25.324  11.699  0.00  0.00    +0.013 A 
ATOM      3  C   UNL     1      29.613  25.478  12.772  0.00  0.00    +0.004 A 
ATOM      4  C   UNL     1      29.531  24.494  13.762  0.00  0.00    +0.046 A 
ATOM      5  C   UNL     1      30.324  23.350  13.680  0.00  0.00    +0.122 A 
ATOM      6  C   UNL     1      31.207  23.199  12.602  0.00  0.00    +0.058 A 
ENDROOT
BRANCH   1   8
ATOM      7  N   UNL     1      32.097  22.982   9.638  0.00  0.00    -0.325 N 
ATOM      8  C   UNL     1      32.227  24.073  10.455  0.00  0.00    +0.242 C 
ATOM      9  O   UNL     1      33.059  24.940  10.214  0.00  0.00    -0.270 OA
ATOM     10  H   UNL     1      32.668  22.982   8.802  0.00  0.00    +0.145 HD
ATOM     11  H   UNL     1      31.289  22.380   9.654  0.00  0.00    +0.145 HD
ENDBRANCH   1   8
BRANCH   5  12
ATOM     12  O   UNL     1      30.283  22.288  14.543  0.00  0.00    -0.484 OA
BRANCH  12  13
ATOM     13  C   UNL     1      30.016  22.535  15.933  0.00  0.00    +0.208 C 
BRANCH  13  14
ATOM     14  C   UNL     1      28.621  22.121  16.359  0.00  0.00    +0.011 A 
ATOM     15  C   UNL     1      28.077  20.863  16.086  0.00  0.00    +0.010 A 
ATOM     16  C   UNL     1      26.821  20.530  16.590  0.00  0.00    +0.020 A 
ATOM     17  C   UNL     1      26.148  21.468  17.355  0.00  0.00    +0.111 A 
ATOM     18  N   UNL     1      26.633  22.695  17.633  0.00  0.00    -0.263 NA
ATOM     19  C   UNL     1      27.852  22.990  17.133  0.00  0.00    +0.118 A 
ENDBRANCH  13  14
BRANCH  13  20
ATOM     20  C   UNL     1      31.003  21.744  16.784  0.00  0.00    +0.034 C 
ATOM     21  C   UNL     1      31.454  22.271  18.126  0.00  0.00    +0.008 C 
ATOM     22  C   UNL     1      32.440  22.170  16.994  0.00  0.00    +0.008 C 
ENDBRANCH  13  20
ENDBRANCH  12  13
ENDBRANCH   5  12
TORSDOF 5
ENDMDL
MODEL 3
REMARK VINA RESULT:      -6.6      2.419      3.861
REMARK  Name = ZINC001228612316
REMARK  5 active torsions:
REMARK  status: ('A' for Active; 'I' for Inactive)
REMARK    1  A    between atoms: C_2  and  C_4
REMARK    2  A    between atoms: C_8  and  O_9
REMARK    3  A    between atoms: O_9  and  C_10
REMARK    4  A    between atoms: C_10  and  C_11
REMARK    5  A    between atoms: C_10  and  C_17
REMARK                            x       y       z     vdW  Elec       q    Type
REMARK                         _______ _______ _______ _____ _____    ______ ____
ROOT
ATOM      1  C   UNL     1      26.592  22.182  17.354  0.00  0.00    +0.040 A 
ATOM      2  C   UNL     1      26.428  20.836  17.008  0.00  0.00    +0.013 A 
ATOM      3  C   UNL     1      27.417  20.176  16.278  0.00  0.00    +0.004 A 
ATOM      4  C   UNL     1      28.576  20.854  15.891  0.00  0.00    +0.046 A 
ATOM      5  C   UNL     1      28.749  22.197  16.226  0.00  0.00    +0.122 A 
ATOM      6  C   UNL     1      27.755  22.856  16.960  0.00  0.00    +0.058 A 
ENDROOT
BRANCH   1   8
ATOM      7  N   UNL     1      25.896  23.754  19.090  0.00  0.00    -0.325 N 
ATOM      8  C   UNL     1      25.517  22.837  18.147  0.00  0.00    +0.242 C 
ATOM      9  O   UNL     1      24.332  22.599  17.946  0.00  0.00    -0.270 OA
ATOM     10  H   UNL     1      25.147  24.262  19.542  0.00  0.00    +0.145 HD
ATOM     11  H   UNL     1      26.822  24.152  19.124  0.00  0.00    +0.145 HD
ENDBRANCH   1   8
BRANCH   5  12
ATOM     12  O   UNL     1      29.801  22.984  15.844  0.00  0.00    -0.484 OA
BRANCH  12  13
ATOM     13  C   UNL     1      30.796  22.433  14.966  0.00  0.00    +0.208 C 
BRANCH  13  14
ATOM     14  C   UNL     1      30.888  23.155  13.635  0.00  0.00    +0.011 A 
ATOM     15  C   UNL     1      29.952  24.101  13.209  0.00  0.00    +0.010 A 
ATOM     16  C   UNL     1      30.158  24.783  12.012  0.00  0.00    +0.020 A 
ATOM     17  C   UNL     1      31.297  24.498  11.277  0.00  0.00    +0.111 A 
ATOM     18  N   UNL     1      32.219  23.586  11.648  0.00  0.00    -0.263 NA
ATOM     19  C   UNL     1      31.995  22.942  12.813  0.00  0.00    +0.118 A 
ENDBRANCH  13  14
BRANCH  13  20
ATOM     20  C   UNL     1      32.166  22.533  15.630  0.00  0.00    +0.034 C 
ATOM     21  C   UNL     1      33.023  21.303  15.809  0.00  0.00    +0.008 C 
ATOM     22  C   UNL     1      32.453  21.997  17.015  0.00  0.00    +0.008 C 
ENDBRANCH  13  20
ENDBRANCH  12  13
ENDBRANCH   5  12
TORSDOF 5
ENDMDL
MODEL 4
REMARK VINA RESULT:      -6.5      3.066      5.822
REMARK  Name = ZINC001228612316
REMARK  5 active torsions:
REMARK  status: ('A' for Active; 'I' for Inactive)
REMARK    1  A    between atoms: C_2  and  C_4
REMARK    2  A    between atoms: C_8  and  O_9
REMARK    3  A    between atoms: O_9  and  C_10
REMARK    4  A    between atoms: C_10  and  C_11
REMARK    5  A    between atoms: C_10  and  C_17
REMARK                            x       y       z     vdW  Elec       q    Type
REMARK                         _______ _______ _______ _____ _____    ______ ____
ROOT
ATOM      1  C   UNL     1      31.812  23.640  12.269  0.00  0.00    +0.040 A 
ATOM      2  C   UNL     1      31.169  24.477  11.351  0.00  0.00    +0.013 A 
ATOM      3  C   UNL     1      30.050  25.213  11.740  0.00  0.00    +0.004 A 
ATOM      4  C   UNL     1      29.565  25.119  13.048  0.00  0.00    +0.046 A 
ATOM      5  C   UNL     1      30.195  24.284  13.971  0.00  0.00    +0.122 A 
ATOM      6  C   UNL     1      31.320  23.548  13.577  0.00  0.00    +0.058 A 
ENDROOT
BRANCH   1   8
ATOM      7  N   UNL     1      32.809  21.665  11.233  0.00  0.00    -0.325 N 
ATOM      8  C   UNL     1      33.012  22.889  11.811  0.00  0.00    +0.242 C 
ATOM      9  O   UNL     1      34.140  23.357  11.907  0.00  0.00    -0.270 OA
ATOM     10  H   UNL     1      33.626  21.221  10.834  0.00  0.00    +0.145 HD
ATOM     11  H   UNL     1      31.904  21.352  10.919  0.00  0.00    +0.145 HD
ENDBRANCH   1   8
BRANCH   5  12
ATOM     12  O   UNL     1      29.774  24.053  15.252  0.00  0.00    -0.484 OA
BRANCH  12  13
ATOM     13  C   UNL     1      29.997  22.757  15.831  0.00  0.00    +0.208 C 
BRANCH  13  14
ATOM     14  C   UNL     1      30.850  22.798  17.085  0.00  0.00    +0.011 A 
ATOM     15  C   UNL     1      32.030  22.065  17.235  0.00  0.00    +0.010 A 
ATOM     16  C   UNL     1      32.802  22.228  18.384  0.00  0.00    +0.020 A 
ATOM     17  C   UNL     1      32.369  23.124  19.348  0.00  0.00    +0.111 A 
ATOM     18  N   UNL     1      31.232  23.842  19.246  0.00  0.00    -0.263 NA
ATOM     19  C   UNL     1      30.505  23.666  18.121  0.00  0.00    +0.118 A 
ENDBRANCH  13  14
BRANCH  13  20
ATOM     20  C   UNL     1      28.657  22.138  16.215  0.00  0.00    +0.034 C 
ATOM     21  C   UNL     1      28.596  20.758  16.824  0.00  0.00    +0.008 C 
ATOM     22  C   UNL     1      28.026  20.995  15.452  0.00  0.00    +0.008 C 
ENDBRANCH  13  20
ENDBRANCH  12  13
ENDBRANCH   5  12
TORSDOF 5
ENDMDL
MODEL 5
REMARK VINA RESULT:      -6.3      3.689      6.062
REMARK  Name = ZINC001228612316
REMARK  5 active torsions:
REMARK  status: ('A' for Active; 'I' for Inactive)
REMARK    1  A    between atoms: C_2  and  C_4
REMARK    2  A    between atoms: C_8  and  O_9
REMARK    3  A    between atoms: O_9  and  C_10
REMARK    4  A    between atoms: C_10  and  C_11
REMARK    5  A    between atoms: C_10  and  C_17
REMARK                            x       y       z     vdW  Elec       q    Type
REMARK                         _______ _______ _______ _____ _____    ______ ____
ROOT
ATOM      1  C   UNL     1      31.597  24.634  11.697  0.00  0.00    +0.040 A 
ATOM      2  C   UNL     1      30.450  25.432  11.774  0.00  0.00    +0.013 A 
ATOM      3  C   UNL     1      29.565  25.282  12.842  0.00  0.00    +0.004 A 
ATOM      4  C   UNL     1      29.819  24.336  13.840  0.00  0.00    +0.046 A 
ATOM      5  C   UNL     1      30.957  23.533  13.771  0.00  0.00    +0.122 A 
ATOM      6  C   UNL     1      31.845  23.688  12.698  0.00  0.00    +0.058 A 
ENDROOT
BRANCH   1   8
ATOM      7  N   UNL     1      32.507  23.908   9.549  0.00  0.00    -0.325 N 
ATOM      8  C   UNL     1      32.519  24.845  10.548  0.00  0.00    +0.242 C 
ATOM      9  O   UNL     1      33.237  25.834  10.470  0.00  0.00    -0.270 OA
ATOM     10  H   UNL     1      33.062  24.125   8.730  0.00  0.00    +0.145 HD
ATOM     11  H   UNL     1      31.776  23.220   9.453  0.00  0.00    +0.145 HD
ENDBRANCH   1   8
BRANCH   5  12
ATOM     12  O   UNL     1      31.277  22.528  14.643  0.00  0.00    -0.484 OA
BRANCH  12  13
ATOM     13  C   UNL     1      32.362  22.728  15.564  0.00  0.00    +0.208 C 
BRANCH  13  14
ATOM     14  C   UNL     1      31.971  23.539  16.783  0.00  0.00    +0.011 A 
ATOM     15  C   UNL     1      32.517  24.791  17.080  0.00  0.00    +0.010 A 
ATOM     16  C   UNL     1      32.039  25.511  18.172  0.00  0.00    +0.020 A 
ATOM     17  C   UNL     1      31.025  24.956  18.936  0.00  0.00    +0.111 A 
ATOM     18  N   UNL     1      30.478  23.748  18.690  0.00  0.00    -0.263 NA
ATOM     19  C   UNL     1      30.960  23.073  17.624  0.00  0.00    +0.118 A 
ENDBRANCH  13  14
BRANCH  13  20
ATOM     20  C   UNL     1      32.858  21.373  16.060  0.00  0.00    +0.034 C 
ATOM     21  C   UNL     1      34.188  21.255  16.764  0.00  0.00    +0.008 C 
ATOM     22  C   UNL     1      33.999  20.623  15.412  0.00  0.00    +0.008 C 
ENDBRANCH  13  20
ENDBRANCH  12  13
ENDBRANCH   5  12
TORSDOF 5
ENDMDL
MODEL 6
REMARK VINA RESULT:      -6.2      2.227      6.363
REMARK  Name = ZINC001228612316
REMARK  5 active torsions:
REMARK  status: ('A' for Active; 'I' for Inactive)
REMARK    1  A    between atoms: C_2  and  C_4
REMARK    2  A    between atoms: C_8  and  O_9
REMARK    3  A    between atoms: O_9  and  C_10
REMARK    4  A    between atoms: C_10  and  C_11
REMARK    5  A    between atoms: C_10  and  C_17
REMARK                            x       y       z     vdW  Elec       q    Type
REMARK                         _______ _______ _______ _____ _____    ______ ____
ROOT
ATOM      1  C   UNL     1      33.083  25.342  19.299  0.00  0.00    +0.040 A 
ATOM      2  C   UNL     1      33.914  24.274  19.655  0.00  0.00    +0.013 A 
ATOM      3  C   UNL     1      33.463  22.961  19.518  0.00  0.00    +0.004 A 
ATOM      4  C   UNL     1      32.181  22.705  19.025  0.00  0.00    +0.046 A 
ATOM      5  C   UNL     1      31.342  23.761  18.670  0.00  0.00    +0.122 A 
ATOM      6  C   UNL     1      31.799  25.079  18.806  0.00  0.00    +0.058 A 
ENDROOT
BRANCH   1   8
ATOM      7  N   UNL     1      32.754  27.690  19.887  0.00  0.00    -0.325 N 
ATOM      8  C   UNL     1      33.617  26.723  19.446  0.00  0.00    +0.242 C 
ATOM      9  O   UNL     1      34.791  26.988  19.221  0.00  0.00    -0.270 OA
ATOM     10  H   UNL     1      33.162  28.596  20.081  0.00  0.00    +0.145 HD
ATOM     11  H   UNL     1      31.862  27.477  20.307  0.00  0.00    +0.145 HD
ENDBRANCH   1   8
BRANCH   5  12
ATOM     12  O   UNL     1      30.047  23.642  18.246  0.00  0.00    -0.484 OA
BRANCH  12  13
ATOM     13  C   UNL     1      29.770  22.849  17.080  0.00  0.00    +0.208 C 
BRANCH  13  14
ATOM     14  C   UNL     1      28.349  22.319  17.039  0.00  0.00    +0.011 A 
ATOM     15  C   UNL     1      28.030  21.003  16.692  0.00  0.00    +0.010 A 
ATOM     16  C   UNL     1      26.707  20.572  16.765  0.00  0.00    +0.020 A 
ATOM     17  C   UNL     1      25.742  21.473  17.186  0.00  0.00    +0.111 A 
ATOM     18  N   UNL     1      26.007  22.752  17.519  0.00  0.00    -0.263 NA
ATOM     19  C   UNL     1      27.297  23.143  17.441  0.00  0.00    +0.118 A 
ENDBRANCH  13  14
BRANCH  13  20
ATOM     20  C   UNL     1      29.972  23.700  15.831  0.00  0.00    +0.034 C 
ATOM     21  C   UNL     1      30.056  23.054  14.469  0.00  0.00    +0.008 C 
ATOM     22  C   UNL     1      31.268  23.728  15.052  0.00  0.00    +0.008 C 
ENDBRANCH  13  20
ENDBRANCH  12  13
ENDBRANCH   5  12
TORSDOF 5
ENDMDL
MODEL 7
REMARK VINA RESULT:      -6.1      2.894      6.159
REMARK  Name = ZINC001228612316
REMARK  5 active torsions:
REMARK  status: ('A' for Active; 'I' for Inactive)
REMARK    1  A    between atoms: C_2  and  C_4
REMARK    2  A    between atoms: C_8  and  O_9
REMARK    3  A    between atoms: O_9  and  C_10
REMARK    4  A    between atoms: C_10  and  C_11
REMARK    5  A    between atoms: C_10  and  C_17
REMARK                            x       y       z     vdW  Elec       q    Type
REMARK                         _______ _______ _______ _____ _____    ______ ____
ROOT
ATOM      1  C   UNL     1      31.592  23.722  12.851  0.00  0.00    +0.040 A 
ATOM      2  C   UNL     1      32.984  23.813  12.956  0.00  0.00    +0.013 A 
ATOM      3  C   UNL     1      33.643  23.236  14.043  0.00  0.00    +0.004 A 
ATOM      4  C   UNL     1      32.917  22.564  15.029  0.00  0.00    +0.046 A 
ATOM      5  C   UNL     1      31.528  22.470  14.937  0.00  0.00    +0.122 A 
ATOM      6  C   UNL     1      30.870  23.048  13.844  0.00  0.00    +0.058 A 
ENDROOT
BRANCH   1   8
ATOM      7  N   UNL     1      31.380  23.951  10.428  0.00  0.00    -0.325 N 
ATOM      8  C   UNL     1      30.939  24.338  11.665  0.00  0.00    +0.242 C 
ATOM      9  O   UNL     1      30.015  25.134  11.779  0.00  0.00    -0.270 OA
ATOM     10  H   UNL     1      30.852  24.301   9.638  0.00  0.00    +0.145 HD
ATOM     11  H   UNL     1      31.957  23.138  10.283  0.00  0.00    +0.145 HD
ENDBRANCH   1   8
BRANCH   5  12
ATOM     12  O   UNL     1      30.704  21.903  15.871  0.00  0.00    -0.484 OA
BRANCH  12  13
ATOM     13  C   UNL     1      29.867  22.759  16.666  0.00  0.00    +0.208 C 
BRANCH  13  14
ATOM     14  C   UNL     1      28.437  22.266  16.775  0.00  0.00    +0.011 A 
ATOM     15  C   UNL     1      28.049  20.960  16.465  0.00  0.00    +0.010 A 
ATOM     16  C   UNL     1      26.731  20.563  16.676  0.00  0.00    +0.020 A 
ATOM     17  C   UNL     1      25.839  21.487  17.195  0.00  0.00    +0.111 A 
ATOM     18  N   UNL     1      26.170  22.759  17.498  0.00  0.00    -0.263 NA
ATOM     19  C   UNL     1      27.455  23.116  17.285  0.00  0.00    +0.118 A 
ENDBRANCH  13  14
BRANCH  13  20
ATOM     20  C   UNL     1      30.427  22.838  18.083  0.00  0.00    +0.034 C 
ATOM     21  C   UNL     1      30.498  24.161  18.806  0.00  0.00    +0.008 C 
ATOM     22  C   UNL     1      31.768  23.460  18.407  0.00  0.00    +0.008 C 
ENDBRANCH  13  20
ENDBRANCH  12  13
ENDBRANCH   5  12
TORSDOF 5
ENDMDL
MODEL 8
REMARK VINA RESULT:      -6.1      2.143      6.506
REMARK  Name = ZINC001228612316
REMARK  5 active torsions:
REMARK  status: ('A' for Active; 'I' for Inactive)
REMARK    1  A    between atoms: C_2  and  C_4
REMARK    2  A    between atoms: C_8  and  O_9
REMARK    3  A    between atoms: O_9  and  C_10
REMARK    4  A    between atoms: C_10  and  C_11
REMARK    5  A    between atoms: C_10  and  C_17
REMARK                            x       y       z     vdW  Elec       q    Type
REMARK                         _______ _______ _______ _____ _____    ______ ____
ROOT
ATOM      1  C   UNL     1      33.298  23.597  19.330  0.00  0.00    +0.040 A 
ATOM      2  C   UNL     1      33.654  24.950  19.346  0.00  0.00    +0.013 A 
ATOM      3  C   UNL     1      32.697  25.928  19.075  0.00  0.00    +0.004 A 
ATOM      4  C   UNL     1      31.379  25.563  18.787  0.00  0.00    +0.046 A 
ATOM      5  C   UNL     1      31.013  24.217  18.764  0.00  0.00    +0.122 A 
ATOM      6  C   UNL     1      31.976  23.237  19.039  0.00  0.00    +0.058 A 
ENDROOT
BRANCH   1   8
ATOM      7  N   UNL     1      33.953  21.422  20.229  0.00  0.00    -0.325 N 
ATOM      8  C   UNL     1      34.351  22.593  19.643  0.00  0.00    +0.242 C 
ATOM      9  O   UNL     1      35.527  22.781  19.356  0.00  0.00    -0.270 OA
ATOM     10  H   UNL     1      34.667  20.712  20.335  0.00  0.00    +0.145 HD
ATOM     11  H   UNL     1      32.989  21.126  20.262  0.00  0.00    +0.145 HD
ENDBRANCH   1   8
BRANCH   5  12
ATOM     12  O   UNL     1      29.779  23.732  18.426  0.00  0.00    -0.484 OA
BRANCH  12  13
ATOM     13  C   UNL     1      29.666  22.850  17.297  0.00  0.00    +0.208 C 
BRANCH  13  14
ATOM     14  C   UNL     1      28.285  22.243  17.146  0.00  0.00    +0.011 A 
ATOM     15  C   UNL     1      28.066  20.888  16.885  0.00  0.00    +0.010 A 
ATOM     16  C   UNL     1      26.764  20.394  16.849  0.00  0.00    +0.020 A 
ATOM     17  C   UNL     1      25.718  21.273  17.078  0.00  0.00    +0.111 A 
ATOM     18  N   UNL     1      25.886  22.589  17.323  0.00  0.00    -0.263 NA
ATOM     19  C   UNL     1      27.158  23.040  17.355  0.00  0.00    +0.118 A 
ENDBRANCH  13  14
BRANCH  13  20
ATOM     20  C   UNL     1      29.962  23.627  16.019  0.00  0.00    +0.034 C 
ATOM     21  C   UNL     1      29.972  22.926  14.681  0.00  0.00    +0.008 C 
ATOM     22  C   UNL     1      31.253  23.480  15.243  0.00  0.00    +0.008 C 
ENDBRANCH  13  20
ENDBRANCH  12  13
ENDBRANCH   5  12
TORSDOF 5
ENDMDL
MODEL 9
REMARK VINA RESULT:      -6.0      3.602      5.181
REMARK  Name = ZINC001228612316
REMARK  5 active torsions:
REMARK  status: ('A' for Active; 'I' for Inactive)
REMARK    1  A    between atoms: C_2  and  C_4
REMARK    2  A    between atoms: C_8  and  O_9
REMARK    3  A    between atoms: O_9  and  C_10
REMARK    4  A    between atoms: C_10  and  C_11
REMARK    5  A    between atoms: C_10  and  C_17
REMARK                            x       y       z     vdW  Elec       q    Type
REMARK                         _______ _______ _______ _____ _____    ______ ____
ROOT
ATOM      1  C   UNL     1      29.265  22.212  16.543  0.00  0.00    +0.040 A 
ATOM      2  C   UNL     1      30.321  21.979  17.432  0.00  0.00    +0.013 A 
ATOM      3  C   UNL     1      31.628  21.883  16.955  0.00  0.00    +0.004 A 
ATOM      4  C   UNL     1      31.891  22.019  15.589  0.00  0.00    +0.046 A 
ATOM      5  C   UNL     1      30.847  22.248  14.693  0.00  0.00    +0.122 A 
ATOM      6  C   UNL     1      29.535  22.346  15.176  0.00  0.00    +0.058 A 
ENDROOT
BRANCH   1   8
ATOM      7  N   UNL     1      27.292  23.554  17.064  0.00  0.00    -0.325 N 
ATOM      8  C   UNL     1      27.891  22.324  17.103  0.00  0.00    +0.242 C 
ATOM      9  O   UNL     1      27.296  21.351  17.549  0.00  0.00    -0.270 OA
ATOM     10  H   UNL     1      26.321  23.585  17.352  0.00  0.00    +0.145 HD
ATOM     11  H   UNL     1      27.639  24.314  16.500  0.00  0.00    +0.145 HD
ENDBRANCH   1   8
BRANCH   5  12
ATOM     12  O   UNL     1      30.967  22.326  13.332  0.00  0.00    -0.484 OA
BRANCH  12  13
ATOM     13  C   UNL     1      31.542  23.510  12.755  0.00  0.00    +0.208 C 
BRANCH  13  14
ATOM     14  C   UNL     1      32.645  23.216  11.757  0.00  0.00    +0.011 A 
ATOM     15  C   UNL     1      32.496  23.380  10.377  0.00  0.00    +0.010 A 
ATOM     16  C   UNL     1      33.588  23.173   9.536  0.00  0.00    +0.020 A 
ATOM     17  C   UNL     1      34.798  22.809  10.104  0.00  0.00    +0.111 A 
ATOM     18  N   UNL     1      34.981  22.631  11.428  0.00  0.00    -0.263 NA
ATOM     19  C   UNL     1      33.907  22.840  12.219  0.00  0.00    +0.118 A 
ENDBRANCH  13  14
BRANCH  13  20
ATOM     20  C   UNL     1      30.458  24.287  12.015  0.00  0.00    +0.034 C 
ATOM     21  C   UNL     1      30.527  25.792  11.913  0.00  0.00    +0.008 C 
ATOM     22  C   UNL     1      29.432  25.148  12.719  0.00  0.00    +0.008 C 
ENDBRANCH  13  20
ENDBRANCH  12  13
ENDBRANCH   5  12
TORSDOF 5
ENDMDL
