MODEL 1
REMARK VINA RESULT:      -6.6      0.000      0.000
REMARK  Name = ZINC000870248439
REMARK  2 active torsions:
REMARK  status: ('A' for Active; 'I' for Inactive)
REMARK    1  A    between atoms: C_2  and  C_4
REMARK    2  A    between atoms: C_7  and  C_8
REMARK                            x       y       z     vdW  Elec       q    Type
REMARK                         _______ _______ _______ _____ _____    ______ ____
ROOT
ATOM      1  C   UNL     1      34.029  19.162  13.335  0.00  0.00    +0.247 C 
ATOM      2  O   UNL     1      34.500  18.089  13.708  0.00  0.00    -0.270 OA
ATOM      3  N   UNL     1      34.396  19.786  12.135  0.00  0.00    -0.297 N 
ATOM      4  C   UNL     1      33.896  21.078  11.659  0.00  0.00    +0.108 C 
ATOM      5  C   UNL     1      33.680  21.121  10.151  0.00  0.00    +0.026 C 
ATOM      6  C   UNL     1      34.894  20.623   9.337  0.00  0.00    -0.025 C 
ATOM      7  C   UNL     1      34.448  20.520   7.856  0.00  0.00    +0.017 C 
ATOM      8  C   UNL     1      35.533  20.074   6.886  0.00  0.00    +0.069 C 
ATOM      9  S   UNL     1      36.948  21.209   6.864  0.00  0.00    -0.161 S 
ATOM     10  C   UNL     1      37.298  21.284   8.642  0.00  0.00    +0.069 C 
ATOM     11  C   UNL     1      36.057  21.642   9.452  0.00  0.00    +0.017 C 
ATOM     12  C   UNL     1      35.271  19.224   9.890  0.00  0.00    +0.026 C 
ATOM     13  C   UNL     1      35.526  19.227  11.398  0.00  0.00    +0.108 C 
ENDROOT
BRANCH   1  17
ATOM     14  C   UNL     1      30.992  21.140  15.591  0.00  0.00    +0.037 A 
ATOM     15  C   UNL     1      32.317  21.191  16.036  0.00  0.00    +0.014 A 
ATOM     16  C   UNL     1      33.301  20.468  15.361  0.00  0.00    +0.014 A 
ATOM     17  C   UNL     1      32.981  19.775  14.189  0.00  0.00    +0.037 A 
ATOM     18  C   UNL     1      31.642  19.651  13.797  0.00  0.00    +0.014 A 
ATOM     19  C   UNL     1      30.645  20.326  14.506  0.00  0.00    +0.014 A 
BRANCH  14  21
ATOM     20  N   UNL     1      30.016  23.299  16.136  0.00  0.00    -0.325 N 
ATOM     21  C   UNL     1      29.932  21.940  16.256  0.00  0.00    +0.242 C 
ATOM     22  O   UNL     1      28.998  21.409  16.837  0.00  0.00    -0.270 OA
ATOM     23  H   UNL     1      29.225  23.826  16.486  0.00  0.00    +0.145 HD
ATOM     24  H   UNL     1      30.611  23.747  15.453  0.00  0.00    +0.145 HD
ENDBRANCH  14  21
ENDBRANCH   1  17
TORSDOF 2
ENDMDL
MODEL 2
REMARK VINA RESULT:      -6.5     13.507     16.140
REMARK  Name = ZINC000870248439
REMARK  2 active torsions:
REMARK  status: ('A' for Active; 'I' for Inactive)
REMARK    1  A    between atoms: C_2  and  C_4
REMARK    2  A    between atoms: C_7  and  C_8
REMARK                            x       y       z     vdW  Elec       q    Type
REMARK                         _______ _______ _______ _____ _____    ______ ____
ROOT
ATOM      1  C   UNL     1      21.181  30.171  17.659  0.00  0.00    +0.247 C 
ATOM      2  O   UNL     1      20.369  30.490  18.526  0.00  0.00    -0.270 OA
ATOM      3  N   UNL     1      22.021  31.091  17.017  0.00  0.00    -0.297 N 
ATOM      4  C   UNL     1      22.979  30.773  15.955  0.00  0.00    +0.108 C 
ATOM      5  C   UNL     1      24.273  31.571  16.053  0.00  0.00    +0.026 C 
ATOM      6  C   UNL     1      24.053  33.091  16.212  0.00  0.00    -0.025 C 
ATOM      7  C   UNL     1      25.432  33.730  16.517  0.00  0.00    +0.017 C 
ATOM      8  C   UNL     1      25.420  35.244  16.671  0.00  0.00    +0.069 C 
ATOM      9  S   UNL     1      24.842  36.086  15.172  0.00  0.00    -0.161 S 
ATOM     10  C   UNL     1      23.287  35.191  14.907  0.00  0.00    +0.069 C 
ATOM     11  C   UNL     1      23.495  33.681  14.891  0.00  0.00    +0.017 C 
ATOM     12  C   UNL     1      23.085  33.289  17.408  0.00  0.00    +0.026 C 
ATOM     13  C   UNL     1      21.778  32.512  17.254  0.00  0.00    +0.108 C 
ENDROOT
BRANCH   1  17
ATOM     14  C   UNL     1      21.777  26.073  16.620  0.00  0.00    +0.037 A 
ATOM     15  C   UNL     1      20.855  26.835  15.895  0.00  0.00    +0.014 A 
ATOM     16  C   UNL     1      20.582  28.146  16.287  0.00  0.00    +0.014 A 
ATOM     17  C   UNL     1      21.297  28.726  17.340  0.00  0.00    +0.037 A 
ATOM     18  C   UNL     1      22.152  27.936  18.120  0.00  0.00    +0.014 A 
ATOM     19  C   UNL     1      22.383  26.604  17.765  0.00  0.00    +0.014 A 
BRANCH  14  21
ATOM     20  N   UNL     1      21.960  24.392  14.874  0.00  0.00    -0.325 N 
ATOM     21  C   UNL     1      22.129  24.694  16.196  0.00  0.00    +0.242 C 
ATOM     22  O   UNL     1      22.598  23.882  16.979  0.00  0.00    -0.270 OA
ATOM     23  H   UNL     1      22.317  23.493  14.574  0.00  0.00    +0.145 HD
ATOM     24  H   UNL     1      21.831  25.103  14.168  0.00  0.00    +0.145 HD
ENDBRANCH  14  21
ENDBRANCH   1  17
TORSDOF 2
ENDMDL
MODEL 3
REMARK VINA RESULT:      -6.3      4.703      6.606
REMARK  Name = ZINC000870248439
REMARK  2 active torsions:
REMARK  status: ('A' for Active; 'I' for Inactive)
REMARK    1  A    between atoms: C_2  and  C_4
REMARK    2  A    between atoms: C_7  and  C_8
REMARK                            x       y       z     vdW  Elec       q    Type
REMARK                         _______ _______ _______ _____ _____    ______ ____
ROOT
ATOM      1  C   UNL     1      34.695  19.245  14.691  0.00  0.00    +0.247 C 
ATOM      2  O   UNL     1      35.148  19.637  13.617  0.00  0.00    -0.270 OA
ATOM      3  N   UNL     1      35.343  18.302  15.500  0.00  0.00    -0.297 N 
ATOM      4  C   UNL     1      34.834  17.774  16.768  0.00  0.00    +0.108 C 
ATOM      5  C   UNL     1      35.924  17.553  17.810  0.00  0.00    +0.026 C 
ATOM      6  C   UNL     1      37.133  16.752  17.281  0.00  0.00    -0.025 C 
ATOM      7  C   UNL     1      38.234  16.801  18.371  0.00  0.00    +0.017 C 
ATOM      8  C   UNL     1      39.502  16.027  18.040  0.00  0.00    +0.069 C 
ATOM      9  S   UNL     1      39.185  14.260  17.784  0.00  0.00    -0.161 S 
ATOM     10  C   UNL     1      37.848  14.370  16.563  0.00  0.00    +0.069 C 
ATOM     11  C   UNL     1      36.718  15.277  17.037  0.00  0.00    +0.017 C 
ATOM     12  C   UNL     1      37.616  17.456  15.987  0.00  0.00    +0.026 C 
ATOM     13  C   UNL     1      36.508  17.618  14.946  0.00  0.00    +0.108 C 
ENDROOT
BRANCH   1  17
ATOM     14  C   UNL     1      31.088  21.230  15.825  0.00  0.00    +0.037 A 
ATOM     15  C   UNL     1      32.205  21.308  16.664  0.00  0.00    +0.014 A 
ATOM     16  C   UNL     1      33.356  20.584  16.351  0.00  0.00    +0.014 A 
ATOM     17  C   UNL     1      33.427  19.861  15.155  0.00  0.00    +0.037 A 
ATOM     18  C   UNL     1      32.281  19.711  14.364  0.00  0.00    +0.014 A 
ATOM     19  C   UNL     1      31.107  20.388  14.705  0.00  0.00    +0.014 A 
BRANCH  14  21
ATOM     20  N   UNL     1      29.831  23.296  15.591  0.00  0.00    -0.325 N 
ATOM     21  C   UNL     1      29.869  22.029  16.101  0.00  0.00    +0.242 C 
ATOM     22  O   UNL     1      28.919  21.560  16.710  0.00  0.00    -0.270 OA
ATOM     23  H   UNL     1      28.949  23.785  15.680  0.00  0.00    +0.145 HD
ATOM     24  H   UNL     1      30.470  23.611  14.875  0.00  0.00    +0.145 HD
ENDBRANCH  14  21
ENDBRANCH   1  17
TORSDOF 2
ENDMDL
MODEL 4
REMARK VINA RESULT:      -6.2      5.212      6.526
REMARK  Name = ZINC000870248439
REMARK  2 active torsions:
REMARK  status: ('A' for Active; 'I' for Inactive)
REMARK    1  A    between atoms: C_2  and  C_4
REMARK    2  A    between atoms: C_7  and  C_8
REMARK                            x       y       z     vdW  Elec       q    Type
REMARK                         _______ _______ _______ _____ _____    ______ ____
ROOT
ATOM      1  C   UNL     1      33.696  20.241  17.299  0.00  0.00    +0.247 C 
ATOM      2  O   UNL     1      33.532  20.542  18.481  0.00  0.00    -0.270 OA
ATOM      3  N   UNL     1      34.481  19.157  16.885  0.00  0.00    -0.297 N 
ATOM      4  C   UNL     1      34.739  18.774  15.495  0.00  0.00    +0.108 C 
ATOM      5  C   UNL     1      34.784  17.266  15.283  0.00  0.00    +0.026 C 
ATOM      6  C   UNL     1      35.705  16.528  16.278  0.00  0.00    -0.025 C 
ATOM      7  C   UNL     1      35.476  15.008  16.082  0.00  0.00    +0.017 C 
ATOM      8  C   UNL     1      36.334  14.108  16.961  0.00  0.00    +0.069 C 
ATOM      9  S   UNL     1      38.108  14.350  16.671  0.00  0.00    -0.161 S 
ATOM     10  C   UNL     1      38.200  16.151  16.857  0.00  0.00    +0.069 C 
ATOM     11  C   UNL     1      37.187  16.867  15.971  0.00  0.00    +0.017 C 
ATOM     12  C   UNL     1      35.278  16.963  17.704  0.00  0.00    +0.026 C 
ATOM     13  C   UNL     1      35.291  18.480  17.895  0.00  0.00    +0.108 C 
ENDROOT
BRANCH   1  17
ATOM     14  C   UNL     1      31.612  22.787  14.579  0.00  0.00    +0.037 A 
ATOM     15  C   UNL     1      30.904  21.795  15.265  0.00  0.00    +0.014 A 
ATOM     16  C   UNL     1      31.591  20.896  16.082  0.00  0.00    +0.014 A 
ATOM     17  C   UNL     1      32.967  21.047  16.289  0.00  0.00    +0.037 A 
ATOM     18  C   UNL     1      33.685  21.981  15.533  0.00  0.00    +0.014 A 
ATOM     19  C   UNL     1      33.008  22.846  14.668  0.00  0.00    +0.014 A 
BRANCH  14  21
ATOM     20  N   UNL     1      29.787  24.366  14.283  0.00  0.00    -0.325 N 
ATOM     21  C   UNL     1      30.904  23.791  13.745  0.00  0.00    +0.242 C 
ATOM     22  O   UNL     1      31.328  24.129  12.650  0.00  0.00    -0.270 OA
ATOM     23  H   UNL     1      29.385  25.133  13.760  0.00  0.00    +0.145 HD
ATOM     24  H   UNL     1      29.568  24.306  15.268  0.00  0.00    +0.145 HD
ENDBRANCH  14  21
ENDBRANCH   1  17
TORSDOF 2
ENDMDL
MODEL 5
REMARK VINA RESULT:      -6.1      4.672      5.560
REMARK  Name = ZINC000870248439
REMARK  2 active torsions:
REMARK  status: ('A' for Active; 'I' for Inactive)
REMARK    1  A    between atoms: C_2  and  C_4
REMARK    2  A    between atoms: C_7  and  C_8
REMARK                            x       y       z     vdW  Elec       q    Type
REMARK                         _______ _______ _______ _____ _____    ______ ____
ROOT
ATOM      1  C   UNL     1      33.049  24.324  11.104  0.00  0.00    +0.247 C 
ATOM      2  O   UNL     1      32.474  24.435  10.022  0.00  0.00    -0.270 OA
ATOM      3  N   UNL     1      34.331  24.833  11.348  0.00  0.00    -0.297 N 
ATOM      4  C   UNL     1      35.076  24.699  12.602  0.00  0.00    +0.108 C 
ATOM      5  C   UNL     1      35.886  25.940  12.957  0.00  0.00    +0.026 C 
ATOM      6  C   UNL     1      36.769  26.455  11.800  0.00  0.00    -0.025 C 
ATOM      7  C   UNL     1      37.350  27.825  12.234  0.00  0.00    +0.017 C 
ATOM      8  C   UNL     1      38.285  28.477  11.225  0.00  0.00    +0.069 C 
ATOM      9  S   UNL     1      39.737  27.452  10.866  0.00  0.00    -0.161 S 
ATOM     10  C   UNL     1      38.908  25.892  10.455  0.00  0.00    +0.069 C 
ATOM     11  C   UNL     1      37.932  25.462  11.544  0.00  0.00    +0.017 C 
ATOM     12  C   UNL     1      35.847  26.623  10.563  0.00  0.00    +0.026 C 
ATOM     13  C   UNL     1      35.086  25.346  10.208  0.00  0.00    +0.108 C 
ENDROOT
BRANCH   1  17
ATOM     14  C   UNL     1      31.076  22.563  14.456  0.00  0.00    +0.037 A 
ATOM     15  C   UNL     1      31.910  21.771  13.659  0.00  0.00    +0.014 A 
ATOM     16  C   UNL     1      32.482  22.311  12.507  0.00  0.00    +0.014 A 
ATOM     17  C   UNL     1      32.300  23.665  12.203  0.00  0.00    +0.037 A 
ATOM     18  C   UNL     1      31.395  24.430  12.949  0.00  0.00    +0.014 A 
ATOM     19  C   UNL     1      30.773  23.875  14.070  0.00  0.00    +0.014 A 
BRANCH  14  21
ATOM     20  N   UNL     1      29.364  22.644  16.179  0.00  0.00    -0.325 N 
ATOM     21  C   UNL     1      30.495  22.034  15.715  0.00  0.00    +0.242 C 
ATOM     22  O   UNL     1      30.974  21.064  16.284  0.00  0.00    -0.270 OA
ATOM     23  H   UNL     1      28.909  22.199  16.967  0.00  0.00    +0.145 HD
ATOM     24  H   UNL     1      28.806  23.259  15.604  0.00  0.00    +0.145 HD
ENDBRANCH  14  21
ENDBRANCH   1  17
TORSDOF 2
ENDMDL
MODEL 6
REMARK VINA RESULT:      -6.1      2.673      3.581
REMARK  Name = ZINC000870248439
REMARK  2 active torsions:
REMARK  status: ('A' for Active; 'I' for Inactive)
REMARK    1  A    between atoms: C_2  and  C_4
REMARK    2  A    between atoms: C_7  and  C_8
REMARK                            x       y       z     vdW  Elec       q    Type
REMARK                         _______ _______ _______ _____ _____    ______ ____
ROOT
ATOM      1  C   UNL     1      35.313  23.041  10.933  0.00  0.00    +0.247 C 
ATOM      2  O   UNL     1      36.259  23.783  11.196  0.00  0.00    -0.270 OA
ATOM      3  N   UNL     1      35.372  22.040   9.955  0.00  0.00    -0.297 N 
ATOM      4  C   UNL     1      34.269  21.154   9.576  0.00  0.00    +0.108 C 
ATOM      5  C   UNL     1      34.719  19.733   9.261  0.00  0.00    +0.026 C 
ATOM      6  C   UNL     1      35.899  19.663   8.267  0.00  0.00    -0.025 C 
ATOM      7  C   UNL     1      36.378  18.190   8.219  0.00  0.00    +0.017 C 
ATOM      8  C   UNL     1      37.524  17.916   7.255  0.00  0.00    +0.069 C 
ATOM      9  S   UNL     1      37.093  18.317   5.540  0.00  0.00    -0.161 S 
ATOM     10  C   UNL     1      36.490  20.012   5.771  0.00  0.00    +0.069 C 
ATOM     11  C   UNL     1      35.421  20.093   6.855  0.00  0.00    +0.017 C 
ATOM     12  C   UNL     1      37.018  20.582   8.822  0.00  0.00    +0.026 C 
ATOM     13  C   UNL     1      36.543  22.012   9.082  0.00  0.00    +0.108 C 
ENDROOT
BRANCH   1  17
ATOM     14  C   UNL     1      31.691  23.226  13.186  0.00  0.00    +0.037 A 
ATOM     15  C   UNL     1      31.817  24.001  12.027  0.00  0.00    +0.014 A 
ATOM     16  C   UNL     1      33.030  24.023  11.339  0.00  0.00    +0.014 A 
ATOM     17  C   UNL     1      34.083  23.198  11.749  0.00  0.00    +0.037 A 
ATOM     18  C   UNL     1      33.987  22.494  12.956  0.00  0.00    +0.014 A 
ATOM     19  C   UNL     1      32.792  22.517  13.681  0.00  0.00    +0.014 A 
BRANCH  14  21
ATOM     20  N   UNL     1      29.826  24.321  14.296  0.00  0.00    -0.325 N 
ATOM     21  C   UNL     1      30.398  23.141  13.910  0.00  0.00    +0.242 C 
ATOM     22  O   UNL     1      29.842  22.071  14.106  0.00  0.00    -0.270 OA
ATOM     23  H   UNL     1      28.891  24.259  14.678  0.00  0.00    +0.145 HD
ATOM     24  H   UNL     1      30.120  25.213  13.923  0.00  0.00    +0.145 HD
ENDBRANCH  14  21
ENDBRANCH   1  17
TORSDOF 2
ENDMDL
MODEL 7
REMARK VINA RESULT:      -6.0      3.685      5.144
REMARK  Name = ZINC000870248439
REMARK  2 active torsions:
REMARK  status: ('A' for Active; 'I' for Inactive)
REMARK    1  A    between atoms: C_2  and  C_4
REMARK    2  A    between atoms: C_7  and  C_8
REMARK                            x       y       z     vdW  Elec       q    Type
REMARK                         _______ _______ _______ _____ _____    ______ ____
ROOT
ATOM      1  C   UNL     1      32.210  21.749  15.921  0.00  0.00    +0.247 C 
ATOM      2  O   UNL     1      31.031  21.487  16.156  0.00  0.00    -0.270 OA
ATOM      3  N   UNL     1      32.694  22.023  14.635  0.00  0.00    -0.297 N 
ATOM      4  C   UNL     1      34.091  22.305  14.293  0.00  0.00    +0.108 C 
ATOM      5  C   UNL     1      34.243  23.365  13.209  0.00  0.00    +0.026 C 
ATOM      6  C   UNL     1      33.373  23.104  11.961  0.00  0.00    -0.025 C 
ATOM      7  C   UNL     1      33.467  24.360  11.059  0.00  0.00    +0.017 C 
ATOM      8  C   UNL     1      32.694  24.273   9.750  0.00  0.00    +0.069 C 
ATOM      9  S   UNL     1      33.265  22.908   8.702  0.00  0.00    -0.161 S 
ATOM     10  C   UNL     1      33.170  21.551   9.900  0.00  0.00    +0.069 C 
ATOM     11  C   UNL     1      33.919  21.875  11.188  0.00  0.00    +0.017 C 
ATOM     12  C   UNL     1      31.917  22.897  12.456  0.00  0.00    +0.026 C 
ATOM     13  C   UNL     1      31.795  21.794  13.508  0.00  0.00    +0.108 C 
ENDROOT
BRANCH   1  17
ATOM     14  C   UNL     1      35.077  22.000  19.075  0.00  0.00    +0.037 A 
ATOM     15  C   UNL     1      34.459  20.773  18.808  0.00  0.00    +0.014 A 
ATOM     16  C   UNL     1      33.451  20.702  17.846  0.00  0.00    +0.014 A 
ATOM     17  C   UNL     1      33.129  21.831  17.084  0.00  0.00    +0.037 A 
ATOM     18  C   UNL     1      33.683  23.074  17.413  0.00  0.00    +0.014 A 
ATOM     19  C   UNL     1      34.651  23.160  18.417  0.00  0.00    +0.014 A 
BRANCH  14  21
ATOM     20  N   UNL     1      35.972  22.870  21.160  0.00  0.00    -0.325 N 
ATOM     21  C   UNL     1      36.189  22.097  20.054  0.00  0.00    +0.242 C 
ATOM     22  O   UNL     1      37.229  21.474  19.908  0.00  0.00    -0.270 OA
ATOM     23  H   UNL     1      36.686  22.831  21.877  0.00  0.00    +0.145 HD
ATOM     24  H   UNL     1      35.049  23.175  21.435  0.00  0.00    +0.145 HD
ENDBRANCH  14  21
ENDBRANCH   1  17
TORSDOF 2
ENDMDL
MODEL 8
REMARK VINA RESULT:      -5.9      4.547      7.268
REMARK  Name = ZINC000870248439
REMARK  2 active torsions:
REMARK  status: ('A' for Active; 'I' for Inactive)
REMARK    1  A    between atoms: C_2  and  C_4
REMARK    2  A    between atoms: C_7  and  C_8
REMARK                            x       y       z     vdW  Elec       q    Type
REMARK                         _______ _______ _______ _____ _____    ______ ____
ROOT
ATOM      1  C   UNL     1      34.503  17.475  14.122  0.00  0.00    +0.247 C 
ATOM      2  O   UNL     1      34.200  16.806  13.134  0.00  0.00    -0.270 OA
ATOM      3  N   UNL     1      33.896  18.698  14.437  0.00  0.00    -0.297 N 
ATOM      4  C   UNL     1      34.240  19.551  15.577  0.00  0.00    +0.108 C 
ATOM      5  C   UNL     1      33.030  20.223  16.213  0.00  0.00    +0.026 C 
ATOM      6  C   UNL     1      32.114  20.939  15.197  0.00  0.00    -0.025 C 
ATOM      7  C   UNL     1      30.834  21.376  15.954  0.00  0.00    +0.017 C 
ATOM      8  C   UNL     1      29.818  22.138  15.115  0.00  0.00    +0.069 C 
ATOM      9  S   UNL     1      30.499  23.675  14.435  0.00  0.00    -0.161 S 
ATOM     10  C   UNL     1      32.002  23.019  13.660  0.00  0.00    +0.069 C 
ATOM     11  C   UNL     1      32.832  22.195  14.638  0.00  0.00    +0.017 C 
ATOM     12  C   UNL     1      31.768  19.909  14.091  0.00  0.00    +0.026 C 
ATOM     13  C   UNL     1      33.006  19.290  13.442  0.00  0.00    +0.108 C 
ENDROOT
BRANCH   1  17
ATOM     14  C   UNL     1      37.343  16.025  16.962  0.00  0.00    +0.037 A 
ATOM     15  C   UNL     1      37.784  16.816  15.895  0.00  0.00    +0.014 A 
ATOM     16  C   UNL     1      36.881  17.213  14.909  0.00  0.00    +0.014 A 
ATOM     17  C   UNL     1      35.522  16.904  15.038  0.00  0.00    +0.037 A 
ATOM     18  C   UNL     1      35.098  16.040  16.055  0.00  0.00    +0.014 A 
ATOM     19  C   UNL     1      36.012  15.591  17.012  0.00  0.00    +0.014 A 
BRANCH  14  21
ATOM     20  N   UNL     1      38.253  16.400  19.184  0.00  0.00    -0.325 N 
ATOM     21  C   UNL     1      38.268  15.631  18.054  0.00  0.00    +0.242 C 
ATOM     22  O   UNL     1      38.971  14.636  17.970  0.00  0.00    -0.270 OA
ATOM     23  H   UNL     1      38.795  16.052  19.966  0.00  0.00    +0.145 HD
ATOM     24  H   UNL     1      37.509  17.053  19.385  0.00  0.00    +0.145 HD
ENDBRANCH  14  21
ENDBRANCH   1  17
TORSDOF 2
ENDMDL
MODEL 9
REMARK VINA RESULT:      -5.8      2.894      3.929
REMARK  Name = ZINC000870248439
REMARK  2 active torsions:
REMARK  status: ('A' for Active; 'I' for Inactive)
REMARK    1  A    between atoms: C_2  and  C_4
REMARK    2  A    between atoms: C_7  and  C_8
REMARK                            x       y       z     vdW  Elec       q    Type
REMARK                         _______ _______ _______ _____ _____    ______ ____
ROOT
ATOM      1  C   UNL     1      33.603  21.741   9.738  0.00  0.00    +0.247 C 
ATOM      2  O   UNL     1      32.932  20.900   9.140  0.00  0.00    -0.270 OA
ATOM      3  N   UNL     1      34.841  22.207   9.274  0.00  0.00    -0.297 N 
ATOM      4  C   UNL     1      35.696  23.177   9.961  0.00  0.00    +0.108 C 
ATOM      5  C   UNL     1      36.398  24.140   9.012  0.00  0.00    +0.026 C 
ATOM      6  C   UNL     1      37.124  23.439   7.843  0.00  0.00    -0.025 C 
ATOM      7  C   UNL     1      37.592  24.541   6.860  0.00  0.00    +0.017 C 
ATOM      8  C   UNL     1      38.367  24.038   5.649  0.00  0.00    +0.069 C 
ATOM      9  S   UNL     1      39.884  23.161   6.118  0.00  0.00    -0.161 S 
ATOM     10  C   UNL     1      39.192  21.978   7.305  0.00  0.00    +0.069 C 
ATOM     11  C   UNL     1      38.360  22.670   8.379  0.00  0.00    +0.017 C 
ATOM     12  C   UNL     1      36.091  22.504   7.161  0.00  0.00    +0.026 C 
ATOM     13  C   UNL     1      35.442  21.520   8.135  0.00  0.00    +0.108 C 
ENDROOT
BRANCH   1  17
ATOM     14  C   UNL     1      31.698  23.206  13.267  0.00  0.00    +0.037 A 
ATOM     15  C   UNL     1      31.710  24.001  12.115  0.00  0.00    +0.014 A 
ATOM     16  C   UNL     1      32.413  23.574  10.988  0.00  0.00    +0.014 A 
ATOM     17  C   UNL     1      33.021  22.314  10.977  0.00  0.00    +0.037 A 
ATOM     18  C   UNL     1      33.084  21.561  12.156  0.00  0.00    +0.014 A 
ATOM     19  C   UNL     1      32.432  22.014  13.306  0.00  0.00    +0.014 A 
BRANCH  14  21
ATOM     20  N   UNL     1      29.818  24.392  14.250  0.00  0.00    -0.325 N 
ATOM     21  C   UNL     1      30.917  23.608  14.463  0.00  0.00    +0.242 C 
ATOM     22  O   UNL     1      31.208  23.212  15.582  0.00  0.00    -0.270 OA
ATOM     23  H   UNL     1      29.226  24.556  15.054  0.00  0.00    +0.145 HD
ATOM     24  H   UNL     1      29.407  24.511  13.334  0.00  0.00    +0.145 HD
ENDBRANCH  14  21
ENDBRANCH   1  17
TORSDOF 2
ENDMDL
