MODEL 1
REMARK VINA RESULT:      -6.7      0.000      0.000
REMARK  Name = ZINC000435351830
REMARK  5 active torsions:
REMARK  status: ('A' for Active; 'I' for Inactive)
REMARK    1  A    between atoms: C_2  and  C_3
REMARK    2  A    between atoms: C_7  and  C_8
REMARK    3  A    between atoms: C_8  and  C_9
REMARK    4  A    between atoms: N_11  and  C_12
REMARK    5  A    between atoms: C_12  and  C_13
REMARK                            x       y       z     vdW  Elec       q    Type
REMARK                         _______ _______ _______ _____ _____    ______ ____
ROOT
ATOM      1  C   UNL     1      34.143  18.292  14.860  0.00  0.00    +0.224 C 
ATOM      2  O   UNL     1      34.990  18.711  14.079  0.00  0.00    -0.275 OA
ATOM      3  N   UNL     1      33.388  17.167  14.656  0.00  0.00    -0.309 N 
ATOM      4  H   UNL     1      32.734  16.865  15.364  0.00  0.00    +0.149 HD
ENDROOT
BRANCH   1   5
ATOM      5  C   UNL     1      33.821  19.050  16.123  0.00  0.00    +0.072 C 
ATOM      6  C   UNL     1      34.249  18.453  17.458  0.00  0.00    +0.022 C 
ATOM      7  C   UNL     1      35.006  19.619  16.913  0.00  0.00    +0.022 C 
BRANCH   5  12
ATOM      8  C   UNL     1      31.458  21.798  14.863  0.00  0.00    +0.052 A 
ATOM      9  C   UNL     1      30.509  21.866  15.883  0.00  0.00    +0.019 A 
ATOM     10  C   UNL     1      30.588  20.986  16.963  0.00  0.00    +0.002 A 
ATOM     11  C   UNL     1      31.628  20.055  17.037  0.00  0.00    +0.005 A 
ATOM     12  C   UNL     1      32.617  19.986  16.040  0.00  0.00    -0.031 A 
ATOM     13  C   UNL     1      32.488  20.855  14.940  0.00  0.00    +0.023 A 
BRANCH   8  15
ATOM     14  N   UNL     1      31.376  23.437  12.856  0.00  0.00    -0.191 NA
ATOM     15  C   UNL     1      31.406  22.706  13.759  0.00  0.00    +0.099 C 
ENDBRANCH   8  15
ENDBRANCH   5  12
ENDBRANCH   1   5
BRANCH   3  16
ATOM     16  C   UNL     1      33.468  16.413  13.424  0.00  0.00    +0.159 C 
BRANCH  16  17
ATOM     17  C   UNL     1      32.599  15.175  13.424  0.00  0.00    +0.058 A 
ATOM     18  C   UNL     1      31.725  14.929  14.486  0.00  0.00    +0.028 A 
ATOM     19  C   UNL     1      30.953  13.768  14.476  0.00  0.00    +0.042 A 
ATOM     20  C   UNL     1      31.075  12.897  13.408  0.00  0.00    +0.141 A 
ATOM     21  F   UNL     1      30.354  11.769  13.368  0.00  0.00    -0.204 F 
ATOM     22  C   UNL     1      31.952  13.210  12.385  0.00  0.00    +0.149 A 
ATOM     23  N   UNL     1      32.714  14.331  12.363  0.00  0.00    -0.255 NA
ENDBRANCH  16  17
ENDBRANCH   3  16
TORSDOF 5
ENDMDL
MODEL 2
REMARK VINA RESULT:      -6.4      1.235      1.778
REMARK  Name = ZINC000435351830
REMARK  5 active torsions:
REMARK  status: ('A' for Active; 'I' for Inactive)
REMARK    1  A    between atoms: C_2  and  C_3
REMARK    2  A    between atoms: C_7  and  C_8
REMARK    3  A    between atoms: C_8  and  C_9
REMARK    4  A    between atoms: N_11  and  C_12
REMARK    5  A    between atoms: C_12  and  C_13
REMARK                            x       y       z     vdW  Elec       q    Type
REMARK                         _______ _______ _______ _____ _____    ______ ____
ROOT
ATOM      1  C   UNL     1      34.423  17.902  14.763  0.00  0.00    +0.224 C 
ATOM      2  O   UNL     1      35.580  17.841  14.362  0.00  0.00    -0.275 OA
ATOM      3  N   UNL     1      33.405  17.098  14.320  0.00  0.00    -0.309 N 
ATOM      4  H   UNL     1      32.484  17.185  14.724  0.00  0.00    +0.149 HD
ENDROOT
BRANCH   1   5
ATOM      5  C   UNL     1      34.012  18.947  15.768  0.00  0.00    +0.072 C 
ATOM      6  C   UNL     1      34.001  18.571  17.245  0.00  0.00    +0.022 C 
ATOM      7  C   UNL     1      35.096  19.448  16.732  0.00  0.00    +0.022 C 
BRANCH   5  12
ATOM      8  C   UNL     1      31.209  21.564  15.640  0.00  0.00    +0.052 A 
ATOM      9  C   UNL     1      31.235  21.964  14.304  0.00  0.00    +0.019 A 
ATOM     10  C   UNL     1      32.195  21.436  13.441  0.00  0.00    +0.002 A 
ATOM     11  C   UNL     1      33.114  20.490  13.905  0.00  0.00    +0.005 A 
ATOM     12  C   UNL     1      33.090  20.045  15.239  0.00  0.00    -0.031 A 
ATOM     13  C   UNL     1      32.139  20.626  16.099  0.00  0.00    +0.023 A 
BRANCH   8  15
ATOM     14  N   UNL     1      29.406  22.482  17.262  0.00  0.00    -0.191 NA
ATOM     15  C   UNL     1      30.218  22.078  16.535  0.00  0.00    +0.099 C 
ENDBRANCH   8  15
ENDBRANCH   5  12
ENDBRANCH   1   5
BRANCH   3  16
ATOM     16  C   UNL     1      33.601  16.147  13.247  0.00  0.00    +0.159 C 
BRANCH  16  17
ATOM     17  C   UNL     1      32.659  14.967  13.316  0.00  0.00    +0.058 A 
ATOM     18  C   UNL     1      31.747  14.855  14.369  0.00  0.00    +0.028 A 
ATOM     19  C   UNL     1      30.906  13.745  14.425  0.00  0.00    +0.042 A 
ATOM     20  C   UNL     1      30.999  12.789  13.428  0.00  0.00    +0.141 A 
ATOM     21  F   UNL     1      30.211  11.706  13.453  0.00  0.00    -0.204 F 
ATOM     22  C   UNL     1      31.916  12.971  12.410  0.00  0.00    +0.149 A 
ATOM     23  N   UNL     1      32.745  14.039  12.325  0.00  0.00    -0.255 NA
ENDBRANCH  16  17
ENDBRANCH   3  16
TORSDOF 5
ENDMDL
MODEL 3
REMARK VINA RESULT:      -6.2      2.343      3.734
REMARK  Name = ZINC000435351830
REMARK  5 active torsions:
REMARK  status: ('A' for Active; 'I' for Inactive)
REMARK    1  A    between atoms: C_2  and  C_3
REMARK    2  A    between atoms: C_7  and  C_8
REMARK    3  A    between atoms: C_8  and  C_9
REMARK    4  A    between atoms: N_11  and  C_12
REMARK    5  A    between atoms: C_12  and  C_13
REMARK                            x       y       z     vdW  Elec       q    Type
REMARK                         _______ _______ _______ _____ _____    ______ ____
ROOT
ATOM      1  C   UNL     1      32.930  19.613  14.837  0.00  0.00    +0.224 C 
ATOM      2  O   UNL     1      32.856  20.245  13.788  0.00  0.00    -0.275 OA
ATOM      3  N   UNL     1      33.314  18.301  14.927  0.00  0.00    -0.309 N 
ATOM      4  H   UNL     1      33.384  17.859  15.832  0.00  0.00    +0.149 HD
ENDROOT
BRANCH   1   5
ATOM      5  C   UNL     1      32.529  20.247  16.145  0.00  0.00    +0.072 C 
ATOM      6  C   UNL     1      31.479  21.352  16.126  0.00  0.00    +0.022 C 
ATOM      7  C   UNL     1      31.094  19.998  16.625  0.00  0.00    +0.022 C 
BRANCH   5  12
ATOM      8  C   UNL     1      35.557  21.184  18.306  0.00  0.00    +0.052 A 
ATOM      9  C   UNL     1      35.657  20.093  19.169  0.00  0.00    +0.019 A 
ATOM     10  C   UNL     1      34.714  19.067  19.102  0.00  0.00    +0.002 A 
ATOM     11  C   UNL     1      33.685  19.119  18.156  0.00  0.00    +0.005 A 
ATOM     12  C   UNL     1      33.579  20.191  17.253  0.00  0.00    -0.031 A 
ATOM     13  C   UNL     1      34.518  21.233  17.372  0.00  0.00    +0.023 A 
BRANCH   8  15
ATOM     14  N   UNL     1      37.306  23.098  18.372  0.00  0.00    -0.191 NA
ATOM     15  C   UNL     1      36.527  22.235  18.346  0.00  0.00    +0.099 C 
ENDBRANCH   8  15
ENDBRANCH   5  12
ENDBRANCH   1   5
BRANCH   3  16
ATOM     16  C   UNL     1      33.584  17.507  13.748  0.00  0.00    +0.159 C 
BRANCH  16  17
ATOM     17  C   UNL     1      32.698  16.287  13.635  0.00  0.00    +0.058 A 
ATOM     18  C   UNL     1      32.191  15.899  12.392  0.00  0.00    +0.028 A 
ATOM     19  C   UNL     1      31.355  14.785  12.317  0.00  0.00    +0.042 A 
ATOM     20  C   UNL     1      31.059  14.095  13.479  0.00  0.00    +0.141 A 
ATOM     21  F   UNL     1      30.255  13.025  13.446  0.00  0.00    -0.204 F 
ATOM     22  C   UNL     1      31.607  14.529  14.673  0.00  0.00    +0.149 A 
ATOM     23  N   UNL     1      32.424  15.605  14.780  0.00  0.00    -0.255 NA
ENDBRANCH  16  17
ENDBRANCH   3  16
TORSDOF 5
ENDMDL
MODEL 4
REMARK VINA RESULT:      -6.2      5.598      9.277
REMARK  Name = ZINC000435351830
REMARK  5 active torsions:
REMARK  status: ('A' for Active; 'I' for Inactive)
REMARK    1  A    between atoms: C_2  and  C_3
REMARK    2  A    between atoms: C_7  and  C_8
REMARK    3  A    between atoms: C_8  and  C_9
REMARK    4  A    between atoms: N_11  and  C_12
REMARK    5  A    between atoms: C_12  and  C_13
REMARK                            x       y       z     vdW  Elec       q    Type
REMARK                         _______ _______ _______ _____ _____    ______ ____
ROOT
ATOM      1  C   UNL     1      33.325  22.682  15.189  0.00  0.00    +0.224 C 
ATOM      2  O   UNL     1      34.155  22.386  14.337  0.00  0.00    -0.275 OA
ATOM      3  N   UNL     1      33.315  23.861  15.887  0.00  0.00    -0.309 N 
ATOM      4  H   UNL     1      32.576  24.047  16.550  0.00  0.00    +0.149 HD
ENDROOT
BRANCH   1   5
ATOM      5  C   UNL     1      32.248  21.704  15.584  0.00  0.00    +0.072 C 
ATOM      6  C   UNL     1      30.955  22.248  16.180  0.00  0.00    +0.022 C 
ATOM      7  C   UNL     1      30.945  21.742  14.775  0.00  0.00    +0.022 C 
BRANCH   5  12
ATOM      8  C   UNL     1      33.767  18.784  17.555  0.00  0.00    +0.052 A 
ATOM      9  C   UNL     1      33.795  17.764  16.603  0.00  0.00    +0.019 A 
ATOM     10  C   UNL     1      33.271  17.989  15.330  0.00  0.00    +0.002 A 
ATOM     11  C   UNL     1      32.742  19.240  14.999  0.00  0.00    +0.005 A 
ATOM     12  C   UNL     1      32.730  20.296  15.927  0.00  0.00    -0.031 A 
ATOM     13  C   UNL     1      33.225  20.028  17.218  0.00  0.00    +0.023 A 
BRANCH   8  15
ATOM     14  N   UNL     1      34.782  18.416  19.912  0.00  0.00    -0.191 NA
ATOM     15  C   UNL     1      34.320  18.578  18.859  0.00  0.00    +0.099 C 
ENDBRANCH   8  15
ENDBRANCH   5  12
ENDBRANCH   1   5
BRANCH   3  16
ATOM     16  C   UNL     1      34.368  24.841  15.736  0.00  0.00    +0.159 C 
BRANCH  16  17
ATOM     17  C   UNL     1      34.620  25.646  16.991  0.00  0.00    +0.058 A 
ATOM     18  C   UNL     1      33.689  25.634  18.033  0.00  0.00    +0.028 A 
ATOM     19  C   UNL     1      33.931  26.404  19.169  0.00  0.00    +0.042 A 
ATOM     20  C   UNL     1      35.092  27.155  19.229  0.00  0.00    +0.141 A 
ATOM     21  F   UNL     1      35.354  27.913  20.302  0.00  0.00    -0.204 F 
ATOM     22  C   UNL     1      35.974  27.110  18.165  0.00  0.00    +0.149 A 
ATOM     23  N   UNL     1      35.770  26.370  17.049  0.00  0.00    -0.255 NA
ENDBRANCH  16  17
ENDBRANCH   3  16
TORSDOF 5
ENDMDL
MODEL 5
REMARK VINA RESULT:      -6.1      2.139      4.099
REMARK  Name = ZINC000435351830
REMARK  5 active torsions:
REMARK  status: ('A' for Active; 'I' for Inactive)
REMARK    1  A    between atoms: C_2  and  C_3
REMARK    2  A    between atoms: C_7  and  C_8
REMARK    3  A    between atoms: C_8  and  C_9
REMARK    4  A    between atoms: N_11  and  C_12
REMARK    5  A    between atoms: C_12  and  C_13
REMARK                            x       y       z     vdW  Elec       q    Type
REMARK                         _______ _______ _______ _____ _____    ______ ____
ROOT
ATOM      1  C   UNL     1      32.928  19.754  14.586  0.00  0.00    +0.224 C 
ATOM      2  O   UNL     1      32.733  20.300  13.505  0.00  0.00    -0.275 OA
ATOM      3  N   UNL     1      33.423  18.485  14.736  0.00  0.00    -0.309 N 
ATOM      4  H   UNL     1      33.589  18.117  15.662  0.00  0.00    +0.149 HD
ENDROOT
BRANCH   1   5
ATOM      5  C   UNL     1      32.566  20.449  15.874  0.00  0.00    +0.072 C 
ATOM      6  C   UNL     1      31.280  21.266  15.922  0.00  0.00    +0.022 C 
ATOM      7  C   UNL     1      31.321  19.941  16.610  0.00  0.00    +0.022 C 
BRANCH   5  12
ATOM      8  C   UNL     1      35.224  20.116  18.620  0.00  0.00    +0.052 A 
ATOM      9  C   UNL     1      35.798  21.387  18.636  0.00  0.00    +0.019 A 
ATOM     10  C   UNL     1      35.374  22.351  17.721  0.00  0.00    +0.002 A 
ATOM     11  C   UNL     1      34.358  22.053  16.807  0.00  0.00    +0.005 A 
ATOM     12  C   UNL     1      33.740  20.791  16.790  0.00  0.00    -0.031 A 
ATOM     13  C   UNL     1      34.218  19.824  17.695  0.00  0.00    +0.023 A 
BRANCH   8  15
ATOM     14  N   UNL     1      35.952  18.305  20.328  0.00  0.00    -0.191 NA
ATOM     15  C   UNL     1      35.632  19.122  19.566  0.00  0.00    +0.099 C 
ENDBRANCH   8  15
ENDBRANCH   5  12
ENDBRANCH   1   5
BRANCH   3  16
ATOM     16  C   UNL     1      33.676  17.630  13.597  0.00  0.00    +0.159 C 
BRANCH  16  17
ATOM     17  C   UNL     1      32.775  16.417  13.550  0.00  0.00    +0.058 A 
ATOM     18  C   UNL     1      32.236  15.988  12.334  0.00  0.00    +0.028 A 
ATOM     19  C   UNL     1      31.387  14.882  12.320  0.00  0.00    +0.042 A 
ATOM     20  C   UNL     1      31.110  14.240  13.514  0.00  0.00    +0.141 A 
ATOM     21  F   UNL     1      30.293  13.179  13.538  0.00  0.00    -0.204 F 
ATOM     22  C   UNL     1      31.689  14.712  14.678  0.00  0.00    +0.149 A 
ATOM     23  N   UNL     1      32.520  15.782  14.725  0.00  0.00    -0.255 NA
ENDBRANCH  16  17
ENDBRANCH   3  16
TORSDOF 5
ENDMDL
MODEL 6
REMARK VINA RESULT:      -6.1      1.466      1.488
REMARK  Name = ZINC000435351830
REMARK  5 active torsions:
REMARK  status: ('A' for Active; 'I' for Inactive)
REMARK    1  A    between atoms: C_2  and  C_3
REMARK    2  A    between atoms: C_7  and  C_8
REMARK    3  A    between atoms: C_8  and  C_9
REMARK    4  A    between atoms: N_11  and  C_12
REMARK    5  A    between atoms: C_12  and  C_13
REMARK                            x       y       z     vdW  Elec       q    Type
REMARK                         _______ _______ _______ _____ _____    ______ ____
ROOT
ATOM      1  C   UNL     1      33.964  18.503  14.775  0.00  0.00    +0.224 C 
ATOM      2  O   UNL     1      34.578  19.083  13.886  0.00  0.00    -0.275 OA
ATOM      3  N   UNL     1      33.364  17.279  14.631  0.00  0.00    -0.309 N 
ATOM      4  H   UNL     1      32.906  16.849  15.421  0.00  0.00    +0.149 HD
ENDROOT
BRANCH   1   5
ATOM      5  C   UNL     1      33.769  19.149  16.122  0.00  0.00    +0.072 C 
ATOM      6  C   UNL     1      33.810  18.267  17.365  0.00  0.00    +0.022 C 
ATOM      7  C   UNL     1      34.974  19.154  17.071  0.00  0.00    +0.022 C 
BRANCH   5  12
ATOM      8  C   UNL     1      32.973  22.902  16.118  0.00  0.00    +0.052 A 
ATOM      9  C   UNL     1      31.586  22.913  16.270  0.00  0.00    +0.019 A 
ATOM     10  C   UNL     1      30.885  21.709  16.318  0.00  0.00    +0.002 A 
ATOM     11  C   UNL     1      31.570  20.492  16.240  0.00  0.00    +0.005 A 
ATOM     12  C   UNL     1      32.970  20.451  16.119  0.00  0.00    -0.031 A 
ATOM     13  C   UNL     1      33.648  21.682  16.029  0.00  0.00    +0.023 A 
BRANCH   8  15
ATOM     14  N   UNL     1      34.318  25.118  16.053  0.00  0.00    -0.191 NA
ATOM     15  C   UNL     1      33.711  24.128  16.089  0.00  0.00    +0.099 C 
ENDBRANCH   8  15
ENDBRANCH   5  12
ENDBRANCH   1   5
BRANCH   3  16
ATOM     16  C   UNL     1      33.329  16.596  13.356  0.00  0.00    +0.159 C 
BRANCH  16  17
ATOM     17  C   UNL     1      32.505  15.328  13.381  0.00  0.00    +0.058 A 
ATOM     18  C   UNL     1      31.823  14.955  14.542  0.00  0.00    +0.028 A 
ATOM     19  C   UNL     1      31.092  13.768  14.548  0.00  0.00    +0.042 A 
ATOM     20  C   UNL     1      31.061  12.999  13.398  0.00  0.00    +0.141 A 
ATOM     21  F   UNL     1      30.374  11.850  13.370  0.00  0.00    -0.204 F 
ATOM     22  C   UNL     1      31.750  13.436  12.282  0.00  0.00    +0.149 A 
ATOM     23  N   UNL     1      32.468  14.585  12.242  0.00  0.00    -0.255 NA
ENDBRANCH  16  17
ENDBRANCH   3  16
TORSDOF 5
ENDMDL
MODEL 7
REMARK VINA RESULT:      -6.0      2.849      3.849
REMARK  Name = ZINC000435351830
REMARK  5 active torsions:
REMARK  status: ('A' for Active; 'I' for Inactive)
REMARK    1  A    between atoms: C_2  and  C_3
REMARK    2  A    between atoms: C_7  and  C_8
REMARK    3  A    between atoms: C_8  and  C_9
REMARK    4  A    between atoms: N_11  and  C_12
REMARK    5  A    between atoms: C_12  and  C_13
REMARK                            x       y       z     vdW  Elec       q    Type
REMARK                         _______ _______ _______ _____ _____    ______ ____
ROOT
ATOM      1  C   UNL     1      32.798  20.101  15.590  0.00  0.00    +0.224 C 
ATOM      2  O   UNL     1      33.059  20.073  16.787  0.00  0.00    -0.275 OA
ATOM      3  N   UNL     1      32.853  19.014  14.757  0.00  0.00    -0.309 N 
ATOM      4  H   UNL     1      32.589  19.110  13.787  0.00  0.00    +0.149 HD
ENDROOT
BRANCH   1   5
ATOM      5  C   UNL     1      32.443  21.400  14.911  0.00  0.00    +0.072 C 
ATOM      6  C   UNL     1      31.647  21.348  13.613  0.00  0.00    +0.022 C 
ATOM      7  C   UNL     1      30.957  21.776  14.866  0.00  0.00    +0.022 C 
BRANCH   5  12
ATOM      8  C   UNL     1      33.933  24.496  16.618  0.00  0.00    +0.052 A 
ATOM      9  C   UNL     1      34.954  24.859  15.740  0.00  0.00    +0.019 A 
ATOM     10  C   UNL     1      35.211  24.076  14.615  0.00  0.00    +0.002 A 
ATOM     11  C   UNL     1      34.433  22.944  14.353  0.00  0.00    +0.005 A 
ATOM     12  C   UNL     1      33.378  22.573  15.204  0.00  0.00    -0.031 A 
ATOM     13  C   UNL     1      33.169  23.356  16.355  0.00  0.00    +0.023 A 
BRANCH   8  15
ATOM     14  N   UNL     1      33.399  25.940  18.705  0.00  0.00    -0.191 NA
ATOM     15  C   UNL     1      33.641  25.299  17.766  0.00  0.00    +0.099 C 
ENDBRANCH   8  15
ENDBRANCH   5  12
ENDBRANCH   1   5
BRANCH   3  16
ATOM     16  C   UNL     1      33.323  17.727  15.221  0.00  0.00    +0.159 C 
BRANCH  16  17
ATOM     17  C   UNL     1      32.756  16.566  14.436  0.00  0.00    +0.058 A 
ATOM     18  C   UNL     1      32.753  16.596  13.039  0.00  0.00    +0.028 A 
ATOM     19  C   UNL     1      32.201  15.525  12.337  0.00  0.00    +0.042 A 
ATOM     20  C   UNL     1      31.677  14.461  13.051  0.00  0.00    +0.141 A 
ATOM     21  F   UNL     1      31.132  13.419  12.410  0.00  0.00    -0.204 F 
ATOM     22  C   UNL     1      31.724  14.494  14.432  0.00  0.00    +0.149 A 
ATOM     23  N   UNL     1      32.256  15.517  15.144  0.00  0.00    -0.255 NA
ENDBRANCH  16  17
ENDBRANCH   3  16
TORSDOF 5
ENDMDL
MODEL 8
REMARK VINA RESULT:      -6.0      3.279      5.840
REMARK  Name = ZINC000435351830
REMARK  5 active torsions:
REMARK  status: ('A' for Active; 'I' for Inactive)
REMARK    1  A    between atoms: C_2  and  C_3
REMARK    2  A    between atoms: C_7  and  C_8
REMARK    3  A    between atoms: C_8  and  C_9
REMARK    4  A    between atoms: N_11  and  C_12
REMARK    5  A    between atoms: C_12  and  C_13
REMARK                            x       y       z     vdW  Elec       q    Type
REMARK                         _______ _______ _______ _____ _____    ______ ____
ROOT
ATOM      1  C   UNL     1      31.804  21.976  14.141  0.00  0.00    +0.224 C 
ATOM      2  O   UNL     1      30.849  21.886  13.377  0.00  0.00    -0.275 OA
ATOM      3  N   UNL     1      33.066  22.352  13.763  0.00  0.00    -0.309 N 
ATOM      4  H   UNL     1      33.794  22.438  14.458  0.00  0.00    +0.149 HD
ENDROOT
BRANCH   1   5
ATOM      5  C   UNL     1      31.662  21.607  15.595  0.00  0.00    +0.072 C 
ATOM      6  C   UNL     1      31.265  22.696  16.586  0.00  0.00    +0.022 C 
ATOM      7  C   UNL     1      30.251  21.672  16.193  0.00  0.00    +0.022 C 
BRANCH   5  12
ATOM      8  C   UNL     1      33.113  18.058  15.712  0.00  0.00    +0.052 A 
ATOM      9  C   UNL     1      33.834  18.069  16.906  0.00  0.00    +0.019 A 
ATOM     10  C   UNL     1      33.907  19.240  17.660  0.00  0.00    +0.002 A 
ATOM     11  C   UNL     1      33.240  20.393  17.236  0.00  0.00    +0.005 A 
ATOM     12  C   UNL     1      32.481  20.401  16.053  0.00  0.00    -0.031 A 
ATOM     13  C   UNL     1      32.460  19.219  15.288  0.00  0.00    +0.023 A 
BRANCH   8  15
ATOM     14  N   UNL     1      32.938  15.883  14.311  0.00  0.00    -0.191 NA
ATOM     15  C   UNL     1      33.009  16.860  14.936  0.00  0.00    +0.099 C 
ENDBRANCH   8  15
ENDBRANCH   5  12
ENDBRANCH   1   5
BRANCH   3  16
ATOM     16  C   UNL     1      33.404  22.592  12.377  0.00  0.00    +0.159 C 
BRANCH  16  17
ATOM     17  C   UNL     1      33.991  21.381  11.688  0.00  0.00    +0.058 A 
ATOM     18  C   UNL     1      34.438  20.291  12.440  0.00  0.00    +0.028 A 
ATOM     19  C   UNL     1      35.000  19.197  11.783  0.00  0.00    +0.042 A 
ATOM     20  C   UNL     1      35.092  19.225  10.403  0.00  0.00    +0.141 A 
ATOM     21  F   UNL     1      35.632  18.194   9.739  0.00  0.00    -0.204 F 
ATOM     22  C   UNL     1      34.618  20.331   9.722  0.00  0.00    +0.149 A 
ATOM     23  N   UNL     1      34.065  21.409  10.330  0.00  0.00    -0.255 NA
ENDBRANCH  16  17
ENDBRANCH   3  16
TORSDOF 5
ENDMDL
MODEL 9
REMARK VINA RESULT:      -6.0      1.668      2.527
REMARK  Name = ZINC000435351830
REMARK  5 active torsions:
REMARK  status: ('A' for Active; 'I' for Inactive)
REMARK    1  A    between atoms: C_2  and  C_3
REMARK    2  A    between atoms: C_7  and  C_8
REMARK    3  A    between atoms: C_8  and  C_9
REMARK    4  A    between atoms: N_11  and  C_12
REMARK    5  A    between atoms: C_12  and  C_13
REMARK                            x       y       z     vdW  Elec       q    Type
REMARK                         _______ _______ _______ _____ _____    ______ ____
ROOT
ATOM      1  C   UNL     1      34.704  18.567  12.995  0.00  0.00    +0.224 C 
ATOM      2  O   UNL     1      35.832  18.393  12.549  0.00  0.00    -0.275 OA
ATOM      3  N   UNL     1      33.708  17.626  12.974  0.00  0.00    -0.309 N 
ATOM      4  H   UNL     1      32.812  17.832  13.393  0.00  0.00    +0.149 HD
ENDROOT
BRANCH   1   5
ATOM      5  C   UNL     1      34.300  19.902  13.567  0.00  0.00    +0.072 C 
ATOM      6  C   UNL     1      35.035  21.149  13.088  0.00  0.00    +0.022 C 
ATOM      7  C   UNL     1      33.644  20.900  12.604  0.00  0.00    +0.022 C 
BRANCH   5  12
ATOM      8  C   UNL     1      31.882  20.618  16.457  0.00  0.00    +0.052 A 
ATOM      9  C   UNL     1      32.498  19.972  17.529  0.00  0.00    +0.019 A 
ATOM     10  C   UNL     1      33.672  19.248  17.320  0.00  0.00    +0.002 A 
ATOM     11  C   UNL     1      34.245  19.191  16.046  0.00  0.00    +0.005 A 
ATOM     12  C   UNL     1      33.663  19.860  14.955  0.00  0.00    -0.031 A 
ATOM     13  C   UNL     1      32.455  20.545  15.185  0.00  0.00    +0.023 A 
BRANCH   8  15
ATOM     14  N   UNL     1      29.718  22.004  16.804  0.00  0.00    -0.191 NA
ATOM     15  C   UNL     1      30.689  21.382  16.657  0.00  0.00    +0.099 C 
ENDBRANCH   8  15
ENDBRANCH   5  12
ENDBRANCH   1   5
BRANCH   3  16
ATOM     16  C   UNL     1      33.887  16.346  12.323  0.00  0.00    +0.159 C 
BRANCH  16  17
ATOM     17  C   UNL     1      32.943  15.280  12.832  0.00  0.00    +0.058 A 
ATOM     18  C   UNL     1      32.275  15.454  14.047  0.00  0.00    +0.028 A 
ATOM     19  C   UNL     1      31.430  14.446  14.508  0.00  0.00    +0.042 A 
ATOM     20  C   UNL     1      31.276  13.304  13.742  0.00  0.00    +0.141 A 
ATOM     21  F   UNL     1      30.477  12.312  14.157  0.00  0.00    -0.204 F 
ATOM     22  C   UNL     1      31.959  13.205  12.543  0.00  0.00    +0.149 A 
ATOM     23  N   UNL     1      32.785  14.167  12.066  0.00  0.00    -0.255 NA
ENDBRANCH  16  17
ENDBRANCH   3  16
TORSDOF 5
ENDMDL
