MODEL 1
REMARK VINA RESULT:      -7.2      0.000      0.000
REMARK  Name = ZINC000543478179
REMARK  8 active torsions:
REMARK  status: ('A' for Active; 'I' for Inactive)
REMARK    1  A    between atoms: C_1  and  C_2
REMARK    2  A    between atoms: C_2  and  N_3
REMARK    3  A    between atoms: N_9  and  C_10
REMARK    4  A    between atoms: C_10  and  C_11
REMARK    5  A    between atoms: C_10  and  C_12
REMARK    6  A    between atoms: C_15  and  O_16
REMARK    7  A    between atoms: O_16  and  C_17
REMARK    8  A    between atoms: C_17  and  C_18
REMARK                            x       y       z     vdW  Elec       q    Type
REMARK                         _______ _______ _______ _____ _____    ______ ____
ROOT
ATOM      1  C   UNL     1      30.069  21.943  14.886  0.00  0.00    +0.102 C 
ATOM      2  C   UNL     1      29.855  22.587  13.514  0.00  0.00    +0.033 C 
ENDROOT
BRANCH   1   9
ATOM      3  N   UNL     1      31.053  24.160  19.755  0.00  0.00    -0.299 N 
ATOM      4  C   UNL     1      29.729  23.613  20.046  0.00  0.00    +0.127 C 
ATOM      5  C   UNL     1      28.752  23.841  18.890  0.00  0.00    +0.129 C 
ATOM      6  N   UNL     1      29.280  23.258  17.653  0.00  0.00    -0.275 N 
ATOM      7  C   UNL     1      28.453  22.515  16.860  0.00  0.00    +0.303 C 
ATOM      8  O   UNL     1      27.276  22.305  17.173  0.00  0.00    -0.253 OA
ATOM      9  N   UNL     1      28.858  21.949  15.702  0.00  0.00    -0.293 N 
ATOM     10  C   UNL     1      30.677  23.565  17.387  0.00  0.00    +0.205 C 
ATOM     11  C   UNL     1      31.516  24.262  18.458  0.00  0.00    +0.233 C 
ATOM     12  O   UNL     1      32.604  24.763  18.163  0.00  0.00    -0.274 OA
ATOM     13  H   UNL     1      28.080  21.434  15.309  0.00  0.00    +0.151 HD
BRANCH   3  15
ATOM     14  C   UNL     1      31.758  23.658  22.043  0.00  0.00    +0.024 C 
ATOM     15  C   UNL     1      31.914  24.576  20.845  0.00  0.00    +0.104 C 
ENDBRANCH   3  15
ENDBRANCH   1   9
BRANCH   1  16
ATOM     16  C   UNL     1      30.614  20.530  14.775  0.00  0.00    -0.024 A 
ATOM     17  C   UNL     1      31.714  20.105  15.529  0.00  0.00    +0.009 A 
ATOM     18  C   UNL     1      32.214  18.808  15.398  0.00  0.00    +0.049 A 
ATOM     19  C   UNL     1      31.646  17.918  14.476  0.00  0.00    +0.156 A 
ATOM     20  C   UNL     1      30.528  18.328  13.755  0.00  0.00    +0.165 A 
ATOM     21  F   UNL     1      29.930  17.491  12.892  0.00  0.00    -0.202 F 
ATOM     22  C   UNL     1      30.019  19.619  13.886  0.00  0.00    +0.047 A 
BRANCH  19  23
ATOM     23  O   UNL     1      32.120  16.661  14.225  0.00  0.00    -0.489 OA
BRANCH  23  24
ATOM     24  C   UNL     1      33.245  16.605  13.348  0.00  0.00    +0.232 C 
BRANCH  24  25
ATOM     25  C   UNL     1      32.870  15.856  12.108  0.00  0.00    +0.027 C 
ATOM     26  C   UNL     1      32.052  14.595  12.229  0.00  0.00    +0.007 C 
ATOM     27  C   UNL     1      33.495  14.516  11.811  0.00  0.00    +0.007 C 
ENDBRANCH  24  25
ENDBRANCH  23  24
ENDBRANCH  19  23
ENDBRANCH   1  16
TORSDOF 6
ENDMDL
MODEL 2
REMARK VINA RESULT:      -6.7      4.138      8.461
REMARK  Name = ZINC000543478179
REMARK  8 active torsions:
REMARK  status: ('A' for Active; 'I' for Inactive)
REMARK    1  A    between atoms: C_1  and  C_2
REMARK    2  A    between atoms: C_2  and  N_3
REMARK    3  A    between atoms: N_9  and  C_10
REMARK    4  A    between atoms: C_10  and  C_11
REMARK    5  A    between atoms: C_10  and  C_12
REMARK    6  A    between atoms: C_15  and  O_16
REMARK    7  A    between atoms: O_16  and  C_17
REMARK    8  A    between atoms: C_17  and  C_18
REMARK                            x       y       z     vdW  Elec       q    Type
REMARK                         _______ _______ _______ _____ _____    ______ ____
ROOT
ATOM      1  C   UNL     1      30.175  22.644  15.056  0.00  0.00    +0.102 C 
ATOM      2  C   UNL     1      29.069  21.640  14.722  0.00  0.00    +0.033 C 
ENDROOT
BRANCH   1   9
ATOM      3  N   UNL     1      33.549  22.683  10.790  0.00  0.00    -0.299 N 
ATOM      4  C   UNL     1      33.156  24.090  10.749  0.00  0.00    +0.127 C 
ATOM      5  C   UNL     1      31.654  24.269  10.989  0.00  0.00    +0.129 C 
ATOM      6  N   UNL     1      31.268  23.672  12.271  0.00  0.00    -0.275 N 
ATOM      7  C   UNL     1      30.451  24.371  13.113  0.00  0.00    +0.303 C 
ATOM      8  O   UNL     1      30.047  25.503  12.827  0.00  0.00    -0.253 OA
ATOM      9  N   UNL     1      30.043  23.891  14.308  0.00  0.00    -0.293 N 
ATOM     10  C   UNL     1      31.805  22.340  12.505  0.00  0.00    +0.205 C 
ATOM     11  C   UNL     1      32.848  21.765  11.547  0.00  0.00    +0.233 C 
ATOM     12  O   UNL     1      33.114  20.561  11.571  0.00  0.00    -0.274 OA
ATOM     13  H   UNL     1      29.468  24.594  14.755  0.00  0.00    +0.151 HD
BRANCH   3  15
ATOM     14  C   UNL     1      34.387  22.059   8.577  0.00  0.00    +0.024 C 
ATOM     15  C   UNL     1      34.714  22.241  10.048  0.00  0.00    +0.104 C 
ENDBRANCH   3  15
ENDBRANCH   1   9
BRANCH   1  16
ATOM     16  C   UNL     1      30.250  22.935  16.544  0.00  0.00    -0.024 A 
ATOM     17  C   UNL     1      31.460  22.869  17.246  0.00  0.00    +0.009 A 
ATOM     18  C   UNL     1      31.506  23.121  18.618  0.00  0.00    +0.049 A 
ATOM     19  C   UNL     1      30.332  23.405  19.328  0.00  0.00    +0.156 A 
ATOM     20  C   UNL     1      29.135  23.509  18.623  0.00  0.00    +0.165 A 
ATOM     21  F   UNL     1      27.995  23.820  19.261  0.00  0.00    -0.202 F 
ATOM     22  C   UNL     1      29.083  23.267  17.252  0.00  0.00    +0.047 A 
BRANCH  19  23
ATOM     23  O   UNL     1      30.273  23.585  20.682  0.00  0.00    -0.489 OA
BRANCH  23  24
ATOM     24  C   UNL     1      31.302  22.927  21.422  0.00  0.00    +0.232 C 
BRANCH  24  25
ATOM     25  C   UNL     1      32.043  23.933  22.244  0.00  0.00    +0.027 C 
ATOM     26  C   UNL     1      32.441  25.246  21.618  0.00  0.00    +0.007 C 
ATOM     27  C   UNL     1      33.494  24.228  21.959  0.00  0.00    +0.007 C 
ENDBRANCH  24  25
ENDBRANCH  23  24
ENDBRANCH  19  23
ENDBRANCH   1  16
TORSDOF 6
ENDMDL
MODEL 3
REMARK VINA RESULT:      -6.4      3.357      6.180
REMARK  Name = ZINC000543478179
REMARK  8 active torsions:
REMARK  status: ('A' for Active; 'I' for Inactive)
REMARK    1  A    between atoms: C_1  and  C_2
REMARK    2  A    between atoms: C_2  and  N_3
REMARK    3  A    between atoms: N_9  and  C_10
REMARK    4  A    between atoms: C_10  and  C_11
REMARK    5  A    between atoms: C_10  and  C_12
REMARK    6  A    between atoms: C_15  and  O_16
REMARK    7  A    between atoms: O_16  and  C_17
REMARK    8  A    between atoms: C_17  and  C_18
REMARK                            x       y       z     vdW  Elec       q    Type
REMARK                         _______ _______ _______ _____ _____    ______ ____
ROOT
ATOM      1  C   UNL     1      31.362  24.049  20.131  0.00  0.00    +0.102 C 
ATOM      2  C   UNL     1      30.416  23.600  21.247  0.00  0.00    +0.033 C 
ENDROOT
BRANCH   1   9
ATOM      3  N   UNL     1      34.877  28.137  20.854  0.00  0.00    -0.299 N 
ATOM      4  C   UNL     1      35.852  27.065  20.662  0.00  0.00    +0.127 C 
ATOM      5  C   UNL     1      35.450  25.790  21.409  0.00  0.00    +0.129 C 
ATOM      6  N   UNL     1      34.119  25.347  20.983  0.00  0.00    -0.275 N 
ATOM      7  C   UNL     1      33.914  24.027  20.700  0.00  0.00    +0.303 C 
ATOM      8  O   UNL     1      34.831  23.202  20.775  0.00  0.00    -0.253 OA
ATOM      9  N   UNL     1      32.718  23.536  20.308  0.00  0.00    -0.293 N 
ATOM     10  C   UNL     1      33.119  26.403  20.924  0.00  0.00    +0.205 C 
ATOM     11  C   UNL     1      33.546  27.860  21.099  0.00  0.00    +0.233 C 
ATOM     12  O   UNL     1      32.700  28.732  21.316  0.00  0.00    -0.274 OA
ATOM     13  H   UNL     1      32.821  22.543  20.137  0.00  0.00    +0.151 HD
BRANCH   3  15
ATOM     14  C   UNL     1      36.177  29.737  19.536  0.00  0.00    +0.024 C 
ATOM     15  C   UNL     1      35.302  29.521  20.757  0.00  0.00    +0.104 C 
ENDBRANCH   3  15
ENDBRANCH   1   9
BRANCH   1  16
ATOM     16  C   UNL     1      30.841  23.676  18.755  0.00  0.00    -0.024 A 
ATOM     17  C   UNL     1      29.471  23.542  18.500  0.00  0.00    +0.009 A 
ATOM     18  C   UNL     1      29.011  23.179  17.233  0.00  0.00    +0.049 A 
ATOM     19  C   UNL     1      29.917  22.901  16.201  0.00  0.00    +0.156 A 
ATOM     20  C   UNL     1      31.278  23.072  16.445  0.00  0.00    +0.165 A 
ATOM     21  F   UNL     1      32.176  22.855  15.470  0.00  0.00    -0.202 F 
ATOM     22  C   UNL     1      31.744  23.442  17.705  0.00  0.00    +0.047 A 
BRANCH  19  23
ATOM     23  O   UNL     1      29.559  22.462  14.957  0.00  0.00    -0.489 OA
BRANCH  23  24
ATOM     24  C   UNL     1      29.245  21.071  14.877  0.00  0.00    +0.232 C 
BRANCH  24  25
ATOM     25  C   UNL     1      30.337  20.357  14.145  0.00  0.00    +0.027 C 
ATOM     26  C   UNL     1      30.305  18.852  14.061  0.00  0.00    +0.007 C 
ATOM     27  C   UNL     1      31.349  19.534  14.902  0.00  0.00    +0.007 C 
ENDBRANCH  24  25
ENDBRANCH  23  24
ENDBRANCH  19  23
ENDBRANCH   1  16
TORSDOF 6
ENDMDL
MODEL 4
REMARK VINA RESULT:      -6.3      4.320      6.571
REMARK  Name = ZINC000543478179
REMARK  8 active torsions:
REMARK  status: ('A' for Active; 'I' for Inactive)
REMARK    1  A    between atoms: C_1  and  C_2
REMARK    2  A    between atoms: C_2  and  N_3
REMARK    3  A    between atoms: N_9  and  C_10
REMARK    4  A    between atoms: C_10  and  C_11
REMARK    5  A    between atoms: C_10  and  C_12
REMARK    6  A    between atoms: C_15  and  O_16
REMARK    7  A    between atoms: O_16  and  C_17
REMARK    8  A    between atoms: C_17  and  C_18
REMARK                            x       y       z     vdW  Elec       q    Type
REMARK                         _______ _______ _______ _____ _____    ______ ____
ROOT
ATOM      1  C   UNL     1      31.810  23.532  19.869  0.00  0.00    +0.102 C 
ATOM      2  C   UNL     1      30.995  22.990  21.046  0.00  0.00    +0.033 C 
ENDROOT
BRANCH   1   9
ATOM      3  N   UNL     1      34.834  27.883  21.098  0.00  0.00    -0.299 N 
ATOM      4  C   UNL     1      35.924  26.974  20.745  0.00  0.00    +0.127 C 
ATOM      5  C   UNL     1      35.700  25.570  21.314  0.00  0.00    +0.129 C 
ATOM      6  N   UNL     1      34.418  25.030  20.851  0.00  0.00    -0.275 N 
ATOM      7  C   UNL     1      34.363  23.745  20.392  0.00  0.00    +0.303 C 
ATOM      8  O   UNL     1      35.373  23.035  20.338  0.00  0.00    -0.253 OA
ATOM      9  N   UNL     1      33.222  23.169  19.954  0.00  0.00    -0.293 N 
ATOM     10  C   UNL     1      33.299  25.954  20.954  0.00  0.00    +0.205 C 
ATOM     11  C   UNL     1      33.555  27.415  21.322  0.00  0.00    +0.233 C 
ATOM     12  O   UNL     1      32.619  28.139  21.670  0.00  0.00    -0.274 OA
ATOM     13  H   UNL     1      33.437  22.229  19.646  0.00  0.00    +0.151 HD
BRANCH   3  15
ATOM     14  C   UNL     1      36.039  29.761  20.092  0.00  0.00    +0.024 C 
ATOM     15  C   UNL     1      35.089  29.309  21.186  0.00  0.00    +0.104 C 
ENDBRANCH   3  15
ENDBRANCH   1   9
BRANCH   1  16
ATOM     16  C   UNL     1      31.241  23.097  18.531  0.00  0.00    -0.024 A 
ATOM     17  C   UNL     1      32.041  22.499  17.551  0.00  0.00    +0.009 A 
ATOM     18  C   UNL     1      31.504  22.124  16.319  0.00  0.00    +0.049 A 
ATOM     19  C   UNL     1      30.158  22.379  16.024  0.00  0.00    +0.156 A 
ATOM     20  C   UNL     1      29.353  22.939  17.012  0.00  0.00    +0.165 A 
ATOM     21  F   UNL     1      28.049  23.161  16.783  0.00  0.00    -0.202 F 
ATOM     22  C   UNL     1      29.881  23.308  18.248  0.00  0.00    +0.047 A 
BRANCH  19  23
ATOM     23  O   UNL     1      29.571  22.120  14.817  0.00  0.00    -0.489 OA
BRANCH  23  24
ATOM     24  C   UNL     1      30.429  22.267  13.685  0.00  0.00    +0.232 C 
BRANCH  24  25
ATOM     25  C   UNL     1      30.197  23.604  13.057  0.00  0.00    +0.027 C 
ATOM     26  C   UNL     1      31.035  24.017  11.873  0.00  0.00    +0.007 C 
ATOM     27  C   UNL     1      31.223  24.700  13.200  0.00  0.00    +0.007 C 
ENDBRANCH  24  25
ENDBRANCH  23  24
ENDBRANCH  19  23
ENDBRANCH   1  16
TORSDOF 6
ENDMDL
MODEL 5
REMARK VINA RESULT:      -6.3      4.505      7.862
REMARK  Name = ZINC000543478179
REMARK  8 active torsions:
REMARK  status: ('A' for Active; 'I' for Inactive)
REMARK    1  A    between atoms: C_1  and  C_2
REMARK    2  A    between atoms: C_2  and  N_3
REMARK    3  A    between atoms: N_9  and  C_10
REMARK    4  A    between atoms: C_10  and  C_11
REMARK    5  A    between atoms: C_10  and  C_12
REMARK    6  A    between atoms: C_15  and  O_16
REMARK    7  A    between atoms: O_16  and  C_17
REMARK    8  A    between atoms: C_17  and  C_18
REMARK                            x       y       z     vdW  Elec       q    Type
REMARK                         _______ _______ _______ _____ _____    ______ ____
ROOT
ATOM      1  C   UNL     1      32.899  24.295  21.504  0.00  0.00    +0.102 C 
ATOM      2  C   UNL     1      34.318  23.950  21.047  0.00  0.00    +0.033 C 
ENDROOT
BRANCH   1   9
ATOM      3  N   UNL     1      32.947  24.881  26.911  0.00  0.00    -0.299 N 
ATOM      4  C   UNL     1      32.512  26.234  26.566  0.00  0.00    +0.127 C 
ATOM      5  C   UNL     1      33.292  26.795  25.373  0.00  0.00    +0.129 C 
ATOM      6  N   UNL     1      33.158  25.907  24.214  0.00  0.00    -0.275 N 
ATOM      7  C   UNL     1      32.889  26.448  22.988  0.00  0.00    +0.303 C 
ATOM      8  O   UNL     1      32.735  27.665  22.840  0.00  0.00    -0.253 OA
ATOM      9  N   UNL     1      32.757  25.702  21.870  0.00  0.00    -0.293 N 
ATOM     10  C   UNL     1      33.353  24.496  24.506  0.00  0.00    +0.205 C 
ATOM     11  C   UNL     1      33.471  24.032  25.958  0.00  0.00    +0.233 C 
ATOM     12  O   UNL     1      33.896  22.903  26.214  0.00  0.00    -0.274 OA
ATOM     13  H   UNL     1      32.538  26.320  21.098  0.00  0.00    +0.151 HD
BRANCH   3  15
ATOM     14  C   UNL     1      32.247  25.495  29.174  0.00  0.00    +0.024 C 
ATOM     15  C   UNL     1      32.798  24.405  28.274  0.00  0.00    +0.104 C 
ENDBRANCH   3  15
ENDBRANCH   1   9
BRANCH   1  16
ATOM     16  C   UNL     1      31.858  23.921  20.465  0.00  0.00    -0.024 A 
ATOM     17  C   UNL     1      32.213  23.613  19.146  0.00  0.00    +0.009 A 
ATOM     18  C   UNL     1      31.239  23.290  18.199  0.00  0.00    +0.049 A 
ATOM     19  C   UNL     1      29.881  23.309  18.543  0.00  0.00    +0.156 A 
ATOM     20  C   UNL     1      29.531  23.577  19.864  0.00  0.00    +0.165 A 
ATOM     21  F   UNL     1      28.243  23.564  20.242  0.00  0.00    -0.202 F 
ATOM     22  C   UNL     1      30.498  23.893  20.816  0.00  0.00    +0.047 A 
BRANCH  19  23
ATOM     23  O   UNL     1      28.859  23.086  17.662  0.00  0.00    -0.489 OA
BRANCH  23  24
ATOM     24  C   UNL     1      29.241  23.075  16.287  0.00  0.00    +0.232 C 
BRANCH  24  25
ATOM     25  C   UNL     1      29.053  21.700  15.730  0.00  0.00    +0.027 C 
ATOM     26  C   UNL     1      30.242  20.965  15.164  0.00  0.00    +0.007 C 
ATOM     27  C   UNL     1      29.159  21.459  14.245  0.00  0.00    +0.007 C 
ENDBRANCH  24  25
ENDBRANCH  23  24
ENDBRANCH  19  23
ENDBRANCH   1  16
TORSDOF 6
ENDMDL
MODEL 6
REMARK VINA RESULT:      -6.2      3.586      8.986
REMARK  Name = ZINC000543478179
REMARK  8 active torsions:
REMARK  status: ('A' for Active; 'I' for Inactive)
REMARK    1  A    between atoms: C_1  and  C_2
REMARK    2  A    between atoms: C_2  and  N_3
REMARK    3  A    between atoms: N_9  and  C_10
REMARK    4  A    between atoms: C_10  and  C_11
REMARK    5  A    between atoms: C_10  and  C_12
REMARK    6  A    between atoms: C_15  and  O_16
REMARK    7  A    between atoms: O_16  and  C_17
REMARK    8  A    between atoms: C_17  and  C_18
REMARK                            x       y       z     vdW  Elec       q    Type
REMARK                         _______ _______ _______ _____ _____    ______ ____
ROOT
ATOM      1  C   UNL     1      31.267  18.692  13.803  0.00  0.00    +0.102 C 
ATOM      2  C   UNL     1      30.261  17.539  13.803  0.00  0.00    +0.033 C 
ENDROOT
BRANCH   1   9
ATOM      3  N   UNL     1      35.953  16.274  12.468  0.00  0.00    -0.299 N 
ATOM      4  C   UNL     1      35.889  17.217  11.354  0.00  0.00    +0.127 C 
ATOM      5  C   UNL     1      34.476  17.316  10.772  0.00  0.00    +0.129 C 
ATOM      6  N   UNL     1      33.520  17.699  11.816  0.00  0.00    -0.275 N 
ATOM      7  C   UNL     1      32.597  18.669  11.551  0.00  0.00    +0.303 C 
ATOM      8  O   UNL     1      32.563  19.246  10.459  0.00  0.00    -0.253 OA
ATOM      9  N   UNL     1      31.678  19.075  12.454  0.00  0.00    -0.293 N 
ATOM     10  C   UNL     1      33.655  16.959  13.062  0.00  0.00    +0.205 C 
ATOM     11  C   UNL     1      34.851  16.029  13.264  0.00  0.00    +0.233 C 
ATOM     12  O   UNL     1      34.847  15.205  14.182  0.00  0.00    -0.274 OA
ATOM     13  H   UNL     1      31.125  19.814  12.037  0.00  0.00    +0.151 HD
BRANCH   3  15
ATOM     14  C   UNL     1      38.063  15.469  11.526  0.00  0.00    +0.024 C 
ATOM     15  C   UNL     1      37.203  15.602  12.770  0.00  0.00    +0.104 C 
ENDBRANCH   3  15
ENDBRANCH   1   9
BRANCH   1  16
ATOM     16  C   UNL     1      30.746  19.905  14.551  0.00  0.00    -0.024 A 
ATOM     17  C   UNL     1      29.442  20.379  14.366  0.00  0.00    +0.009 A 
ATOM     18  C   UNL     1      28.986  21.509  15.048  0.00  0.00    +0.049 A 
ATOM     19  C   UNL     1      29.843  22.215  15.903  0.00  0.00    +0.156 A 
ATOM     20  C   UNL     1      31.127  21.722  16.117  0.00  0.00    +0.165 A 
ATOM     21  F   UNL     1      31.964  22.346  16.961  0.00  0.00    -0.202 F 
ATOM     22  C   UNL     1      31.586  20.590  15.445  0.00  0.00    +0.047 A 
BRANCH  19  23
ATOM     23  O   UNL     1      29.507  23.373  16.547  0.00  0.00    -0.489 OA
BRANCH  23  24
ATOM     24  C   UNL     1      28.801  23.197  17.775  0.00  0.00    +0.232 C 
BRANCH  24  25
ATOM     25  C   UNL     1      29.433  24.042  18.836  0.00  0.00    +0.027 C 
ATOM     26  C   UNL     1      30.515  23.448  19.702  0.00  0.00    +0.007 C 
ATOM     27  C   UNL     1      29.167  23.758  20.293  0.00  0.00    +0.007 C 
ENDBRANCH  24  25
ENDBRANCH  23  24
ENDBRANCH  19  23
ENDBRANCH   1  16
TORSDOF 6
ENDMDL
MODEL 7
REMARK VINA RESULT:      -6.2      3.893      8.078
REMARK  Name = ZINC000543478179
REMARK  8 active torsions:
REMARK  status: ('A' for Active; 'I' for Inactive)
REMARK    1  A    between atoms: C_1  and  C_2
REMARK    2  A    between atoms: C_2  and  N_3
REMARK    3  A    between atoms: N_9  and  C_10
REMARK    4  A    between atoms: C_10  and  C_11
REMARK    5  A    between atoms: C_10  and  C_12
REMARK    6  A    between atoms: C_15  and  O_16
REMARK    7  A    between atoms: O_16  and  C_17
REMARK    8  A    between atoms: C_17  and  C_18
REMARK                            x       y       z     vdW  Elec       q    Type
REMARK                         _______ _______ _______ _____ _____    ______ ____
ROOT
ATOM      1  C   UNL     1      31.671  21.571  15.341  0.00  0.00    +0.102 C 
ATOM      2  C   UNL     1      31.758  20.045  15.405  0.00  0.00    +0.033 C 
ENDROOT
BRANCH   1   9
ATOM      3  N   UNL     1      33.634  25.285  11.885  0.00  0.00    -0.299 N 
ATOM      4  C   UNL     1      32.213  25.469  11.592  0.00  0.00    +0.127 C 
ATOM      5  C   UNL     1      31.475  24.131  11.496  0.00  0.00    +0.129 C 
ATOM      6  N   UNL     1      31.643  23.365  12.735  0.00  0.00    -0.275 N 
ATOM      7  C   UNL     1      30.554  22.763  13.299  0.00  0.00    +0.303 C 
ATOM      8  O   UNL     1      29.429  22.866  12.800  0.00  0.00    -0.253 OA
ATOM      9  N   UNL     1      30.624  22.034  14.434  0.00  0.00    -0.293 N 
ATOM     10  C   UNL     1      33.008  23.314  13.235  0.00  0.00    +0.205 C 
ATOM     11  C   UNL     1      34.084  24.187  12.589  0.00  0.00    +0.233 C 
ATOM     12  O   UNL     1      35.277  23.967  12.815  0.00  0.00    -0.274 OA
ATOM     13  H   UNL     1      29.692  21.712  14.664  0.00  0.00    +0.151 HD
BRANCH   3  15
ATOM     14  C   UNL     1      34.850  26.193   9.966  0.00  0.00    +0.024 C 
ATOM     15  C   UNL     1      34.590  26.289  11.458  0.00  0.00    +0.104 C 
ENDBRANCH   3  15
ENDBRANCH   1   9
BRANCH   1  16
ATOM     16  C   UNL     1      31.482  22.191  16.713  0.00  0.00    -0.024 A 
ATOM     17  C   UNL     1      32.427  22.022  17.732  0.00  0.00    +0.009 A 
ATOM     18  C   UNL     1      32.226  22.583  18.995  0.00  0.00    +0.049 A 
ATOM     19  C   UNL     1      31.052  23.293  19.278  0.00  0.00    +0.156 A 
ATOM     20  C   UNL     1      30.130  23.493  18.253  0.00  0.00    +0.165 A 
ATOM     21  F   UNL     1      29.012  24.202  18.474  0.00  0.00    -0.202 F 
ATOM     22  C   UNL     1      30.328  22.943  16.988  0.00  0.00    +0.047 A 
BRANCH  19  23
ATOM     23  O   UNL     1      30.737  23.804  20.506  0.00  0.00    -0.489 OA
BRANCH  23  24
ATOM     24  C   UNL     1      31.336  23.130  21.612  0.00  0.00    +0.232 C 
BRANCH  24  25
ATOM     25  C   UNL     1      32.144  24.105  22.408  0.00  0.00    +0.027 C 
ATOM     26  C   UNL     1      32.645  25.362  21.744  0.00  0.00    +0.007 C 
ATOM     27  C   UNL     1      33.616  24.280  22.130  0.00  0.00    +0.007 C 
ENDBRANCH  24  25
ENDBRANCH  23  24
ENDBRANCH  19  23
ENDBRANCH   1  16
TORSDOF 6
ENDMDL
MODEL 8
REMARK VINA RESULT:      -6.2      4.004      6.155
REMARK  Name = ZINC000543478179
REMARK  8 active torsions:
REMARK  status: ('A' for Active; 'I' for Inactive)
REMARK    1  A    between atoms: C_1  and  C_2
REMARK    2  A    between atoms: C_2  and  N_3
REMARK    3  A    between atoms: N_9  and  C_10
REMARK    4  A    between atoms: C_10  and  C_11
REMARK    5  A    between atoms: C_10  and  C_12
REMARK    6  A    between atoms: C_15  and  O_16
REMARK    7  A    between atoms: O_16  and  C_17
REMARK    8  A    between atoms: C_17  and  C_18
REMARK                            x       y       z     vdW  Elec       q    Type
REMARK                         _______ _______ _______ _____ _____    ______ ____
ROOT
ATOM      1  C   UNL     1      30.470  21.885  14.654  0.00  0.00    +0.102 C 
ATOM      2  C   UNL     1      29.279  20.985  14.319  0.00  0.00    +0.033 C 
ENDROOT
BRANCH   1   9
ATOM      3  N   UNL     1      32.242  24.180  19.256  0.00  0.00    -0.299 N 
ATOM      4  C   UNL     1      33.354  23.254  19.052  0.00  0.00    +0.127 C 
ATOM      5  C   UNL     1      32.868  21.872  18.606  0.00  0.00    +0.129 C 
ATOM      6  N   UNL     1      32.069  21.982  17.382  0.00  0.00    -0.275 N 
ATOM      7  C   UNL     1      32.295  21.108  16.357  0.00  0.00    +0.303 C 
ATOM      8  O   UNL     1      33.172  20.241  16.431  0.00  0.00    -0.253 OA
ATOM      9  N   UNL     1      31.599  21.138  15.200  0.00  0.00    -0.293 N 
ATOM     10  C   UNL     1      31.072  23.041  17.404  0.00  0.00    +0.205 C 
ATOM     11  C   UNL     1      31.061  24.048  18.554  0.00  0.00    +0.233 C 
ATOM     12  O   UNL     1      30.081  24.776  18.730  0.00  0.00    -0.274 OA
ATOM     13  H   UNL     1      31.961  20.413  14.592  0.00  0.00    +0.151 HD
BRANCH   3  15
ATOM     14  C   UNL     1      33.073  26.465  19.534  0.00  0.00    +0.024 C 
ATOM     15  C   UNL     1      32.387  25.281  20.190  0.00  0.00    +0.104 C 
ENDBRANCH   3  15
ENDBRANCH   1   9
BRANCH   1  16
ATOM     16  C   UNL     1      30.919  22.708  13.460  0.00  0.00    -0.024 A 
ATOM     17  C   UNL     1      31.716  22.160  12.449  0.00  0.00    +0.009 A 
ATOM     18  C   UNL     1      32.137  22.937  11.368  0.00  0.00    +0.049 A 
ATOM     19  C   UNL     1      31.800  24.296  11.297  0.00  0.00    +0.156 A 
ATOM     20  C   UNL     1      30.975  24.831  12.283  0.00  0.00    +0.165 A 
ATOM     21  F   UNL     1      30.597  26.118  12.229  0.00  0.00    -0.202 F 
ATOM     22  C   UNL     1      30.545  24.059  13.361  0.00  0.00    +0.047 A 
BRANCH  19  23
ATOM     23  O   UNL     1      32.234  25.148  10.321  0.00  0.00    -0.489 OA
BRANCH  23  24
ATOM     24  C   UNL     1      33.630  25.069  10.029  0.00  0.00    +0.232 C 
BRANCH  24  25
ATOM     25  C   UNL     1      34.393  25.876  11.031  0.00  0.00    +0.027 C 
ATOM     26  C   UNL     1      33.982  27.302  11.295  0.00  0.00    +0.007 C 
ATOM     27  C   UNL     1      35.273  27.014  10.580  0.00  0.00    +0.007 C 
ENDBRANCH  24  25
ENDBRANCH  23  24
ENDBRANCH  19  23
ENDBRANCH   1  16
TORSDOF 6
ENDMDL
MODEL 9
REMARK VINA RESULT:      -6.2      5.442      8.800
REMARK  Name = ZINC000543478179
REMARK  8 active torsions:
REMARK  status: ('A' for Active; 'I' for Inactive)
REMARK    1  A    between atoms: C_1  and  C_2
REMARK    2  A    between atoms: C_2  and  N_3
REMARK    3  A    between atoms: N_9  and  C_10
REMARK    4  A    between atoms: C_10  and  C_11
REMARK    5  A    between atoms: C_10  and  C_12
REMARK    6  A    between atoms: C_15  and  O_16
REMARK    7  A    between atoms: O_16  and  C_17
REMARK    8  A    between atoms: C_17  and  C_18
REMARK                            x       y       z     vdW  Elec       q    Type
REMARK                         _______ _______ _______ _____ _____    ______ ____
ROOT
ATOM      1  C   UNL     1      33.921  25.845  22.347  0.00  0.00    +0.102 C 
ATOM      2  C   UNL     1      35.156  26.404  21.635  0.00  0.00    +0.033 C 
ENDROOT
BRANCH   1   9
ATOM      3  N   UNL     1      32.558  23.942  27.256  0.00  0.00    -0.299 N 
ATOM      4  C   UNL     1      31.757  25.165  27.285  0.00  0.00    +0.127 C 
ATOM      5  C   UNL     1      32.529  26.363  26.724  0.00  0.00    +0.129 C 
ATOM      6  N   UNL     1      32.981  26.085  25.358  0.00  0.00    -0.275 N 
ATOM      7  C   UNL     1      32.815  27.038  24.394  0.00  0.00    +0.303 C 
ATOM      8  O   UNL     1      32.275  28.121  24.643  0.00  0.00    -0.253 OA
ATOM      9  N   UNL     1      33.209  26.864  23.113  0.00  0.00    -0.293 N 
ATOM     10  C   UNL     1      33.596  24.779  25.178  0.00  0.00    +0.205 C 
ATOM     11  C   UNL     1      33.548  23.756  26.313  0.00  0.00    +0.233 C 
ATOM     12  O   UNL     1      34.279  22.763  26.282  0.00  0.00    -0.274 OA
ATOM     13  H   UNL     1      32.962  27.694  22.588  0.00  0.00    +0.151 HD
BRANCH   3  15
ATOM     14  C   UNL     1      31.294  23.344  29.265  0.00  0.00    +0.024 C 
ATOM     15  C   UNL     1      32.291  22.887  28.215  0.00  0.00    +0.104 C 
ENDBRANCH   3  15
ENDBRANCH   1   9
BRANCH   1  16
ATOM     16  C   UNL     1      32.969  25.159  21.385  0.00  0.00    -0.024 A 
ATOM     17  C   UNL     1      32.677  25.700  20.127  0.00  0.00    +0.009 A 
ATOM     18  C   UNL     1      31.783  25.065  19.264  0.00  0.00    +0.049 A 
ATOM     19  C   UNL     1      31.128  23.891  19.659  0.00  0.00    +0.156 A 
ATOM     20  C   UNL     1      31.447  23.332  20.894  0.00  0.00    +0.165 A 
ATOM     21  F   UNL     1      30.872  22.186  21.291  0.00  0.00    -0.202 F 
ATOM     22  C   UNL     1      32.345  23.956  21.757  0.00  0.00    +0.047 A 
BRANCH  19  23
ATOM     23  O   UNL     1      30.180  23.248  18.913  0.00  0.00    -0.489 OA
BRANCH  23  24
ATOM     24  C   UNL     1      30.558  22.974  17.564  0.00  0.00    +0.232 C 
BRANCH  24  25
ATOM     25  C   UNL     1      29.369  23.139  16.671  0.00  0.00    +0.027 C 
ATOM     26  C   UNL     1      28.098  22.394  16.992  0.00  0.00    +0.007 C 
ATOM     27  C   UNL     1      28.914  22.002  15.791  0.00  0.00    +0.007 C 
ENDBRANCH  24  25
ENDBRANCH  23  24
ENDBRANCH  19  23
ENDBRANCH   1  16
TORSDOF 6
ENDMDL
