MODEL 1
REMARK VINA RESULT:      -6.5      0.000      0.000
REMARK  Name = ZINC000826139982
REMARK  4 active torsions:
REMARK  status: ('A' for Active; 'I' for Inactive)
REMARK    1  A    between atoms: C_2  and  C_4
REMARK    2  A    between atoms: C_8  and  C_10
REMARK    3  A    between atoms: C_14  and  S_15
REMARK    4  A    between atoms: S_15  and  C_16
REMARK                            x       y       z     vdW  Elec       q    Type
REMARK                         _______ _______ _______ _____ _____    ______ ____
ROOT
ATOM      1  C   UNL     1      32.461  24.184  12.896  0.00  0.00    +0.093 C 
ATOM      2  C   UNL     1      33.211  22.888  12.567  0.00  0.00    +0.033 C 
ATOM      3  C   UNL     1      32.379  21.772  13.186  0.00  0.00    +0.109 C 
ATOM      4  N   UNL     1      31.697  22.409  14.293  0.00  0.00    -0.297 N 
ATOM      5  C   UNL     1      31.273  21.684  15.400  0.00  0.00    +0.247 C 
ATOM      6  O   UNL     1      31.534  20.487  15.522  0.00  0.00    -0.270 OA
ATOM      7  C   UNL     1      31.442  23.802  13.963  0.00  0.00    +0.120 C 
ENDROOT
BRANCH   5   8
ATOM      8  C   UNL     1      30.544  22.354  16.527  0.00  0.00    +0.038 A 
ATOM      9  C   UNL     1      29.150  22.379  16.636  0.00  0.00    +0.013 A 
ATOM     10  C   UNL     1      28.521  23.121  17.635  0.00  0.00    +0.002 A 
ATOM     11  C   UNL     1      29.283  23.764  18.605  0.00  0.00    +0.015 A 
ATOM     12  C   UNL     1      30.675  23.639  18.599  0.00  0.00    +0.017 A 
ATOM     13  C   UNL     1      31.302  22.966  17.540  0.00  0.00    +0.028 A 
BRANCH  12  14
ATOM     14  S   UNL     1      31.659  24.360  19.896  0.00  0.00    -0.016 S 
BRANCH  14  15
ATOM     15  C   UNL     1      31.128  23.385  21.320  0.00  0.00    +0.448 C 
ATOM     16  F   UNL     1      31.954  23.475  22.389  0.00  0.00    -0.160 F 
ATOM     17  F   UNL     1      29.898  23.770  21.737  0.00  0.00    -0.160 F 
ATOM     18  F   UNL     1      31.047  22.071  20.995  0.00  0.00    -0.160 F 
ENDBRANCH  14  15
ENDBRANCH  12  14
ENDBRANCH   5   8
BRANCH   1  20
ATOM     19  N   UNL     1      31.207  26.046  11.967  0.00  0.00    -0.329 N 
ATOM     20  C   UNL     1      31.811  24.853  11.699  0.00  0.00    +0.215 C 
ATOM     21  O   UNL     1      31.751  24.371  10.578  0.00  0.00    -0.276 OA
ATOM     22  H   UNL     1      30.701  26.492  11.212  0.00  0.00    +0.145 HD
ATOM     23  H   UNL     1      31.164  26.455  12.889  0.00  0.00    +0.145 HD
ENDBRANCH   1  20
TORSDOF 4
ENDMDL
MODEL 2
REMARK VINA RESULT:      -6.5      4.570      6.927
REMARK  Name = ZINC000826139982
REMARK  4 active torsions:
REMARK  status: ('A' for Active; 'I' for Inactive)
REMARK    1  A    between atoms: C_2  and  C_4
REMARK    2  A    between atoms: C_8  and  C_10
REMARK    3  A    between atoms: C_14  and  S_15
REMARK    4  A    between atoms: S_15  and  C_16
REMARK                            x       y       z     vdW  Elec       q    Type
REMARK                         _______ _______ _______ _____ _____    ______ ____
ROOT
ATOM      1  C   UNL     1      31.929  23.029  20.334  0.00  0.00    +0.093 C 
ATOM      2  C   UNL     1      33.238  23.787  20.082  0.00  0.00    +0.033 C 
ATOM      3  C   UNL     1      33.081  24.419  18.706  0.00  0.00    +0.109 C 
ATOM      4  N   UNL     1      32.155  23.544  18.016  0.00  0.00    -0.297 N 
ATOM      5  C   UNL     1      32.145  23.444  16.630  0.00  0.00    +0.247 C 
ATOM      6  O   UNL     1      32.976  24.031  15.938  0.00  0.00    -0.270 OA
ATOM      7  C   UNL     1      31.232  22.967  18.980  0.00  0.00    +0.120 C 
ENDROOT
BRANCH   5   8
ATOM      8  C   UNL     1      31.161  22.554  15.930  0.00  0.00    +0.038 A 
ATOM      9  C   UNL     1      29.777  22.747  15.976  0.00  0.00    +0.013 A 
ATOM     10  C   UNL     1      28.903  21.819  15.411  0.00  0.00    +0.002 A 
ATOM     11  C   UNL     1      29.407  20.738  14.697  0.00  0.00    +0.015 A 
ATOM     12  C   UNL     1      30.787  20.598  14.517  0.00  0.00    +0.017 A 
ATOM     13  C   UNL     1      31.658  21.485  15.164  0.00  0.00    +0.028 A 
BRANCH  12  14
ATOM     14  S   UNL     1      31.444  19.284  13.510  0.00  0.00    -0.016 S 
BRANCH  14  15
ATOM     15  C   UNL     1      31.168  17.854  14.577  0.00  0.00    +0.448 C 
ATOM     16  F   UNL     1      29.863  17.530  14.738  0.00  0.00    -0.160 F 
ATOM     17  F   UNL     1      31.791  16.757  14.084  0.00  0.00    -0.160 F 
ATOM     18  F   UNL     1      31.674  18.078  15.815  0.00  0.00    -0.160 F 
ENDBRANCH  14  15
ENDBRANCH  12  14
ENDBRANCH   5   8
BRANCH   1  20
ATOM     19  N   UNL     1      31.705  24.066  22.519  0.00  0.00    -0.329 N 
ATOM     20  C   UNL     1      31.045  23.643  21.403  0.00  0.00    +0.215 C 
ATOM     21  O   UNL     1      29.827  23.717  21.344  0.00  0.00    -0.276 OA
ATOM     22  H   UNL     1      31.146  24.418  23.286  0.00  0.00    +0.145 HD
ATOM     23  H   UNL     1      32.701  23.963  22.650  0.00  0.00    +0.145 HD
ENDBRANCH   1  20
TORSDOF 4
ENDMDL
MODEL 3
REMARK VINA RESULT:      -6.4      4.725      7.130
REMARK  Name = ZINC000826139982
REMARK  4 active torsions:
REMARK  status: ('A' for Active; 'I' for Inactive)
REMARK    1  A    between atoms: C_2  and  C_4
REMARK    2  A    between atoms: C_8  and  C_10
REMARK    3  A    between atoms: C_14  and  S_15
REMARK    4  A    between atoms: S_15  and  C_16
REMARK                            x       y       z     vdW  Elec       q    Type
REMARK                         _______ _______ _______ _____ _____    ______ ____
ROOT
ATOM      1  C   UNL     1      30.562  24.238  19.169  0.00  0.00    +0.093 C 
ATOM      2  C   UNL     1      29.053  24.348  19.410  0.00  0.00    +0.033 C 
ATOM      3  C   UNL     1      28.435  23.185  18.645  0.00  0.00    +0.109 C 
ATOM      4  N   UNL     1      29.371  22.929  17.570  0.00  0.00    -0.297 N 
ATOM      5  C   UNL     1      28.966  22.340  16.379  0.00  0.00    +0.247 C 
ATOM      6  O   UNL     1      27.782  22.089  16.157  0.00  0.00    -0.270 OA
ATOM      7  C   UNL     1      30.717  23.249  18.019  0.00  0.00    +0.120 C 
ENDROOT
BRANCH   5   8
ATOM      8  C   UNL     1      29.954  22.057  15.285  0.00  0.00    +0.038 A 
ATOM      9  C   UNL     1      30.365  23.011  14.350  0.00  0.00    +0.013 A 
ATOM     10  C   UNL     1      31.189  22.662  13.281  0.00  0.00    +0.002 A 
ATOM     11  C   UNL     1      31.700  21.372  13.194  0.00  0.00    +0.015 A 
ATOM     12  C   UNL     1      31.416  20.435  14.192  0.00  0.00    +0.017 A 
ATOM     13  C   UNL     1      30.515  20.770  15.214  0.00  0.00    +0.028 A 
BRANCH  12  14
ATOM     14  S   UNL     1      32.153  18.815  14.156  0.00  0.00    -0.016 S 
BRANCH  14  15
ATOM     15  C   UNL     1      30.747  17.801  13.654  0.00  0.00    +0.448 C 
ATOM     16  F   UNL     1      29.946  18.387  12.732  0.00  0.00    -0.160 F 
ATOM     17  F   UNL     1      31.163  16.625  13.127  0.00  0.00    -0.160 F 
ATOM     18  F   UNL     1      29.967  17.505  14.723  0.00  0.00    -0.160 F 
ENDBRANCH  14  15
ENDBRANCH  12  14
ENDBRANCH   5   8
BRANCH   1  20
ATOM     19  N   UNL     1      30.708  23.958  21.577  0.00  0.00    -0.329 N 
ATOM     20  C   UNL     1      31.363  23.823  20.389  0.00  0.00    +0.215 C 
ATOM     21  O   UNL     1      32.527  23.452  20.367  0.00  0.00    -0.276 OA
ATOM     22  H   UNL     1      31.229  23.759  22.422  0.00  0.00    +0.145 HD
ATOM     23  H   UNL     1      29.772  24.328  21.659  0.00  0.00    +0.145 HD
ENDBRANCH   1  20
TORSDOF 4
ENDMDL
MODEL 4
REMARK VINA RESULT:      -6.4      2.778      4.410
REMARK  Name = ZINC000826139982
REMARK  4 active torsions:
REMARK  status: ('A' for Active; 'I' for Inactive)
REMARK    1  A    between atoms: C_2  and  C_4
REMARK    2  A    between atoms: C_8  and  C_10
REMARK    3  A    between atoms: C_14  and  S_15
REMARK    4  A    between atoms: S_15  and  C_16
REMARK                            x       y       z     vdW  Elec       q    Type
REMARK                         _______ _______ _______ _____ _____    ______ ____
ROOT
ATOM      1  C   UNL     1      31.821  18.082  14.843  0.00  0.00    +0.093 C 
ATOM      2  C   UNL     1      30.463  17.794  14.194  0.00  0.00    +0.033 C 
ATOM      3  C   UNL     1      29.999  19.126  13.620  0.00  0.00    +0.109 C 
ATOM      4  N   UNL     1      30.640  20.117  14.459  0.00  0.00    -0.297 N 
ATOM      5  C   UNL     1      30.101  21.387  14.625  0.00  0.00    +0.247 C 
ATOM      6  O   UNL     1      29.015  21.693  14.134  0.00  0.00    -0.270 OA
ATOM      7  C   UNL     1      31.918  19.600  14.921  0.00  0.00    +0.120 C 
ENDROOT
BRANCH   5   8
ATOM      8  C   UNL     1      30.792  22.411  15.476  0.00  0.00    +0.038 A 
ATOM      9  C   UNL     1      31.829  23.226  15.012  0.00  0.00    +0.013 A 
ATOM     10  C   UNL     1      32.519  24.074  15.877  0.00  0.00    +0.002 A 
ATOM     11  C   UNL     1      32.109  24.196  17.200  0.00  0.00    +0.015 A 
ATOM     12  C   UNL     1      30.987  23.497  17.654  0.00  0.00    +0.017 A 
ATOM     13  C   UNL     1      30.355  22.580  16.801  0.00  0.00    +0.028 A 
BRANCH  12  14
ATOM     14  S   UNL     1      30.379  23.728  19.312  0.00  0.00    -0.016 S 
BRANCH  14  15
ATOM     15  C   UNL     1      31.599  22.799  20.265  0.00  0.00    +0.448 C 
ATOM     16  F   UNL     1      32.590  23.561  20.785  0.00  0.00    -0.160 F 
ATOM     17  F   UNL     1      31.012  22.151  21.300  0.00  0.00    -0.160 F 
ATOM     18  F   UNL     1      32.192  21.857  19.490  0.00  0.00    -0.160 F 
ENDBRANCH  14  15
ENDBRANCH  12  14
ENDBRANCH   5   8
BRANCH   1  20
ATOM     19  N   UNL     1      32.936  16.120  13.942  0.00  0.00    -0.329 N 
ATOM     20  C   UNL     1      33.005  17.471  14.116  0.00  0.00    +0.215 C 
ATOM     21  O   UNL     1      33.994  18.088  13.752  0.00  0.00    -0.276 OA
ATOM     22  H   UNL     1      33.736  15.663  13.523  0.00  0.00    +0.145 HD
ATOM     23  H   UNL     1      32.176  15.552  14.286  0.00  0.00    +0.145 HD
ENDBRANCH   1  20
TORSDOF 4
ENDMDL
MODEL 5
REMARK VINA RESULT:      -6.4      3.168      4.611
REMARK  Name = ZINC000826139982
REMARK  4 active torsions:
REMARK  status: ('A' for Active; 'I' for Inactive)
REMARK    1  A    between atoms: C_2  and  C_4
REMARK    2  A    between atoms: C_8  and  C_10
REMARK    3  A    between atoms: C_14  and  S_15
REMARK    4  A    between atoms: S_15  and  C_16
REMARK                            x       y       z     vdW  Elec       q    Type
REMARK                         _______ _______ _______ _____ _____    ______ ____
ROOT
ATOM      1  C   UNL     1      30.029  22.032  15.625  0.00  0.00    +0.093 C 
ATOM      2  C   UNL     1      28.544  21.700  15.811  0.00  0.00    +0.033 C 
ATOM      3  C   UNL     1      28.040  22.682  16.860  0.00  0.00    +0.109 C 
ATOM      4  N   UNL     1      29.214  22.995  17.648  0.00  0.00    -0.297 N 
ATOM      5  C   UNL     1      29.113  23.411  18.970  0.00  0.00    +0.247 C 
ATOM      6  O   UNL     1      28.029  23.450  19.550  0.00  0.00    -0.270 OA
ATOM      7  C   UNL     1      30.392  22.933  16.798  0.00  0.00    +0.120 C 
ENDROOT
BRANCH   5   8
ATOM      8  C   UNL     1      30.338  23.759  19.763  0.00  0.00    +0.038 A 
ATOM      9  C   UNL     1      30.734  23.069  20.913  0.00  0.00    +0.013 A 
ATOM     10  C   UNL     1      31.810  23.511  21.682  0.00  0.00    +0.002 A 
ATOM     11  C   UNL     1      32.573  24.590  21.250  0.00  0.00    +0.015 A 
ATOM     12  C   UNL     1      32.283  25.211  20.031  0.00  0.00    +0.017 A 
ATOM     13  C   UNL     1      31.146  24.817  19.312  0.00  0.00    +0.028 A 
BRANCH  12  14
ATOM     14  S   UNL     1      33.317  26.520  19.408  0.00  0.00    -0.016 S 
BRANCH  14  15
ATOM     15  C   UNL     1      34.238  25.655  18.119  0.00  0.00    +0.448 C 
ATOM     16  F   UNL     1      33.474  25.232  17.084  0.00  0.00    -0.160 F 
ATOM     17  F   UNL     1      35.204  26.450  17.600  0.00  0.00    -0.160 F 
ATOM     18  F   UNL     1      34.855  24.559  18.627  0.00  0.00    -0.160 F 
ENDBRANCH  14  15
ENDBRANCH  12  14
ENDBRANCH   5   8
BRANCH   1  20
ATOM     19  N   UNL     1      29.966  23.965  14.155  0.00  0.00    -0.329 N 
ATOM     20  C   UNL     1      30.366  22.669  14.289  0.00  0.00    +0.215 C 
ATOM     21  O   UNL     1      30.896  22.089  13.353  0.00  0.00    -0.276 OA
ATOM     22  H   UNL     1      30.109  24.407  13.255  0.00  0.00    +0.145 HD
ATOM     23  H   UNL     1      29.461  24.470  14.870  0.00  0.00    +0.145 HD
ENDBRANCH   1  20
TORSDOF 4
ENDMDL
MODEL 6
REMARK VINA RESULT:      -6.4      2.314      3.938
REMARK  Name = ZINC000826139982
REMARK  4 active torsions:
REMARK  status: ('A' for Active; 'I' for Inactive)
REMARK    1  A    between atoms: C_2  and  C_4
REMARK    2  A    between atoms: C_8  and  C_10
REMARK    3  A    between atoms: C_14  and  S_15
REMARK    4  A    between atoms: S_15  and  C_16
REMARK                            x       y       z     vdW  Elec       q    Type
REMARK                         _______ _______ _______ _____ _____    ______ ____
ROOT
ATOM      1  C   UNL     1      32.467  18.817  14.632  0.00  0.00    +0.093 C 
ATOM      2  C   UNL     1      32.379  19.137  13.136  0.00  0.00    +0.033 C 
ATOM      3  C   UNL     1      32.154  20.641  13.057  0.00  0.00    +0.109 C 
ATOM      4  N   UNL     1      31.491  20.967  14.302  0.00  0.00    -0.297 N 
ATOM      5  C   UNL     1      30.662  22.077  14.415  0.00  0.00    +0.247 C 
ATOM      6  O   UNL     1      30.393  22.779  13.441  0.00  0.00    -0.270 OA
ATOM      7  C   UNL     1      31.952  20.062  15.342  0.00  0.00    +0.120 C 
ENDROOT
BRANCH   5   8
ATOM      8  C   UNL     1      30.004  22.417  15.719  0.00  0.00    +0.038 A 
ATOM      9  C   UNL     1      28.695  22.048  16.042  0.00  0.00    +0.013 A 
ATOM     10  C   UNL     1      28.091  22.496  17.216  0.00  0.00    +0.002 A 
ATOM     11  C   UNL     1      28.827  23.234  18.136  0.00  0.00    +0.015 A 
ATOM     12  C   UNL     1      30.180  23.497  17.902  0.00  0.00    +0.017 A 
ATOM     13  C   UNL     1      30.753  23.120  16.679  0.00  0.00    +0.028 A 
BRANCH  12  14
ATOM     14  S   UNL     1      31.167  24.341  19.121  0.00  0.00    -0.016 S 
BRANCH  14  15
ATOM     15  C   UNL     1      31.719  22.959  20.143  0.00  0.00    +0.448 C 
ATOM     16  F   UNL     1      30.760  22.457  20.956  0.00  0.00    -0.160 F 
ATOM     17  F   UNL     1      32.161  21.935  19.373  0.00  0.00    -0.160 F 
ATOM     18  F   UNL     1      32.751  23.335  20.937  0.00  0.00    -0.160 F 
ENDBRANCH  14  15
ENDBRANCH  12  14
ENDBRANCH   5   8
BRANCH   1  20
ATOM     19  N   UNL     1      34.247  17.167  14.741  0.00  0.00    -0.329 N 
ATOM     20  C   UNL     1      33.852  18.420  15.108  0.00  0.00    +0.215 C 
ATOM     21  O   UNL     1      34.569  19.108  15.818  0.00  0.00    -0.276 OA
ATOM     22  H   UNL     1      35.136  16.836  15.096  0.00  0.00    +0.145 HD
ATOM     23  H   UNL     1      33.665  16.530  14.216  0.00  0.00    +0.145 HD
ENDBRANCH   1  20
TORSDOF 4
ENDMDL
MODEL 7
REMARK VINA RESULT:      -6.4      1.279      1.537
REMARK  Name = ZINC000826139982
REMARK  4 active torsions:
REMARK  status: ('A' for Active; 'I' for Inactive)
REMARK    1  A    between atoms: C_2  and  C_4
REMARK    2  A    between atoms: C_8  and  C_10
REMARK    3  A    between atoms: C_14  and  S_15
REMARK    4  A    between atoms: S_15  and  C_16
REMARK                            x       y       z     vdW  Elec       q    Type
REMARK                         _______ _______ _______ _____ _____    ______ ____
ROOT
ATOM      1  C   UNL     1      32.546  23.465  12.217  0.00  0.00    +0.093 C 
ATOM      2  C   UNL     1      33.282  22.140  11.986  0.00  0.00    +0.033 C 
ATOM      3  C   UNL     1      32.387  21.069  12.594  0.00  0.00    +0.109 C 
ATOM      4  N   UNL     1      31.654  21.765  13.631  0.00  0.00    -0.297 N 
ATOM      5  C   UNL     1      31.145  21.094  14.736  0.00  0.00    +0.247 C 
ATOM      6  O   UNL     1      31.368  19.897  14.920  0.00  0.00    -0.270 OA
ATOM      7  C   UNL     1      31.454  23.148  13.232  0.00  0.00    +0.120 C 
ENDROOT
BRANCH   5   8
ATOM      8  C   UNL     1      30.364  21.824  15.788  0.00  0.00    +0.038 A 
ATOM      9  C   UNL     1      28.971  21.767  15.894  0.00  0.00    +0.013 A 
ATOM     10  C   UNL     1      28.286  22.563  16.811  0.00  0.00    +0.002 A 
ATOM     11  C   UNL     1      28.997  23.350  17.711  0.00  0.00    +0.015 A 
ATOM     12  C   UNL     1      30.394  23.318  17.719  0.00  0.00    +0.017 A 
ATOM     13  C   UNL     1      31.072  22.584  16.735  0.00  0.00    +0.028 A 
BRANCH  12  14
ATOM     14  S   UNL     1      31.318  24.231  18.938  0.00  0.00    -0.016 S 
BRANCH  14  15
ATOM     15  C   UNL     1      31.796  22.912  20.075  0.00  0.00    +0.448 C 
ATOM     16  F   UNL     1      32.284  21.807  19.464  0.00  0.00    -0.160 F 
ATOM     17  F   UNL     1      32.748  23.341  20.938  0.00  0.00    -0.160 F 
ATOM     18  F   UNL     1      30.733  22.515  20.818  0.00  0.00    -0.160 F 
ENDBRANCH  14  15
ENDBRANCH  12  14
ENDBRANCH   5   8
BRANCH   1  20
ATOM     19  N   UNL     1      32.678  23.814   9.817  0.00  0.00    -0.329 N 
ATOM     20  C   UNL     1      31.987  24.099  10.957  0.00  0.00    +0.215 C 
ATOM     21  O   UNL     1      31.035  24.864  10.924  0.00  0.00    -0.276 OA
ATOM     22  H   UNL     1      32.381  24.272   8.964  0.00  0.00    +0.145 HD
ATOM     23  H   UNL     1      33.514  23.247   9.798  0.00  0.00    +0.145 HD
ENDBRANCH   1  20
TORSDOF 4
ENDMDL
MODEL 8
REMARK VINA RESULT:      -6.3      4.751      7.072
REMARK  Name = ZINC000826139982
REMARK  4 active torsions:
REMARK  status: ('A' for Active; 'I' for Inactive)
REMARK    1  A    between atoms: C_2  and  C_4
REMARK    2  A    between atoms: C_8  and  C_10
REMARK    3  A    between atoms: C_14  and  S_15
REMARK    4  A    between atoms: S_15  and  C_16
REMARK                            x       y       z     vdW  Elec       q    Type
REMARK                         _______ _______ _______ _____ _____    ______ ____
ROOT
ATOM      1  C   UNL     1      30.333  24.191  19.415  0.00  0.00    +0.093 C 
ATOM      2  C   UNL     1      28.846  24.371  19.741  0.00  0.00    +0.033 C 
ATOM      3  C   UNL     1      28.130  23.255  18.993  0.00  0.00    +0.109 C 
ATOM      4  N   UNL     1      28.992  22.974  17.864  0.00  0.00    -0.297 N 
ATOM      5  C   UNL     1      28.493  22.429  16.687  0.00  0.00    +0.247 C 
ATOM      6  O   UNL     1      27.288  22.240  16.526  0.00  0.00    -0.270 OA
ATOM      7  C   UNL     1      30.374  23.219  18.243  0.00  0.00    +0.120 C 
ENDROOT
BRANCH   5   8
ATOM      8  C   UNL     1      29.404  22.118  15.536  0.00  0.00    +0.038 A 
ATOM      9  C   UNL     1      29.413  20.889  14.869  0.00  0.00    +0.013 A 
ATOM     10  C   UNL     1      30.364  20.611  13.888  0.00  0.00    +0.002 A 
ATOM     11  C   UNL     1      31.255  21.600  13.486  0.00  0.00    +0.015 A 
ATOM     12  C   UNL     1      31.176  22.881  14.040  0.00  0.00    +0.017 A 
ATOM     13  C   UNL     1      30.276  23.125  15.087  0.00  0.00    +0.028 A 
BRANCH  12  14
ATOM     14  S   UNL     1      32.233  24.190  13.456  0.00  0.00    -0.016 S 
BRANCH  14  15
ATOM     15  C   UNL     1      31.100  25.107  12.390  0.00  0.00    +0.448 C 
ATOM     16  F   UNL     1      31.626  26.241  11.871  0.00  0.00    -0.160 F 
ATOM     17  F   UNL     1      30.696  24.343  11.347  0.00  0.00    -0.160 F 
ATOM     18  F   UNL     1      29.987  25.466  13.076  0.00  0.00    -0.160 F 
ENDBRANCH  14  15
ENDBRANCH  12  14
ENDBRANCH   5   8
BRANCH   1  20
ATOM     19  N   UNL     1      30.632  23.936  21.812  0.00  0.00    -0.329 N 
ATOM     20  C   UNL     1      31.177  23.714  20.582  0.00  0.00    +0.215 C 
ATOM     21  O   UNL     1      32.291  23.223  20.483  0.00  0.00    -0.276 OA
ATOM     22  H   UNL     1      31.192  23.696  22.621  0.00  0.00    +0.145 HD
ATOM     23  H   UNL     1      29.748  24.403  21.955  0.00  0.00    +0.145 HD
ENDBRANCH   1  20
TORSDOF 4
ENDMDL
MODEL 9
REMARK VINA RESULT:      -6.3      2.638      3.580
REMARK  Name = ZINC000826139982
REMARK  4 active torsions:
REMARK  status: ('A' for Active; 'I' for Inactive)
REMARK    1  A    between atoms: C_2  and  C_4
REMARK    2  A    between atoms: C_8  and  C_10
REMARK    3  A    between atoms: C_14  and  S_15
REMARK    4  A    between atoms: S_15  and  C_16
REMARK                            x       y       z     vdW  Elec       q    Type
REMARK                         _______ _______ _______ _____ _____    ______ ____
ROOT
ATOM      1  C   UNL     1      31.270  21.421  14.122  0.00  0.00    +0.093 C 
ATOM      2  C   UNL     1      31.462  19.921  13.872  0.00  0.00    +0.033 C 
ATOM      3  C   UNL     1      31.600  19.295  15.254  0.00  0.00    +0.109 C 
ATOM      4  N   UNL     1      32.135  20.362  16.075  0.00  0.00    -0.297 N 
ATOM      5  C   UNL     1      32.882  20.095  17.216  0.00  0.00    +0.247 C 
ATOM      6  O   UNL     1      33.188  18.945  17.530  0.00  0.00    -0.270 OA
ATOM      7  C   UNL     1      31.646  21.639  15.582  0.00  0.00    +0.120 C 
ENDROOT
BRANCH   5   8
ATOM      8  C   UNL     1      33.406  21.211  18.071  0.00  0.00    +0.038 A 
ATOM      9  C   UNL     1      34.764  21.399  18.346  0.00  0.00    +0.013 A 
ATOM     10  C   UNL     1      35.186  22.377  19.246  0.00  0.00    +0.002 A 
ATOM     11  C   UNL     1      34.260  23.251  19.804  0.00  0.00    +0.015 A 
ATOM     12  C   UNL     1      32.913  23.172  19.439  0.00  0.00    +0.017 A 
ATOM     13  C   UNL     1      32.486  22.130  18.603  0.00  0.00    +0.028 A 
BRANCH  12  14
ATOM     14  S   UNL     1      31.732  24.355  20.056  0.00  0.00    -0.016 S 
BRANCH  14  15
ATOM     15  C   UNL     1      31.033  23.454  21.455  0.00  0.00    +0.448 C 
ATOM     16  F   UNL     1      31.043  22.108  21.306  0.00  0.00    -0.160 F 
ATOM     17  F   UNL     1      31.710  23.731  22.595  0.00  0.00    -0.160 F 
ATOM     18  F   UNL     1      29.743  23.818  21.659  0.00  0.00    -0.160 F 
ENDBRANCH  14  15
ENDBRANCH  12  14
ENDBRANCH   5   8
BRANCH   1  20
ATOM     19  N   UNL     1      29.821  23.238  13.415  0.00  0.00    -0.329 N 
ATOM     20  C   UNL     1      29.877  21.934  13.808  0.00  0.00    +0.215 C 
ATOM     21  O   UNL     1      28.848  21.288  13.943  0.00  0.00    -0.276 OA
ATOM     22  H   UNL     1      28.905  23.641  13.262  0.00  0.00    +0.145 HD
ATOM     23  H   UNL     1      30.632  23.838  13.355  0.00  0.00    +0.145 HD
ENDBRANCH   1  20
TORSDOF 4
ENDMDL
