MODEL 1
REMARK VINA RESULT:      -6.9      0.000      0.000
REMARK  Name = ZINC000583127796
REMARK  2 active torsions:
REMARK  status: ('A' for Active; 'I' for Inactive)
REMARK    1  A    between atoms: C_2  and  C_4
REMARK    2  A    between atoms: C_7  and  C_8
REMARK                            x       y       z     vdW  Elec       q    Type
REMARK                         _______ _______ _______ _____ _____    ______ ____
ROOT
ATOM      1  C   UNL     1      30.281  17.290  14.129  0.00  0.00    +0.247 C 
ATOM      2  O   UNL     1      29.768  16.435  13.409  0.00  0.00    -0.270 OA
ATOM      3  N   UNL     1      31.660  17.331  14.394  0.00  0.00    -0.297 N 
ATOM      4  C   UNL     1      32.358  18.312  15.229  0.00  0.00    +0.108 C 
ATOM      5  C   UNL     1      33.496  18.994  14.492  0.00  0.00    +0.020 C 
ATOM      6  C   UNL     1      34.418  17.984  13.834  0.00  0.00    +0.011 C 
ATOM      7  C   UNL     1      33.663  16.968  12.942  0.00  0.00    -0.004 C 
ATOM      8  C   UNL     1      34.702  15.936  12.453  0.00  0.00    +0.020 C 
ATOM      9  C   UNL     1      34.222  15.293  11.170  0.00  0.00    +0.070 C 
ATOM     10  S   UNL     1      33.505  16.655  10.238  0.00  0.00    -0.160 S 
ATOM     11  C   UNL     1      33.069  17.654  11.689  0.00  0.00    +0.077 C 
ATOM     12  C   UNL     1      32.530  16.314  13.781  0.00  0.00    +0.115 C 
ENDROOT
BRANCH   1  16
ATOM     13  C   UNL     1      28.001  20.473  15.853  0.00  0.00    +0.037 A 
ATOM     14  C   UNL     1      27.600  19.151  16.070  0.00  0.00    +0.014 A 
ATOM     15  C   UNL     1      28.263  18.106  15.421  0.00  0.00    +0.014 A 
ATOM     16  C   UNL     1      29.391  18.371  14.637  0.00  0.00    +0.037 A 
ATOM     17  C   UNL     1      29.725  19.700  14.338  0.00  0.00    +0.014 A 
ATOM     18  C   UNL     1      29.023  20.749  14.936  0.00  0.00    +0.014 A 
BRANCH  13  20
ATOM     19  N   UNL     1      28.186  22.399  17.325  0.00  0.00    -0.325 N 
ATOM     20  C   UNL     1      27.364  21.601  16.580  0.00  0.00    +0.242 C 
ATOM     21  O   UNL     1      26.170  21.835  16.474  0.00  0.00    -0.270 OA
ATOM     22  H   UNL     1      27.760  23.235  17.709  0.00  0.00    +0.145 HD
ATOM     23  H   UNL     1      29.189  22.400  17.206  0.00  0.00    +0.145 HD
ENDBRANCH  13  20
ENDBRANCH   1  16
TORSDOF 2
ENDMDL
MODEL 2
REMARK VINA RESULT:      -6.5      4.533      5.488
REMARK  Name = ZINC000583127796
REMARK  2 active torsions:
REMARK  status: ('A' for Active; 'I' for Inactive)
REMARK    1  A    between atoms: C_2  and  C_4
REMARK    2  A    between atoms: C_7  and  C_8
REMARK                            x       y       z     vdW  Elec       q    Type
REMARK                         _______ _______ _______ _____ _____    ______ ____
ROOT
ATOM      1  C   UNL     1      32.222  22.497  14.024  0.00  0.00    +0.247 C 
ATOM      2  O   UNL     1      33.088  21.678  14.328  0.00  0.00    -0.270 OA
ATOM      3  N   UNL     1      32.478  23.596  13.189  0.00  0.00    -0.297 N 
ATOM      4  C   UNL     1      31.512  24.614  12.768  0.00  0.00    +0.108 C 
ATOM      5  C   UNL     1      31.444  24.759  11.258  0.00  0.00    +0.020 C 
ATOM      6  C   UNL     1      32.824  24.937  10.653  0.00  0.00    +0.011 C 
ATOM      7  C   UNL     1      33.824  23.841  11.096  0.00  0.00    -0.004 C 
ATOM      8  C   UNL     1      35.202  24.225  10.514  0.00  0.00    +0.020 C 
ATOM      9  C   UNL     1      36.066  22.990  10.383  0.00  0.00    +0.070 C 
ATOM     10  S   UNL     1      34.935  21.725   9.784  0.00  0.00    -0.160 S 
ATOM     11  C   UNL     1      33.443  22.463  10.507  0.00  0.00    +0.077 C 
ATOM     12  C   UNL     1      33.836  23.776  12.648  0.00  0.00    +0.115 C 
ENDROOT
BRANCH   1  16
ATOM     13  C   UNL     1      28.396  21.481  15.646  0.00  0.00    +0.037 A 
ATOM     14  C   UNL     1      28.784  20.934  14.419  0.00  0.00    +0.014 A 
ATOM     15  C   UNL     1      29.978  21.344  13.820  0.00  0.00    +0.014 A 
ATOM     16  C   UNL     1      30.835  22.221  14.492  0.00  0.00    +0.037 A 
ATOM     17  C   UNL     1      30.397  22.846  15.668  0.00  0.00    +0.014 A 
ATOM     18  C   UNL     1      29.173  22.485  16.238  0.00  0.00    +0.014 A 
BRANCH  13  20
ATOM     19  N   UNL     1      27.127  19.699  16.707  0.00  0.00    -0.325 N 
ATOM     20  C   UNL     1      27.170  21.016  16.344  0.00  0.00    +0.242 C 
ATOM     21  O   UNL     1      26.266  21.788  16.627  0.00  0.00    -0.270 OA
ATOM     22  H   UNL     1      26.345  19.429  17.293  0.00  0.00    +0.145 HD
ATOM     23  H   UNL     1      27.955  19.122  16.739  0.00  0.00    +0.145 HD
ENDBRANCH  13  20
ENDBRANCH   1  16
TORSDOF 2
ENDMDL
MODEL 3
REMARK VINA RESULT:      -6.1      6.942      7.972
REMARK  Name = ZINC000583127796
REMARK  2 active torsions:
REMARK  status: ('A' for Active; 'I' for Inactive)
REMARK    1  A    between atoms: C_2  and  C_4
REMARK    2  A    between atoms: C_7  and  C_8
REMARK                            x       y       z     vdW  Elec       q    Type
REMARK                         _______ _______ _______ _____ _____    ______ ____
ROOT
ATOM      1  C   UNL     1      33.264  24.888   9.705  0.00  0.00    +0.247 C 
ATOM      2  O   UNL     1      33.661  26.041   9.547  0.00  0.00    -0.270 OA
ATOM      3  N   UNL     1      33.412  23.894   8.723  0.00  0.00    -0.297 N 
ATOM      4  C   UNL     1      32.978  22.498   8.825  0.00  0.00    +0.108 C 
ATOM      5  C   UNL     1      34.108  21.520   8.556  0.00  0.00    +0.020 C 
ATOM      6  C   UNL     1      34.829  21.844   7.261  0.00  0.00    +0.011 C 
ATOM      7  C   UNL     1      35.294  23.319   7.181  0.00  0.00    -0.004 C 
ATOM      8  C   UNL     1      35.885  23.531   5.771  0.00  0.00    +0.020 C 
ATOM      9  C   UNL     1      36.858  24.691   5.790  0.00  0.00    +0.070 C 
ATOM     10  S   UNL     1      37.754  24.484   7.337  0.00  0.00    -0.160 S 
ATOM     11  C   UNL     1      36.420  23.609   8.201  0.00  0.00    +0.077 C 
ATOM     12  C   UNL     1      34.074  24.242   7.455  0.00  0.00    +0.115 C 
ENDROOT
BRANCH   1  16
ATOM     13  C   UNL     1      31.622  23.523  13.412  0.00  0.00    +0.037 A 
ATOM     14  C   UNL     1      30.843  24.331  12.577  0.00  0.00    +0.014 A 
ATOM     15  C   UNL     1      31.403  24.880  11.420  0.00  0.00    +0.014 A 
ATOM     16  C   UNL     1      32.705  24.540  11.041  0.00  0.00    +0.037 A 
ATOM     17  C   UNL     1      33.514  23.818  11.930  0.00  0.00    +0.014 A 
ATOM     18  C   UNL     1      32.976  23.321  13.119  0.00  0.00    +0.014 A 
BRANCH  13  20
ATOM     19  N   UNL     1      29.916  23.436  15.142  0.00  0.00    -0.325 N 
ATOM     20  C   UNL     1      31.039  22.867  14.610  0.00  0.00    +0.242 C 
ATOM     21  O   UNL     1      31.511  21.837  15.066  0.00  0.00    -0.270 OA
ATOM     22  H   UNL     1      29.459  22.908  15.876  0.00  0.00    +0.145 HD
ATOM     23  H   UNL     1      29.356  24.104  14.631  0.00  0.00    +0.145 HD
ENDBRANCH  13  20
ENDBRANCH   1  16
TORSDOF 2
ENDMDL
MODEL 4
REMARK VINA RESULT:      -6.0      6.847      9.083
REMARK  Name = ZINC000583127796
REMARK  2 active torsions:
REMARK  status: ('A' for Active; 'I' for Inactive)
REMARK    1  A    between atoms: C_2  and  C_4
REMARK    2  A    between atoms: C_7  and  C_8
REMARK                            x       y       z     vdW  Elec       q    Type
REMARK                         _______ _______ _______ _____ _____    ______ ____
ROOT
ATOM      1  C   UNL     1      32.277  24.517  11.195  0.00  0.00    +0.247 C 
ATOM      2  O   UNL     1      31.137  24.971  11.266  0.00  0.00    -0.270 OA
ATOM      3  N   UNL     1      32.955  23.990  12.306  0.00  0.00    -0.297 N 
ATOM      4  C   UNL     1      34.306  23.424  12.315  0.00  0.00    +0.108 C 
ATOM      5  C   UNL     1      34.341  22.019  12.888  0.00  0.00    +0.020 C 
ATOM      6  C   UNL     1      33.640  21.947  14.232  0.00  0.00    +0.011 C 
ATOM      7  C   UNL     1      32.207  22.534  14.196  0.00  0.00    -0.004 C 
ATOM      8  C   UNL     1      31.675  22.515  15.646  0.00  0.00    +0.020 C 
ATOM      9  C   UNL     1      30.162  22.501  15.637  0.00  0.00    +0.070 C 
ATOM     10  S   UNL     1      29.741  21.375  14.297  0.00  0.00    -0.160 S 
ATOM     11  C   UNL     1      31.261  21.655  13.346  0.00  0.00    +0.077 C 
ATOM     12  C   UNL     1      32.272  23.972  13.610  0.00  0.00    +0.115 C 
ENDROOT
BRANCH   1  16
ATOM     13  C   UNL     1      34.266  24.011   7.441  0.00  0.00    +0.037 A 
ATOM     14  C   UNL     1      34.565  25.129   8.227  0.00  0.00    +0.014 A 
ATOM     15  C   UNL     1      33.843  25.371   9.398  0.00  0.00    +0.014 A 
ATOM     16  C   UNL     1      32.894  24.444   9.841  0.00  0.00    +0.037 A 
ATOM     17  C   UNL     1      32.524  23.383   9.002  0.00  0.00    +0.014 A 
ATOM     18  C   UNL     1      33.202  23.174   7.797  0.00  0.00    +0.014 A 
BRANCH  13  20
ATOM     19  N   UNL     1      35.317  24.713   5.364  0.00  0.00    -0.325 N 
ATOM     20  C   UNL     1      35.061  23.686   6.229  0.00  0.00    +0.242 C 
ATOM     21  O   UNL     1      35.509  22.566   6.042  0.00  0.00    -0.270 OA
ATOM     22  H   UNL     1      35.965  24.506   4.613  0.00  0.00    +0.145 HD
ATOM     23  H   UNL     1      35.204  25.682   5.629  0.00  0.00    +0.145 HD
ENDBRANCH  13  20
ENDBRANCH   1  16
TORSDOF 2
ENDMDL
MODEL 5
REMARK VINA RESULT:      -5.8      7.032      8.070
REMARK  Name = ZINC000583127796
REMARK  2 active torsions:
REMARK  status: ('A' for Active; 'I' for Inactive)
REMARK    1  A    between atoms: C_2  and  C_4
REMARK    2  A    between atoms: C_7  and  C_8
REMARK                            x       y       z     vdW  Elec       q    Type
REMARK                         _______ _______ _______ _____ _____    ______ ____
ROOT
ATOM      1  C   UNL     1      33.336  24.842  10.016  0.00  0.00    +0.247 C 
ATOM      2  O   UNL     1      33.878  25.919  10.256  0.00  0.00    -0.270 OA
ATOM      3  N   UNL     1      33.439  24.202   8.769  0.00  0.00    -0.297 N 
ATOM      4  C   UNL     1      32.836  22.920   8.396  0.00  0.00    +0.108 C 
ATOM      5  C   UNL     1      33.858  21.934   7.861  0.00  0.00    +0.020 C 
ATOM      6  C   UNL     1      34.708  22.552   6.766  0.00  0.00    +0.011 C 
ATOM      7  C   UNL     1      35.351  23.897   7.187  0.00  0.00    -0.004 C 
ATOM      8  C   UNL     1      36.067  24.464   5.943  0.00  0.00    +0.020 C 
ATOM      9  C   UNL     1      37.166  25.412   6.371  0.00  0.00    +0.070 C 
ATOM     10  S   UNL     1      37.913  24.602   7.795  0.00  0.00    -0.160 S 
ATOM     11  C   UNL     1      36.422  23.689   8.282  0.00  0.00    +0.077 C 
ATOM     12  C   UNL     1      34.232  24.842   7.707  0.00  0.00    +0.115 C 
ENDROOT
BRANCH   1  16
ATOM     13  C   UNL     1      31.471  23.190  13.493  0.00  0.00    +0.037 A 
ATOM     14  C   UNL     1      32.593  22.553  12.953  0.00  0.00    +0.014 A 
ATOM     15  C   UNL     1      33.144  23.011  11.753  0.00  0.00    +0.014 A 
ATOM     16  C   UNL     1      32.641  24.166  11.147  0.00  0.00    +0.037 A 
ATOM     17  C   UNL     1      31.456  24.739  11.632  0.00  0.00    +0.014 A 
ATOM     18  C   UNL     1      30.866  24.243  12.797  0.00  0.00    +0.014 A 
BRANCH  13  20
ATOM     19  N   UNL     1      29.747  23.383  15.197  0.00  0.00    -0.325 N 
ATOM     20  C   UNL     1      30.904  22.773  14.802  0.00  0.00    +0.242 C 
ATOM     21  O   UNL     1      31.420  21.888  15.467  0.00  0.00    -0.270 OA
ATOM     22  H   UNL     1      29.306  22.999  16.024  0.00  0.00    +0.145 HD
ATOM     23  H   UNL     1      29.163  23.898  14.554  0.00  0.00    +0.145 HD
ENDBRANCH  13  20
ENDBRANCH   1  16
TORSDOF 2
ENDMDL
MODEL 6
REMARK VINA RESULT:      -5.8      6.481      8.099
REMARK  Name = ZINC000583127796
REMARK  2 active torsions:
REMARK  status: ('A' for Active; 'I' for Inactive)
REMARK    1  A    between atoms: C_2  and  C_4
REMARK    2  A    between atoms: C_7  and  C_8
REMARK                            x       y       z     vdW  Elec       q    Type
REMARK                         _______ _______ _______ _____ _____    ______ ____
ROOT
ATOM      1  C   UNL     1      33.137  23.624  18.713  0.00  0.00    +0.247 C 
ATOM      2  O   UNL     1      33.294  24.774  19.119  0.00  0.00    -0.270 OA
ATOM      3  N   UNL     1      34.031  22.584  19.015  0.00  0.00    -0.297 N 
ATOM      4  C   UNL     1      33.922  21.188  18.583  0.00  0.00    +0.108 C 
ATOM      5  C   UNL     1      33.966  20.217  19.749  0.00  0.00    +0.020 C 
ATOM      6  C   UNL     1      35.153  20.486  20.654  0.00  0.00    +0.011 C 
ATOM      7  C   UNL     1      35.240  21.962  21.114  0.00  0.00    -0.004 C 
ATOM      8  C   UNL     1      36.555  22.111  21.908  0.00  0.00    +0.020 C 
ATOM      9  C   UNL     1      36.451  23.285  22.857  0.00  0.00    +0.070 C 
ATOM     10  S   UNL     1      34.778  23.173  23.512  0.00  0.00    -0.160 S 
ATOM     11  C   UNL     1      34.079  22.321  22.070  0.00  0.00    +0.077 C 
ATOM     12  C   UNL     1      35.202  22.877  19.858  0.00  0.00    +0.115 C 
ENDROOT
BRANCH   1  16
ATOM     13  C   UNL     1      29.534  22.448  16.730  0.00  0.00    +0.037 A 
ATOM     14  C   UNL     1      30.723  22.524  15.996  0.00  0.00    +0.014 A 
ATOM     15  C   UNL     1      31.883  23.017  16.600  0.00  0.00    +0.014 A 
ATOM     16  C   UNL     1      31.884  23.337  17.961  0.00  0.00    +0.037 A 
ATOM     17  C   UNL     1      30.671  23.359  18.664  0.00  0.00    +0.014 A 
ATOM     18  C   UNL     1      29.495  22.926  18.045  0.00  0.00    +0.014 A 
BRANCH  13  20
ATOM     19  N   UNL     1      27.118  22.171  16.751  0.00  0.00    -0.325 N 
ATOM     20  C   UNL     1      28.302  21.864  16.140  0.00  0.00    +0.242 C 
ATOM     21  O   UNL     1      28.340  21.185  15.126  0.00  0.00    -0.270 OA
ATOM     22  H   UNL     1      26.281  21.874  16.264  0.00  0.00    +0.145 HD
ATOM     23  H   UNL     1      27.031  22.939  17.402  0.00  0.00    +0.145 HD
ENDBRANCH  13  20
ENDBRANCH   1  16
TORSDOF 2
ENDMDL
MODEL 7
REMARK VINA RESULT:      -5.8      4.233      5.442
REMARK  Name = ZINC000583127796
REMARK  2 active torsions:
REMARK  status: ('A' for Active; 'I' for Inactive)
REMARK    1  A    between atoms: C_2  and  C_4
REMARK    2  A    between atoms: C_7  and  C_8
REMARK                            x       y       z     vdW  Elec       q    Type
REMARK                         _______ _______ _______ _____ _____    ______ ____
ROOT
ATOM      1  C   UNL     1      32.704  20.519  12.942  0.00  0.00    +0.247 C 
ATOM      2  O   UNL     1      32.759  20.225  11.749  0.00  0.00    -0.270 OA
ATOM      3  N   UNL     1      33.529  21.498  13.521  0.00  0.00    -0.297 N 
ATOM      4  C   UNL     1      33.529  21.917  14.925  0.00  0.00    +0.108 C 
ATOM      5  C   UNL     1      33.341  23.415  15.081  0.00  0.00    +0.020 C 
ATOM      6  C   UNL     1      34.310  24.193  14.210  0.00  0.00    +0.011 C 
ATOM      7  C   UNL     1      34.280  23.747  12.727  0.00  0.00    -0.004 C 
ATOM      8  C   UNL     1      35.399  24.524  12.000  0.00  0.00    +0.020 C 
ATOM      9  C   UNL     1      35.084  24.612  10.522  0.00  0.00    +0.070 C 
ATOM     10  S   UNL     1      33.313  24.928  10.469  0.00  0.00    -0.160 S 
ATOM     11  C   UNL     1      32.941  24.126  12.054  0.00  0.00    +0.077 C 
ATOM     12  C   UNL     1      34.494  22.209  12.666  0.00  0.00    +0.115 C 
ENDROOT
BRANCH   1  16
ATOM     13  C   UNL     1      29.540  18.451  14.944  0.00  0.00    +0.037 A 
ATOM     14  C   UNL     1      29.398  19.816  14.672  0.00  0.00    +0.014 A 
ATOM     15  C   UNL     1      30.467  20.531  14.125  0.00  0.00    +0.014 A 
ATOM     16  C   UNL     1      31.639  19.865  13.752  0.00  0.00    +0.037 A 
ATOM     17  C   UNL     1      31.816  18.524  14.121  0.00  0.00    +0.014 A 
ATOM     18  C   UNL     1      30.771  17.822  14.727  0.00  0.00    +0.014 A 
BRANCH  13  20
ATOM     19  N   UNL     1      28.634  16.318  15.681  0.00  0.00    -0.325 N 
ATOM     20  C   UNL     1      28.403  17.646  15.460  0.00  0.00    +0.242 C 
ATOM     21  O   UNL     1      27.326  18.160  15.725  0.00  0.00    -0.270 OA
ATOM     22  H   UNL     1      27.893  15.813  16.153  0.00  0.00    +0.145 HD
ATOM     23  H   UNL     1      29.568  15.936  15.740  0.00  0.00    +0.145 HD
ENDBRANCH  13  20
ENDBRANCH   1  16
TORSDOF 2
ENDMDL
MODEL 8
REMARK VINA RESULT:      -5.8      1.598      2.204
REMARK  Name = ZINC000583127796
REMARK  2 active torsions:
REMARK  status: ('A' for Active; 'I' for Inactive)
REMARK    1  A    between atoms: C_2  and  C_4
REMARK    2  A    between atoms: C_7  and  C_8
REMARK                            x       y       z     vdW  Elec       q    Type
REMARK                         _______ _______ _______ _____ _____    ______ ____
ROOT
ATOM      1  C   UNL     1      32.374  17.918  14.120  0.00  0.00    +0.247 C 
ATOM      2  O   UNL     1      32.583  16.927  14.818  0.00  0.00    -0.270 OA
ATOM      3  N   UNL     1      33.196  18.270  13.037  0.00  0.00    -0.297 N 
ATOM      4  C   UNL     1      33.022  19.422  12.149  0.00  0.00    +0.108 C 
ATOM      5  C   UNL     1      32.971  19.022  10.685  0.00  0.00    +0.020 C 
ATOM      6  C   UNL     1      34.141  18.132  10.309  0.00  0.00    +0.011 C 
ATOM      7  C   UNL     1      34.296  16.911  11.249  0.00  0.00    -0.004 C 
ATOM      8  C   UNL     1      35.590  16.181  10.829  0.00  0.00    +0.020 C 
ATOM      9  C   UNL     1      35.522  14.730  11.255  0.00  0.00    +0.070 C 
ATOM     10  S   UNL     1      33.824  14.249  10.900  0.00  0.00    -0.160 S 
ATOM     11  C   UNL     1      33.127  15.915  11.073  0.00  0.00    +0.077 C 
ATOM     12  C   UNL     1      34.353  17.416  12.717  0.00  0.00    +0.115 C 
ENDROOT
BRANCH   1  16
ATOM     13  C   UNL     1      28.930  20.172  15.285  0.00  0.00    +0.037 A 
ATOM     14  C   UNL     1      28.793  18.806  15.017  0.00  0.00    +0.014 A 
ATOM     15  C   UNL     1      29.881  18.080  14.525  0.00  0.00    +0.014 A 
ATOM     16  C   UNL     1      31.132  18.692  14.397  0.00  0.00    +0.037 A 
ATOM     17  C   UNL     1      31.241  20.080  14.565  0.00  0.00    +0.014 A 
ATOM     18  C   UNL     1      30.137  20.820  14.997  0.00  0.00    +0.014 A 
BRANCH  13  20
ATOM     19  N   UNL     1      28.038  22.289  16.082  0.00  0.00    -0.325 N 
ATOM     20  C   UNL     1      27.816  20.957  15.876  0.00  0.00    +0.242 C 
ATOM     21  O   UNL     1      26.733  20.445  16.116  0.00  0.00    -0.270 OA
ATOM     22  H   UNL     1      27.231  22.833  16.362  0.00  0.00    +0.145 HD
ATOM     23  H   UNL     1      28.802  22.782  15.641  0.00  0.00    +0.145 HD
ENDBRANCH  13  20
ENDBRANCH   1  16
TORSDOF 2
ENDMDL
MODEL 9
REMARK VINA RESULT:      -5.7      1.782      2.636
REMARK  Name = ZINC000583127796
REMARK  2 active torsions:
REMARK  status: ('A' for Active; 'I' for Inactive)
REMARK    1  A    between atoms: C_2  and  C_4
REMARK    2  A    between atoms: C_7  and  C_8
REMARK                            x       y       z     vdW  Elec       q    Type
REMARK                         _______ _______ _______ _____ _____    ______ ____
ROOT
ATOM      1  C   UNL     1      32.163  16.364  13.275  0.00  0.00    +0.247 C 
ATOM      2  O   UNL     1      31.782  15.937  12.186  0.00  0.00    -0.270 OA
ATOM      3  N   UNL     1      33.368  15.957  13.870  0.00  0.00    -0.297 N 
ATOM      4  C   UNL     1      33.903  16.415  15.155  0.00  0.00    +0.108 C 
ATOM      5  C   UNL     1      35.313  16.964  15.032  0.00  0.00    +0.020 C 
ATOM      6  C   UNL     1      36.225  15.998  14.298  0.00  0.00    +0.011 C 
ATOM      7  C   UNL     1      35.649  15.541  12.935  0.00  0.00    -0.004 C 
ATOM      8  C   UNL     1      36.612  14.472  12.374  0.00  0.00    +0.020 C 
ATOM      9  C   UNL     1      36.479  14.402  10.868  0.00  0.00    +0.070 C 
ATOM     10  S   UNL     1      36.332  16.123  10.361  0.00  0.00    -0.160 S 
ATOM     11  C   UNL     1      35.613  16.708  11.921  0.00  0.00    +0.077 C 
ATOM     12  C   UNL     1      34.216  14.984  13.162  0.00  0.00    +0.115 C 
ENDROOT
BRANCH   1  16
ATOM     13  C   UNL     1      29.591  19.441  14.765  0.00  0.00    +0.037 A 
ATOM     14  C   UNL     1      30.908  19.760  14.419  0.00  0.00    +0.014 A 
ATOM     15  C   UNL     1      31.794  18.748  14.041  0.00  0.00    +0.014 A 
ATOM     16  C   UNL     1      31.340  17.432  13.909  0.00  0.00    +0.037 A 
ATOM     17  C   UNL     1      30.053  17.099  14.355  0.00  0.00    +0.014 A 
ATOM     18  C   UNL     1      29.184  18.102  14.794  0.00  0.00    +0.014 A 
BRANCH  13  20
ATOM     19  N   UNL     1      28.943  21.784  14.782  0.00  0.00    -0.325 N 
ATOM     20  C   UNL     1      28.605  20.499  15.102  0.00  0.00    +0.242 C 
ATOM     21  O   UNL     1      27.520  20.227  15.594  0.00  0.00    -0.270 OA
ATOM     22  H   UNL     1      28.211  22.475  14.899  0.00  0.00    +0.145 HD
ATOM     23  H   UNL     1      29.688  22.000  14.135  0.00  0.00    +0.145 HD
ENDBRANCH  13  20
ENDBRANCH   1  16
TORSDOF 2
ENDMDL
