MODEL 1
REMARK VINA RESULT:      -6.0      0.000      0.000
REMARK  Name = ZINC000583127796
REMARK  2 active torsions:
REMARK  status: ('A' for Active; 'I' for Inactive)
REMARK    1  A    between atoms: C_2  and  C_4
REMARK    2  A    between atoms: C_7  and  C_8
REMARK                            x       y       z     vdW  Elec       q    Type
REMARK                         _______ _______ _______ _____ _____    ______ ____
ROOT
ATOM      1  C   UNL     1      33.985  23.855   9.161  0.00  0.00    +0.247 C 
ATOM      2  O   UNL     1      34.614  24.908   9.079  0.00  0.00    -0.270 OA
ATOM      3  N   UNL     1      33.880  22.948   8.094  0.00  0.00    -0.297 N 
ATOM      4  C   UNL     1      33.160  21.671   8.103  0.00  0.00    +0.108 C 
ATOM      5  C   UNL     1      34.043  20.507   7.691  0.00  0.00    +0.020 C 
ATOM      6  C   UNL     1      34.769  20.792   6.389  0.00  0.00    +0.011 C 
ATOM      7  C   UNL     1      35.537  22.136   6.407  0.00  0.00    -0.004 C 
ATOM      8  C   UNL     1      36.107  22.350   4.988  0.00  0.00    +0.020 C 
ATOM      9  C   UNL     1      37.306  23.271   5.050  0.00  0.00    +0.070 C 
ATOM     10  S   UNL     1      38.194  22.737   6.521  0.00  0.00    -0.160 S 
ATOM     11  C   UNL     1      36.735  22.085   7.382  0.00  0.00    +0.077 C 
ATOM     12  C   UNL     1      34.554  23.265   6.824  0.00  0.00    +0.115 C 
ENDROOT
BRANCH   1  16
ATOM     13  C   UNL     1      32.212  22.534  12.823  0.00  0.00    +0.037 A 
ATOM     14  C   UNL     1      31.626  23.596  12.126  0.00  0.00    +0.014 A 
ATOM     15  C   UNL     1      32.256  24.115  10.991  0.00  0.00    +0.014 A 
ATOM     16  C   UNL     1      33.414  23.510  10.493  0.00  0.00    +0.037 A 
ATOM     17  C   UNL     1      34.053  22.517  11.250  0.00  0.00    +0.014 A 
ATOM     18  C   UNL     1      33.457  22.039  12.421  0.00  0.00    +0.014 A 
BRANCH  13  20
ATOM     19  N   UNL     1      31.436  22.670  15.124  0.00  0.00    -0.325 N 
ATOM     20  C   UNL     1      31.534  21.913  13.991  0.00  0.00    +0.242 C 
ATOM     21  O   UNL     1      31.041  20.797  13.922  0.00  0.00    -0.270 OA
ATOM     22  H   UNL     1      30.861  22.285  15.864  0.00  0.00    +0.145 HD
ATOM     23  H   UNL     1      31.578  23.671  15.118  0.00  0.00    +0.145 HD
ENDBRANCH  13  20
ENDBRANCH   1  16
TORSDOF 2
ENDMDL
MODEL 2
REMARK VINA RESULT:      -6.0      1.842      2.488
REMARK  Name = ZINC000583127796
REMARK  2 active torsions:
REMARK  status: ('A' for Active; 'I' for Inactive)
REMARK    1  A    between atoms: C_2  and  C_4
REMARK    2  A    between atoms: C_7  and  C_8
REMARK                            x       y       z     vdW  Elec       q    Type
REMARK                         _______ _______ _______ _____ _____    ______ ____
ROOT
ATOM      1  C   UNL     1      35.055  22.077  10.875  0.00  0.00    +0.247 C 
ATOM      2  O   UNL     1      36.128  21.479  10.814  0.00  0.00    -0.270 OA
ATOM      3  N   UNL     1      34.554  22.845   9.811  0.00  0.00    -0.297 N 
ATOM      4  C   UNL     1      33.289  23.584   9.791  0.00  0.00    +0.108 C 
ATOM      5  C   UNL     1      32.415  23.203   8.609  0.00  0.00    +0.020 C 
ATOM      6  C   UNL     1      33.184  23.271   7.303  0.00  0.00    +0.011 C 
ATOM      7  C   UNL     1      34.509  22.470   7.340  0.00  0.00    -0.004 C 
ATOM      8  C   UNL     1      35.236  22.739   6.005  0.00  0.00    +0.020 C 
ATOM      9  C   UNL     1      36.189  21.602   5.701  0.00  0.00    +0.070 C 
ATOM     10  S   UNL     1      35.274  20.126   6.176  0.00  0.00    -0.160 S 
ATOM     11  C   UNL     1      34.243  20.949   7.422  0.00  0.00    +0.077 C 
ATOM     12  C   UNL     1      35.338  22.935   8.569  0.00  0.00    +0.115 C 
ENDROOT
BRANCH   1  16
ATOM     13  C   UNL     1      32.389  21.617  14.188  0.00  0.00    +0.037 A 
ATOM     14  C   UNL     1      33.334  22.648  14.211  0.00  0.00    +0.014 A 
ATOM     15  C   UNL     1      34.287  22.741  13.193  0.00  0.00    +0.014 A 
ATOM     16  C   UNL     1      34.233  21.871  12.100  0.00  0.00    +0.037 A 
ATOM     17  C   UNL     1      33.355  20.779  12.131  0.00  0.00    +0.014 A 
ATOM     18  C   UNL     1      32.442  20.646  13.181  0.00  0.00    +0.014 A 
BRANCH  13  20
ATOM     19  N   UNL     1      31.052  22.664  15.928  0.00  0.00    -0.325 N 
ATOM     20  C   UNL     1      31.319  21.530  15.215  0.00  0.00    +0.242 C 
ATOM     21  O   UNL     1      30.672  20.506  15.377  0.00  0.00    -0.270 OA
ATOM     22  H   UNL     1      30.238  22.626  16.530  0.00  0.00    +0.145 HD
ATOM     23  H   UNL     1      31.367  23.576  15.627  0.00  0.00    +0.145 HD
ENDBRANCH  13  20
ENDBRANCH   1  16
TORSDOF 2
ENDMDL
MODEL 3
REMARK VINA RESULT:      -6.0      3.608      7.658
REMARK  Name = ZINC000583127796
REMARK  2 active torsions:
REMARK  status: ('A' for Active; 'I' for Inactive)
REMARK    1  A    between atoms: C_2  and  C_4
REMARK    2  A    between atoms: C_7  and  C_8
REMARK                            x       y       z     vdW  Elec       q    Type
REMARK                         _______ _______ _______ _____ _____    ______ ____
ROOT
ATOM      1  C   UNL     1      34.481  20.962  12.573  0.00  0.00    +0.247 C 
ATOM      2  O   UNL     1      35.679  21.065  12.832  0.00  0.00    -0.270 OA
ATOM      3  N   UNL     1      33.541  20.496  13.507  0.00  0.00    -0.297 N 
ATOM      4  C   UNL     1      32.099  20.347  13.291  0.00  0.00    +0.108 C 
ATOM      5  C   UNL     1      31.279  21.084  14.335  0.00  0.00    +0.020 C 
ATOM      6  C   UNL     1      31.726  20.736  15.743  0.00  0.00    +0.011 C 
ATOM      7  C   UNL     1      33.249  20.918  15.954  0.00  0.00    -0.004 C 
ATOM      8  C   UNL     1      33.572  20.405  17.374  0.00  0.00    +0.020 C 
ATOM      9  C   UNL     1      34.843  21.054  17.878  0.00  0.00    +0.070 C 
ATOM     10  S   UNL     1      34.709  22.764  17.331  0.00  0.00    -0.160 S 
ATOM     11  C   UNL     1      33.650  22.410  15.900  0.00  0.00    +0.077 C 
ATOM     12  C   UNL     1      34.003  20.121  14.853  0.00  0.00    +0.115 C 
ENDROOT
BRANCH   1  16
ATOM     13  C   UNL     1      33.562  22.388   8.646  0.00  0.00    +0.037 A 
ATOM     14  C   UNL     1      33.455  23.263   9.733  0.00  0.00    +0.014 A 
ATOM     15  C   UNL     1      33.639  22.785  11.033  0.00  0.00    +0.014 A 
ATOM     16  C   UNL     1      34.030  21.459  11.243  0.00  0.00    +0.037 A 
ATOM     17  C   UNL     1      34.034  20.562  10.166  0.00  0.00    +0.014 A 
ATOM     18  C   UNL     1      33.788  21.025   8.870  0.00  0.00    +0.014 A 
BRANCH  13  20
ATOM     19  N   UNL     1      32.493  23.829   7.005  0.00  0.00    -0.325 N 
ATOM     20  C   UNL     1      33.443  22.877   7.249  0.00  0.00    +0.242 C 
ATOM     21  O   UNL     1      34.195  22.485   6.370  0.00  0.00    -0.270 OA
ATOM     22  H   UNL     1      32.511  24.244   6.081  0.00  0.00    +0.145 HD
ATOM     23  H   UNL     1      32.062  24.362   7.747  0.00  0.00    +0.145 HD
ENDBRANCH  13  20
ENDBRANCH   1  16
TORSDOF 2
ENDMDL
MODEL 4
REMARK VINA RESULT:      -5.8      6.194      7.438
REMARK  Name = ZINC000583127796
REMARK  2 active torsions:
REMARK  status: ('A' for Active; 'I' for Inactive)
REMARK    1  A    between atoms: C_2  and  C_4
REMARK    2  A    between atoms: C_7  and  C_8
REMARK                            x       y       z     vdW  Elec       q    Type
REMARK                         _______ _______ _______ _____ _____    ______ ____
ROOT
ATOM      1  C   UNL     1      33.911  16.909  14.229  0.00  0.00    +0.247 C 
ATOM      2  O   UNL     1      33.654  15.918  14.910  0.00  0.00    -0.270 OA
ATOM      3  N   UNL     1      34.793  16.872  13.137  0.00  0.00    -0.297 N 
ATOM      4  C   UNL     1      35.152  17.996  12.269  0.00  0.00    +0.108 C 
ATOM      5  C   UNL     1      34.912  17.692  10.801  0.00  0.00    +0.020 C 
ATOM      6  C   UNL     1      35.548  16.376  10.393  0.00  0.00    +0.011 C 
ATOM      7  C   UNL     1      35.142  15.198  11.313  0.00  0.00    -0.004 C 
ATOM      8  C   UNL     1      35.961  13.970  10.861  0.00  0.00    +0.020 C 
ATOM      9  C   UNL     1      35.246  12.699  11.268  0.00  0.00    +0.070 C 
ATOM     10  S   UNL     1      33.512  13.046  10.935  0.00  0.00    -0.160 S 
ATOM     11  C   UNL     1      33.646  14.844  11.144  0.00  0.00    +0.077 C 
ATOM     12  C   UNL     1      35.434  15.594  12.787  0.00  0.00    +0.115 C 
ENDROOT
BRANCH   1  16
ATOM     13  C   UNL     1      31.590  20.299  15.421  0.00  0.00    +0.037 A 
ATOM     14  C   UNL     1      31.224  19.592  14.271  0.00  0.00    +0.014 A 
ATOM     15  C   UNL     1      32.036  18.555  13.803  0.00  0.00    +0.014 A 
ATOM     16  C   UNL     1      33.157  18.156  14.538  0.00  0.00    +0.037 A 
ATOM     17  C   UNL     1      33.577  18.931  15.628  0.00  0.00    +0.014 A 
ATOM     18  C   UNL     1      32.800  20.009  16.061  0.00  0.00    +0.014 A 
BRANCH  13  20
ATOM     19  N   UNL     1      31.145  22.650  15.856  0.00  0.00    -0.325 N 
ATOM     20  C   UNL     1      30.715  21.359  15.984  0.00  0.00    +0.242 C 
ATOM     21  O   UNL     1      29.635  21.092  16.491  0.00  0.00    -0.270 OA
ATOM     22  H   UNL     1      30.481  23.365  16.128  0.00  0.00    +0.145 HD
ATOM     23  H   UNL     1      31.875  22.913  15.209  0.00  0.00    +0.145 HD
ENDBRANCH  13  20
ENDBRANCH   1  16
TORSDOF 2
ENDMDL
MODEL 5
REMARK VINA RESULT:      -5.8      3.390      7.417
REMARK  Name = ZINC000583127796
REMARK  2 active torsions:
REMARK  status: ('A' for Active; 'I' for Inactive)
REMARK    1  A    between atoms: C_2  and  C_4
REMARK    2  A    between atoms: C_7  and  C_8
REMARK                            x       y       z     vdW  Elec       q    Type
REMARK                         _______ _______ _______ _____ _____    ______ ____
ROOT
ATOM      1  C   UNL     1      33.556  23.086  11.208  0.00  0.00    +0.247 C 
ATOM      2  O   UNL     1      32.448  23.617  11.250  0.00  0.00    -0.270 OA
ATOM      3  N   UNL     1      34.265  22.717  12.363  0.00  0.00    -0.297 N 
ATOM      4  C   UNL     1      35.582  22.076  12.409  0.00  0.00    +0.108 C 
ATOM      5  C   UNL     1      35.572  20.792  13.220  0.00  0.00    +0.020 C 
ATOM      6  C   UNL     1      34.945  21.001  14.586  0.00  0.00    +0.011 C 
ATOM      7  C   UNL     1      33.546  21.663  14.513  0.00  0.00    -0.004 C 
ATOM      8  C   UNL     1      33.098  21.930  15.966  0.00  0.00    +0.020 C 
ATOM      9  C   UNL     1      31.588  22.013  16.030  0.00  0.00    +0.070 C 
ATOM     10  S   UNL     1      31.030  20.701  14.931  0.00  0.00    -0.160 S 
ATOM     11  C   UNL     1      32.507  20.712  13.876  0.00  0.00    +0.077 C 
ATOM     12  C   UNL     1      33.657  22.970  13.679  0.00  0.00    +0.115 C 
ENDROOT
BRANCH   1  16
ATOM     13  C   UNL     1      34.816  22.327   7.191  0.00  0.00    +0.037 A 
ATOM     14  C   UNL     1      34.135  21.327   7.893  0.00  0.00    +0.014 A 
ATOM     15  C   UNL     1      33.819  21.514   9.241  0.00  0.00    +0.014 A 
ATOM     16  C   UNL     1      34.089  22.738   9.861  0.00  0.00    +0.037 A 
ATOM     17  C   UNL     1      34.862  23.696   9.188  0.00  0.00    +0.014 A 
ATOM     18  C   UNL     1      35.235  23.484   7.858  0.00  0.00    +0.014 A 
BRANCH  13  20
ATOM     19  N   UNL     1      35.405  23.334   5.057  0.00  0.00    -0.325 N 
ATOM     20  C   UNL     1      35.105  22.189   5.740  0.00  0.00    +0.242 C 
ATOM     21  O   UNL     1      35.125  21.096   5.195  0.00  0.00    -0.270 OA
ATOM     22  H   UNL     1      35.724  23.209   4.104  0.00  0.00    +0.145 HD
ATOM     23  H   UNL     1      35.667  24.189   5.528  0.00  0.00    +0.145 HD
ENDBRANCH  13  20
ENDBRANCH   1  16
TORSDOF 2
ENDMDL
MODEL 6
REMARK VINA RESULT:      -5.7      5.261      7.624
REMARK  Name = ZINC000583127796
REMARK  2 active torsions:
REMARK  status: ('A' for Active; 'I' for Inactive)
REMARK    1  A    between atoms: C_2  and  C_4
REMARK    2  A    between atoms: C_7  and  C_8
REMARK                            x       y       z     vdW  Elec       q    Type
REMARK                         _______ _______ _______ _____ _____    ______ ____
ROOT
ATOM      1  C   UNL     1      34.270  18.694  14.257  0.00  0.00    +0.247 C 
ATOM      2  O   UNL     1      35.456  18.714  14.583  0.00  0.00    -0.270 OA
ATOM      3  N   UNL     1      33.424  19.805  14.407  0.00  0.00    -0.297 N 
ATOM      4  C   UNL     1      32.006  19.876  14.041  0.00  0.00    +0.108 C 
ATOM      5  C   UNL     1      31.706  21.036  13.109  0.00  0.00    +0.020 C 
ATOM      6  C   UNL     1      32.266  22.340  13.644  0.00  0.00    +0.011 C 
ATOM      7  C   UNL     1      33.769  22.249  14.007  0.00  0.00    -0.004 C 
ATOM      8  C   UNL     1      34.159  23.595  14.655  0.00  0.00    +0.020 C 
ATOM      9  C   UNL     1      35.648  23.824  14.504  0.00  0.00    +0.070 C 
ATOM     10  S   UNL     1      36.010  23.263  12.833  0.00  0.00    -0.160 S 
ATOM     11  C   UNL     1      34.642  22.075  12.743  0.00  0.00    +0.077 C 
ATOM     12  C   UNL     1      33.976  21.047  14.970  0.00  0.00    +0.115 C 
ENDROOT
BRANCH   1  16
ATOM     13  C   UNL     1      32.575  15.381  12.147  0.00  0.00    +0.037 A 
ATOM     14  C   UNL     1      32.365  15.492  13.526  0.00  0.00    +0.014 A 
ATOM     15  C   UNL     1      33.006  16.502  14.249  0.00  0.00    +0.014 A 
ATOM     16  C   UNL     1      33.773  17.462  13.583  0.00  0.00    +0.037 A 
ATOM     17  C   UNL     1      34.066  17.288  12.222  0.00  0.00    +0.014 A 
ATOM     18  C   UNL     1      33.476  16.241  11.509  0.00  0.00    +0.014 A 
BRANCH  13  20
ATOM     19  N   UNL     1      30.586  14.678  10.939  0.00  0.00    -0.325 N 
ATOM     20  C   UNL     1      31.855  14.365  11.338  0.00  0.00    +0.242 C 
ATOM     21  O   UNL     1      32.392  13.321  11.000  0.00  0.00    -0.270 OA
ATOM     22  H   UNL     1      30.158  14.034  10.283  0.00  0.00    +0.145 HD
ATOM     23  H   UNL     1      30.231  15.623  10.962  0.00  0.00    +0.145 HD
ENDBRANCH  13  20
ENDBRANCH   1  16
TORSDOF 2
ENDMDL
MODEL 7
REMARK VINA RESULT:      -5.7      4.041      7.932
REMARK  Name = ZINC000583127796
REMARK  2 active torsions:
REMARK  status: ('A' for Active; 'I' for Inactive)
REMARK    1  A    between atoms: C_2  and  C_4
REMARK    2  A    between atoms: C_7  and  C_8
REMARK                            x       y       z     vdW  Elec       q    Type
REMARK                         _______ _______ _______ _____ _____    ______ ____
ROOT
ATOM      1  C   UNL     1      32.876  22.376  14.337  0.00  0.00    +0.247 C 
ATOM      2  O   UNL     1      32.115  21.497  14.735  0.00  0.00    -0.270 OA
ATOM      3  N   UNL     1      33.842  22.975  15.163  0.00  0.00    -0.297 N 
ATOM      4  C   UNL     1      34.793  24.020  14.775  0.00  0.00    +0.108 C 
ATOM      5  C   UNL     1      36.230  23.633  15.073  0.00  0.00    +0.020 C 
ATOM      6  C   UNL     1      36.394  23.157  16.504  0.00  0.00    +0.011 C 
ATOM      7  C   UNL     1      35.392  22.040  16.887  0.00  0.00    -0.004 C 
ATOM      8  C   UNL     1      35.588  21.755  18.392  0.00  0.00    +0.020 C 
ATOM      9  C   UNL     1      35.117  20.353  18.714  0.00  0.00    +0.070 C 
ATOM     10  S   UNL     1      35.695  19.366  17.324  0.00  0.00    -0.160 S 
ATOM     11  C   UNL     1      35.695  20.729  16.126  0.00  0.00    +0.077 C 
ATOM     12  C   UNL     1      33.953  22.529  16.561  0.00  0.00    +0.115 C 
ENDROOT
BRANCH   1  16
ATOM     13  C   UNL     1      33.042  23.552  10.227  0.00  0.00    +0.037 A 
ATOM     14  C   UNL     1      32.116  24.168  11.076  0.00  0.00    +0.014 A 
ATOM     15  C   UNL     1      31.969  23.716  12.390  0.00  0.00    +0.014 A 
ATOM     16  C   UNL     1      32.815  22.721  12.889  0.00  0.00    +0.037 A 
ATOM     17  C   UNL     1      33.666  22.036  12.009  0.00  0.00    +0.014 A 
ATOM     18  C   UNL     1      33.770  22.445  10.677  0.00  0.00    +0.014 A 
BRANCH  13  20
ATOM     19  N   UNL     1      34.367  24.850   8.654  0.00  0.00    -0.325 N 
ATOM     20  C   UNL     1      33.273  24.053   8.848  0.00  0.00    +0.242 C 
ATOM     21  O   UNL     1      32.550  23.724   7.920  0.00  0.00    -0.270 OA
ATOM     22  H   UNL     1      34.583  25.076   7.690  0.00  0.00    +0.145 HD
ATOM     23  H   UNL     1      35.120  24.903   9.326  0.00  0.00    +0.145 HD
ENDBRANCH  13  20
ENDBRANCH   1  16
TORSDOF 2
ENDMDL
MODEL 8
REMARK VINA RESULT:      -5.7     15.448     17.875
REMARK  Name = ZINC000583127796
REMARK  2 active torsions:
REMARK  status: ('A' for Active; 'I' for Inactive)
REMARK    1  A    between atoms: C_2  and  C_4
REMARK    2  A    between atoms: C_7  and  C_8
REMARK                            x       y       z     vdW  Elec       q    Type
REMARK                         _______ _______ _______ _____ _____    ______ ____
ROOT
ATOM      1  C   UNL     1      24.093  25.772  23.559  0.00  0.00    +0.247 C 
ATOM      2  O   UNL     1      23.402  24.767  23.714  0.00  0.00    -0.270 OA
ATOM      3  N   UNL     1      25.055  26.184  24.496  0.00  0.00    -0.297 N 
ATOM      4  C   UNL     1      25.925  27.358  24.392  0.00  0.00    +0.108 C 
ATOM      5  C   UNL     1      27.395  27.003  24.537  0.00  0.00    +0.020 C 
ATOM      6  C   UNL     1      27.646  26.162  25.775  0.00  0.00    +0.011 C 
ATOM      7  C   UNL     1      26.728  24.917  25.856  0.00  0.00    -0.004 C 
ATOM      8  C   UNL     1      27.003  24.242  27.216  0.00  0.00    +0.020 C 
ATOM      9  C   UNL     1      26.629  22.777  27.147  0.00  0.00    +0.070 C 
ATOM     10  S   UNL     1      27.207  22.254  25.524  0.00  0.00    -0.160 S 
ATOM     11  C   UNL     1      27.076  23.891  24.752  0.00  0.00    +0.077 C 
ATOM     12  C   UNL     1      25.251  25.378  25.712  0.00  0.00    +0.115 C 
ENDROOT
BRANCH   1  16
ATOM     13  C   UNL     1      23.405  27.602  19.754  0.00  0.00    +0.037 A 
ATOM     14  C   UNL     1      24.571  26.855  19.951  0.00  0.00    +0.014 A 
ATOM     15  C   UNL     1      24.868  26.349  21.219  0.00  0.00    +0.014 A 
ATOM     16  C   UNL     1      23.952  26.498  22.266  0.00  0.00    +0.037 A 
ATOM     17  C   UNL     1      22.838  27.332  22.093  0.00  0.00    +0.014 A 
ATOM     18  C   UNL     1      22.572  27.893  20.841  0.00  0.00    +0.014 A 
BRANCH  13  20
ATOM     19  N   UNL     1      22.266  27.260  17.633  0.00  0.00    -0.325 N 
ATOM     20  C   UNL     1      23.025  28.094  18.405  0.00  0.00    +0.242 C 
ATOM     21  O   UNL     1      23.331  29.214  18.025  0.00  0.00    -0.270 OA
ATOM     22  H   UNL     1      21.908  27.658  16.773  0.00  0.00    +0.145 HD
ATOM     23  H   UNL     1      21.772  26.468  18.020  0.00  0.00    +0.145 HD
ENDBRANCH  13  20
ENDBRANCH   1  16
TORSDOF 2
ENDMDL
MODEL 9
REMARK VINA RESULT:      -5.6      6.383      7.894
REMARK  Name = ZINC000583127796
REMARK  2 active torsions:
REMARK  status: ('A' for Active; 'I' for Inactive)
REMARK    1  A    between atoms: C_2  and  C_4
REMARK    2  A    between atoms: C_7  and  C_8
REMARK                            x       y       z     vdW  Elec       q    Type
REMARK                         _______ _______ _______ _____ _____    ______ ____
ROOT
ATOM      1  C   UNL     1      35.215  21.890  15.228  0.00  0.00    +0.247 C 
ATOM      2  O   UNL     1      36.303  21.440  14.874  0.00  0.00    -0.270 OA
ATOM      3  N   UNL     1      33.994  21.376  14.762  0.00  0.00    -0.297 N 
ATOM      4  C   UNL     1      32.655  21.842  15.133  0.00  0.00    +0.108 C 
ATOM      5  C   UNL     1      31.778  20.720  15.659  0.00  0.00    +0.020 C 
ATOM      6  C   UNL     1      31.773  19.528  14.720  0.00  0.00    +0.011 C 
ATOM      7  C   UNL     1      33.197  19.041  14.356  0.00  0.00    -0.004 C 
ATOM      8  C   UNL     1      33.036  17.924  13.303  0.00  0.00    +0.020 C 
ATOM      9  C   UNL     1      34.250  17.020  13.325  0.00  0.00    +0.070 C 
ATOM     10  S   UNL     1      34.627  16.834  15.075  0.00  0.00    -0.160 S 
ATOM     11  C   UNL     1      33.909  18.422  15.581  0.00  0.00    +0.077 C 
ATOM     12  C   UNL     1      34.013  20.248  13.816  0.00  0.00    +0.115 C 
ENDROOT
BRANCH   1  16
ATOM     13  C   UNL     1      34.885  24.837  18.310  0.00  0.00    +0.037 A 
ATOM     14  C   UNL     1      34.908  25.248  16.973  0.00  0.00    +0.014 A 
ATOM     15  C   UNL     1      35.132  24.311  15.961  0.00  0.00    +0.014 A 
ATOM     16  C   UNL     1      35.229  22.951  16.273  0.00  0.00    +0.037 A 
ATOM     17  C   UNL     1      35.310  22.557  17.616  0.00  0.00    +0.014 A 
ATOM     18  C   UNL     1      35.150  23.502  18.633  0.00  0.00    +0.014 A 
BRANCH  13  20
ATOM     19  N   UNL     1      33.266  26.115  19.598  0.00  0.00    -0.325 N 
ATOM     20  C   UNL     1      34.580  25.795  19.405  0.00  0.00    +0.242 C 
ATOM     21  O   UNL     1      35.459  26.233  20.131  0.00  0.00    -0.270 OA
ATOM     22  H   UNL     1      33.062  26.664  20.425  0.00  0.00    +0.145 HD
ATOM     23  H   UNL     1      32.514  25.564  19.209  0.00  0.00    +0.145 HD
ENDBRANCH  13  20
ENDBRANCH   1  16
TORSDOF 2
ENDMDL
