MODEL 1
REMARK VINA RESULT:      -6.6      0.000      0.000
REMARK  Name = ZINC000329563636
REMARK  3 active torsions:
REMARK  status: ('A' for Active; 'I' for Inactive)
REMARK    1  A    between atoms: C_1  and  C_2
REMARK    2  A    between atoms: C_2  and  N_3
REMARK    3  A    between atoms: N_9  and  C_10
REMARK                            x       y       z     vdW  Elec       q    Type
REMARK                         _______ _______ _______ _____ _____    ______ ____
ROOT
ATOM      1  C   UNL     1      33.130  16.587  14.014  0.00  0.00    +0.112 C 
ATOM      2  C   UNL     1      31.785  15.883  13.800  0.00  0.00    +0.075 C 
ATOM      3  C   UNL     1      31.729  14.954  12.579  0.00  0.00    +0.113 C 
ATOM      4  C   UNL     1      32.277  13.523  12.824  0.00  0.00    +0.048 C 
ATOM      5  C   UNL     1      31.076  12.587  12.757  0.00  0.00    +0.004 C 
ATOM      6  C   UNL     1      30.130  13.275  11.792  0.00  0.00    +0.004 C 
ATOM      7  C   UNL     1      30.241  14.736  12.196  0.00  0.00    +0.048 C 
ATOM      8  O   UNL     1      32.378  15.535  11.431  0.00  0.00    -0.485 OA
ATOM      9  C   UNL     1      33.685  15.870  11.669  0.00  0.00    +0.126 A 
ATOM     10  C   UNL     1      34.588  15.712  10.619  0.00  0.00    +0.046 A 
ATOM     11  C   UNL     1      35.941  15.998  10.813  0.00  0.00    +0.004 A 
ATOM     12  C   UNL     1      36.383  16.465  12.048  0.00  0.00    +0.001 A 
ATOM     13  C   UNL     1      35.470  16.653  13.087  0.00  0.00    +0.009 A 
ATOM     14  C   UNL     1      34.110  16.355  12.903  0.00  0.00    +0.015 A 
ENDROOT
BRANCH   1  21
ATOM     15  N   UNL     1      33.578  22.748  15.333  0.00  0.00    -0.299 N 
ATOM     16  C   UNL     1      34.008  21.837  16.394  0.00  0.00    +0.127 C 
ATOM     17  C   UNL     1      32.984  20.733  16.634  0.00  0.00    +0.129 C 
ATOM     18  N   UNL     1      32.792  19.996  15.394  0.00  0.00    -0.275 N 
ATOM     19  C   UNL     1      33.090  18.652  15.364  0.00  0.00    +0.303 C 
ATOM     20  O   UNL     1      33.518  18.049  16.347  0.00  0.00    -0.253 OA
ATOM     21  N   UNL     1      32.914  18.027  14.165  0.00  0.00    -0.292 N 
ATOM     22  C   UNL     1      32.359  20.821  14.262  0.00  0.00    +0.205 C 
ATOM     23  C   UNL     1      32.848  22.286  14.240  0.00  0.00    +0.233 C 
ATOM     24  O   UNL     1      32.558  23.015  13.289  0.00  0.00    -0.274 OA
ATOM     25  H   UNL     1      32.255  18.425  13.515  0.00  0.00    +0.151 HD
BRANCH  15  27
ATOM     26  C   UNL     1      34.301  24.749  16.607  0.00  0.00    +0.024 C 
ATOM     27  C   UNL     1      34.214  24.059  15.253  0.00  0.00    +0.104 C 
ENDBRANCH  15  27
ENDBRANCH   1  21
TORSDOF 2
ENDMDL
MODEL 2
REMARK VINA RESULT:      -6.4      2.241      8.405
REMARK  Name = ZINC000329563636
REMARK  3 active torsions:
REMARK  status: ('A' for Active; 'I' for Inactive)
REMARK    1  A    between atoms: C_1  and  C_2
REMARK    2  A    between atoms: C_2  and  N_3
REMARK    3  A    between atoms: N_9  and  C_10
REMARK                            x       y       z     vdW  Elec       q    Type
REMARK                         _______ _______ _______ _____ _____    ______ ____
ROOT
ATOM      1  C   UNL     1      34.710  21.267  16.159  0.00  0.00    +0.112 C 
ATOM      2  C   UNL     1      35.433  22.613  16.032  0.00  0.00    +0.075 C 
ATOM      3  C   UNL     1      34.547  23.847  16.252  0.00  0.00    +0.113 C 
ATOM      4  C   UNL     1      34.353  24.252  17.737  0.00  0.00    +0.048 C 
ATOM      5  C   UNL     1      35.090  25.575  17.918  0.00  0.00    +0.004 C 
ATOM      6  C   UNL     1      35.000  26.233  16.556  0.00  0.00    +0.004 C 
ATOM      7  C   UNL     1      35.243  25.073  15.604  0.00  0.00    +0.048 C 
ATOM      8  O   UNL     1      33.262  23.707  15.614  0.00  0.00    -0.485 OA
ATOM      9  C   UNL     1      32.578  22.594  16.028  0.00  0.00    +0.126 A 
ATOM     10  C   UNL     1      31.192  22.696  16.132  0.00  0.00    +0.046 A 
ATOM     11  C   UNL     1      30.444  21.609  16.588  0.00  0.00    +0.004 A 
ATOM     12  C   UNL     1      31.081  20.414  16.915  0.00  0.00    +0.001 A 
ATOM     13  C   UNL     1      32.466  20.306  16.778  0.00  0.00    +0.009 A 
ATOM     14  C   UNL     1      33.226  21.399  16.332  0.00  0.00    +0.015 A 
ENDROOT
BRANCH   1  21
ATOM     15  N   UNL     1      35.096  16.672  11.841  0.00  0.00    -0.299 N 
ATOM     16  C   UNL     1      35.324  16.264  13.227  0.00  0.00    +0.127 C 
ATOM     17  C   UNL     1      36.303  17.195  13.933  0.00  0.00    +0.129 C 
ATOM     18  N   UNL     1      35.772  18.550  13.895  0.00  0.00    -0.275 N 
ATOM     19  C   UNL     1      35.501  19.193  15.082  0.00  0.00    +0.303 C 
ATOM     20  O   UNL     1      35.688  18.664  16.176  0.00  0.00    -0.253 OA
ATOM     21  N   UNL     1      34.980  20.448  14.976  0.00  0.00    -0.292 N 
ATOM     22  C   UNL     1      35.507  19.057  12.545  0.00  0.00    +0.205 C 
ATOM     23  C   UNL     1      35.095  18.018  11.479  0.00  0.00    +0.233 C 
ATOM     24  O   UNL     1      34.812  18.391  10.338  0.00  0.00    -0.274 OA
ATOM     25  H   UNL     1      35.169  20.971  14.136  0.00  0.00    +0.151 HD
BRANCH  15  27
ATOM     26  C   UNL     1      33.280  15.024  11.477  0.00  0.00    +0.024 C 
ATOM     27  C   UNL     1      34.529  15.694  10.921  0.00  0.00    +0.104 C 
ENDBRANCH  15  27
ENDBRANCH   1  21
TORSDOF 2
ENDMDL
MODEL 3
REMARK VINA RESULT:      -6.4      2.449      7.798
REMARK  Name = ZINC000329563636
REMARK  3 active torsions:
REMARK  status: ('A' for Active; 'I' for Inactive)
REMARK    1  A    between atoms: C_1  and  C_2
REMARK    2  A    between atoms: C_2  and  N_3
REMARK    3  A    between atoms: N_9  and  C_10
REMARK                            x       y       z     vdW  Elec       q    Type
REMARK                         _______ _______ _______ _____ _____    ______ ____
ROOT
ATOM      1  C   UNL     1      33.909  19.324  14.505  0.00  0.00    +0.112 C 
ATOM      2  C   UNL     1      32.741  20.315  14.450  0.00  0.00    +0.075 C 
ATOM      3  C   UNL     1      32.342  20.920  15.804  0.00  0.00    +0.113 C 
ATOM      4  C   UNL     1      33.180  22.151  16.238  0.00  0.00    +0.048 C 
ATOM      5  C   UNL     1      32.240  23.350  16.178  0.00  0.00    +0.004 C 
ATOM      6  C   UNL     1      30.876  22.760  16.477  0.00  0.00    +0.004 C 
ATOM      7  C   UNL     1      30.892  21.459  15.693  0.00  0.00    +0.048 C 
ATOM      8  O   UNL     1      32.345  19.934  16.855  0.00  0.00    -0.485 OA
ATOM      9  C   UNL     1      33.553  19.303  16.993  0.00  0.00    +0.126 A 
ATOM     10  C   UNL     1      33.951  18.955  18.283  0.00  0.00    +0.046 A 
ATOM     11  C   UNL     1      35.190  18.348  18.493  0.00  0.00    +0.004 A 
ATOM     12  C   UNL     1      36.019  18.067  17.409  0.00  0.00    +0.001 A 
ATOM     13  C   UNL     1      35.603  18.387  16.116  0.00  0.00    +0.009 A 
ATOM     14  C   UNL     1      34.363  19.010  15.899  0.00  0.00    +0.015 A 
ENDROOT
BRANCH   1  21
ATOM     15  N   UNL     1      33.795  13.709  11.612  0.00  0.00    -0.299 N 
ATOM     16  C   UNL     1      34.831  14.637  11.160  0.00  0.00    +0.127 C 
ATOM     17  C   UNL     1      34.261  16.026  10.889  0.00  0.00    +0.129 C 
ATOM     18  N   UNL     1      33.646  16.525  12.110  0.00  0.00    -0.275 N 
ATOM     19  C   UNL     1      34.134  17.680  12.678  0.00  0.00    +0.303 C 
ATOM     20  O   UNL     1      35.076  18.306  12.195  0.00  0.00    -0.253 OA
ATOM     21  N   UNL     1      33.532  18.079  13.835  0.00  0.00    -0.292 N 
ATOM     22  C   UNL     1      32.589  15.663  12.649  0.00  0.00    +0.205 C 
ATOM     23  C   UNL     1      32.735  14.146  12.404  0.00  0.00    +0.233 C 
ATOM     24  O   UNL     1      31.903  13.366  12.876  0.00  0.00    -0.274 OA
ATOM     25  H   UNL     1      32.585  17.780  14.003  0.00  0.00    +0.151 HD
BRANCH  15  27
ATOM     26  C   UNL     1      34.860  11.911  10.278  0.00  0.00    +0.024 C 
ATOM     27  C   UNL     1      34.068  12.279  11.525  0.00  0.00    +0.104 C 
ENDBRANCH  15  27
ENDBRANCH   1  21
TORSDOF 2
ENDMDL
MODEL 4
REMARK VINA RESULT:      -6.3      4.672      8.528
REMARK  Name = ZINC000329563636
REMARK  3 active torsions:
REMARK  status: ('A' for Active; 'I' for Inactive)
REMARK    1  A    between atoms: C_1  and  C_2
REMARK    2  A    between atoms: C_2  and  N_3
REMARK    3  A    between atoms: N_9  and  C_10
REMARK                            x       y       z     vdW  Elec       q    Type
REMARK                         _______ _______ _______ _____ _____    ______ ____
ROOT
ATOM      1  C   UNL     1      35.063  22.697  14.134  0.00  0.00    +0.112 C 
ATOM      2  C   UNL     1      35.200  23.971  14.974  0.00  0.00    +0.075 C 
ATOM      3  C   UNL     1      34.352  23.996  16.254  0.00  0.00    +0.113 C 
ATOM      4  C   UNL     1      34.998  23.291  17.476  0.00  0.00    +0.048 C 
ATOM      5  C   UNL     1      35.336  24.391  18.475  0.00  0.00    +0.004 C 
ATOM      6  C   UNL     1      34.284  25.452  18.220  0.00  0.00    +0.004 C 
ATOM      7  C   UNL     1      34.185  25.471  16.704  0.00  0.00    +0.048 C 
ATOM      8  O   UNL     1      33.028  23.471  16.032  0.00  0.00    -0.485 OA
ATOM      9  C   UNL     1      33.036  22.194  15.534  0.00  0.00    +0.126 A 
ATOM     10  C   UNL     1      32.021  21.336  15.955  0.00  0.00    +0.046 A 
ATOM     11  C   UNL     1      31.999  20.012  15.514  0.00  0.00    +0.004 A 
ATOM     12  C   UNL     1      32.977  19.555  14.633  0.00  0.00    +0.001 A 
ATOM     13  C   UNL     1      33.972  20.427  14.189  0.00  0.00    +0.009 A 
ATOM     14  C   UNL     1      34.009  21.757  14.638  0.00  0.00    +0.015 A 
ENDROOT
BRANCH   1  21
ATOM     15  N   UNL     1      34.910  23.264   7.844  0.00  0.00    -0.299 N 
ATOM     16  C   UNL     1      36.240  23.270   8.451  0.00  0.00    +0.127 C 
ATOM     17  C   UNL     1      36.310  24.222   9.640  0.00  0.00    +0.129 C 
ATOM     18  N   UNL     1      35.317  23.817  10.624  0.00  0.00    -0.275 N 
ATOM     19  C   UNL     1      35.737  23.446  11.881  0.00  0.00    +0.303 C 
ATOM     20  O   UNL     1      36.923  23.441  12.206  0.00  0.00    -0.253 OA
ATOM     21  N   UNL     1      34.760  23.051  12.746  0.00  0.00    -0.292 N 
ATOM     22  C   UNL     1      33.943  23.777  10.113  0.00  0.00    +0.205 C 
ATOM     23  C   UNL     1      33.764  23.425   8.621  0.00  0.00    +0.233 C 
ATOM     24  O   UNL     1      32.630  23.327   8.146  0.00  0.00    -0.274 OA
ATOM     25  H   UNL     1      33.824  23.393  12.593  0.00  0.00    +0.151 HD
BRANCH  15  27
ATOM     26  C   UNL     1      34.884  21.226   6.432  0.00  0.00    +0.024 C 
ATOM     27  C   UNL     1      34.775  22.743   6.488  0.00  0.00    +0.104 C 
ENDBRANCH  15  27
ENDBRANCH   1  21
TORSDOF 2
ENDMDL
MODEL 5
REMARK VINA RESULT:      -6.2      4.451      6.302
REMARK  Name = ZINC000329563636
REMARK  3 active torsions:
REMARK  status: ('A' for Active; 'I' for Inactive)
REMARK    1  A    between atoms: C_1  and  C_2
REMARK    2  A    between atoms: C_2  and  N_3
REMARK    3  A    between atoms: N_9  and  C_10
REMARK                            x       y       z     vdW  Elec       q    Type
REMARK                         _______ _______ _______ _____ _____    ______ ____
ROOT
ATOM      1  C   UNL     1      34.712  19.997  13.194  0.00  0.00    +0.112 C 
ATOM      2  C   UNL     1      33.806  20.730  14.189  0.00  0.00    +0.075 C 
ATOM      3  C   UNL     1      32.910  19.819  15.041  0.00  0.00    +0.113 C 
ATOM      4  C   UNL     1      33.591  19.237  16.307  0.00  0.00    +0.048 C 
ATOM      5  C   UNL     1      32.913  19.901  17.500  0.00  0.00    +0.004 C 
ATOM      6  C   UNL     1      31.505  20.179  17.012  0.00  0.00    +0.004 C 
ATOM      7  C   UNL     1      31.731  20.664  15.590  0.00  0.00    +0.048 C 
ATOM      8  O   UNL     1      32.335  18.751  14.263  0.00  0.00    -0.485 OA
ATOM      9  C   UNL     1      33.278  17.979  13.635  0.00  0.00    +0.126 A 
ATOM     10  C   UNL     1      33.014  16.616  13.517  0.00  0.00    +0.046 A 
ATOM     11  C   UNL     1      33.955  15.771  12.923  0.00  0.00    +0.004 A 
ATOM     12  C   UNL     1      35.146  16.297  12.428  0.00  0.00    +0.001 A 
ATOM     13  C   UNL     1      35.391  17.668  12.518  0.00  0.00    +0.009 A 
ATOM     14  C   UNL     1      34.456  18.521  13.125  0.00  0.00    +0.015 A 
ENDROOT
BRANCH   1  21
ATOM     15  N   UNL     1      35.518  22.521   7.459  0.00  0.00    -0.299 N 
ATOM     16  C   UNL     1      36.359  23.071   8.520  0.00  0.00    +0.127 C 
ATOM     17  C   UNL     1      35.545  23.407   9.765  0.00  0.00    +0.129 C 
ATOM     18  N   UNL     1      34.884  22.197  10.232  0.00  0.00    -0.275 N 
ATOM     19  C   UNL     1      35.175  21.723  11.492  0.00  0.00    +0.303 C 
ATOM     20  O   UNL     1      35.978  22.281  12.238  0.00  0.00    -0.253 OA
ATOM     21  N   UNL     1      34.544  20.571  11.858  0.00  0.00    -0.292 N 
ATOM     22  C   UNL     1      34.012  21.563   9.238  0.00  0.00    +0.205 C 
ATOM     23  C   UNL     1      34.418  21.718   7.757  0.00  0.00    +0.233 C 
ATOM     24  O   UNL     1      33.751  21.165   6.878  0.00  0.00    -0.274 OA
ATOM     25  H   UNL     1      33.669  20.347  11.410  0.00  0.00    +0.151 HD
BRANCH  15  27
ATOM     26  C   UNL     1      35.930  23.896   5.438  0.00  0.00    +0.024 C 
ATOM     27  C   UNL     1      36.037  22.528   6.096  0.00  0.00    +0.104 C 
ENDBRANCH  15  27
ENDBRANCH   1  21
TORSDOF 2
ENDMDL
MODEL 6
REMARK VINA RESULT:      -6.1      4.112      6.266
REMARK  Name = ZINC000329563636
REMARK  3 active torsions:
REMARK  status: ('A' for Active; 'I' for Inactive)
REMARK    1  A    between atoms: C_1  and  C_2
REMARK    2  A    between atoms: C_2  and  N_3
REMARK    3  A    between atoms: N_9  and  C_10
REMARK                            x       y       z     vdW  Elec       q    Type
REMARK                         _______ _______ _______ _____ _____    ______ ____
ROOT
ATOM      1  C   UNL     1      35.066  18.720  13.456  0.00  0.00    +0.112 C 
ATOM      2  C   UNL     1      34.819  19.592  14.692  0.00  0.00    +0.075 C 
ATOM      3  C   UNL     1      33.843  18.998  15.718  0.00  0.00    +0.113 C 
ATOM      4  C   UNL     1      34.481  18.003  16.722  0.00  0.00    +0.048 C 
ATOM      5  C   UNL     1      34.449  18.690  18.083  0.00  0.00    +0.004 C 
ATOM      6  C   UNL     1      33.226  19.583  18.013  0.00  0.00    +0.004 C 
ATOM      7  C   UNL     1      33.303  20.150  16.605  0.00  0.00    +0.048 C 
ATOM      8  O   UNL     1      32.703  18.387  15.084  0.00  0.00    -0.485 OA
ATOM      9  C   UNL     1      33.049  17.408  14.189  0.00  0.00    +0.126 A 
ATOM     10  C   UNL     1      32.207  16.303  14.090  0.00  0.00    +0.046 A 
ATOM     11  C   UNL     1      32.529  15.254  13.226  0.00  0.00    +0.004 A 
ATOM     12  C   UNL     1      33.679  15.325  12.444  0.00  0.00    +0.001 A 
ATOM     13  C   UNL     1      34.503  16.449  12.522  0.00  0.00    +0.009 A 
ATOM     14  C   UNL     1      34.193  17.502  13.398  0.00  0.00    +0.015 A 
ENDROOT
BRANCH   1  21
ATOM     15  N   UNL     1      35.274  21.243   7.668  0.00  0.00    -0.299 N 
ATOM     16  C   UNL     1      36.569  20.964   8.288  0.00  0.00    +0.127 C 
ATOM     17  C   UNL     1      36.631  21.487   9.719  0.00  0.00    +0.129 C 
ATOM     18  N   UNL     1      35.566  20.865  10.491  0.00  0.00    -0.275 N 
ATOM     19  C   UNL     1      35.898  20.089  11.579  0.00  0.00    +0.303 C 
ATOM     20  O   UNL     1      37.064  19.898  11.923  0.00  0.00    -0.253 OA
ATOM     21  N   UNL     1      34.856  19.512  12.243  0.00  0.00    -0.292 N 
ATOM     22  C   UNL     1      34.221  21.085   9.951  0.00  0.00    +0.205 C 
ATOM     23  C   UNL     1      34.101  21.232   8.419  0.00  0.00    +0.233 C 
ATOM     24  O   UNL     1      32.989  21.369   7.902  0.00  0.00    -0.274 OA
ATOM     25  H   UNL     1      33.951  19.951  12.177  0.00  0.00    +0.151 HD
BRANCH  15  27
ATOM     26  C   UNL     1      36.253  22.020   5.527  0.00  0.00    +0.024 C 
ATOM     27  C   UNL     1      35.182  21.185   6.213  0.00  0.00    +0.104 C 
ENDBRANCH  15  27
ENDBRANCH   1  21
TORSDOF 2
ENDMDL
MODEL 7
REMARK VINA RESULT:      -6.0      3.609      6.749
REMARK  Name = ZINC000329563636
REMARK  3 active torsions:
REMARK  status: ('A' for Active; 'I' for Inactive)
REMARK    1  A    between atoms: C_1  and  C_2
REMARK    2  A    between atoms: C_2  and  N_3
REMARK    3  A    between atoms: N_9  and  C_10
REMARK                            x       y       z     vdW  Elec       q    Type
REMARK                         _______ _______ _______ _____ _____    ______ ____
ROOT
ATOM      1  C   UNL     1      34.363  21.236  16.036  0.00  0.00    +0.112 C 
ATOM      2  C   UNL     1      34.631  19.745  15.798  0.00  0.00    +0.075 C 
ATOM      3  C   UNL     1      33.373  18.876  15.661  0.00  0.00    +0.113 C 
ATOM      4  C   UNL     1      32.755  18.846  14.238  0.00  0.00    +0.048 C 
ATOM      5  C   UNL     1      32.978  17.436  13.704  0.00  0.00    +0.004 C 
ATOM      6  C   UNL     1      32.970  16.569  14.948  0.00  0.00    +0.004 C 
ATOM      7  C   UNL     1      33.762  17.401  15.944  0.00  0.00    +0.048 C 
ATOM      8  O   UNL     1      32.362  19.237  16.623  0.00  0.00    -0.485 OA
ATOM      9  C   UNL     1      31.997  20.555  16.546  0.00  0.00    +0.126 A 
ATOM     10  C   UNL     1      30.661  20.865  16.794  0.00  0.00    +0.046 A 
ATOM     11  C   UNL     1      30.220  22.186  16.690  0.00  0.00    +0.004 A 
ATOM     12  C   UNL     1      31.121  23.197  16.364  0.00  0.00    +0.001 A 
ATOM     13  C   UNL     1      32.464  22.886  16.149  0.00  0.00    +0.009 A 
ATOM     14  C   UNL     1      32.913  21.559  16.239  0.00  0.00    +0.015 A 
ENDROOT
BRANCH   1  21
ATOM     15  N   UNL     1      37.039  24.571  20.686  0.00  0.00    -0.299 N 
ATOM     16  C   UNL     1      37.057  25.195  19.364  0.00  0.00    +0.127 C 
ATOM     17  C   UNL     1      37.536  24.223  18.291  0.00  0.00    +0.129 C 
ATOM     18  N   UNL     1      36.655  23.065  18.282  0.00  0.00    -0.275 N 
ATOM     19  C   UNL     1      35.947  22.774  17.136  0.00  0.00    +0.303 C 
ATOM     20  O   UNL     1      36.029  23.461  16.119  0.00  0.00    -0.253 OA
ATOM     21  N   UNL     1      35.120  21.693  17.202  0.00  0.00    -0.292 N 
ATOM     22  C   UNL     1      36.566  22.364  19.566  0.00  0.00    +0.205 C 
ATOM     23  C   UNL     1      36.727  23.221  20.840  0.00  0.00    +0.233 C 
ATOM     24  O   UNL     1      36.612  22.697  21.950  0.00  0.00    -0.274 OA
ATOM     25  H   UNL     1      35.333  20.974  17.875  0.00  0.00    +0.151 HD
BRANCH  15  27
ATOM     26  C   UNL     1      35.887  26.471  21.786  0.00  0.00    +0.024 C 
ATOM     27  C   UNL     1      37.005  25.441  21.856  0.00  0.00    +0.104 C 
ENDBRANCH  15  27
ENDBRANCH   1  21
TORSDOF 2
ENDMDL
MODEL 8
REMARK VINA RESULT:      -5.9      4.747      8.491
REMARK  Name = ZINC000329563636
REMARK  3 active torsions:
REMARK  status: ('A' for Active; 'I' for Inactive)
REMARK    1  A    between atoms: C_1  and  C_2
REMARK    2  A    between atoms: C_2  and  N_3
REMARK    3  A    between atoms: N_9  and  C_10
REMARK                            x       y       z     vdW  Elec       q    Type
REMARK                         _______ _______ _______ _____ _____    ______ ____
ROOT
ATOM      1  C   UNL     1      34.079  22.823  10.341  0.00  0.00    +0.112 C 
ATOM      2  C   UNL     1      34.816  24.026  10.939  0.00  0.00    +0.075 C 
ATOM      3  C   UNL     1      35.716  24.788   9.955  0.00  0.00    +0.113 C 
ATOM      4  C   UNL     1      34.983  25.847   9.091  0.00  0.00    +0.048 C 
ATOM      5  C   UNL     1      35.483  27.207   9.565  0.00  0.00    +0.004 C 
ATOM      6  C   UNL     1      36.896  26.930  10.041  0.00  0.00    +0.004 C 
ATOM      7  C   UNL     1      36.753  25.605  10.770  0.00  0.00    +0.048 C 
ATOM      8  O   UNL     1      36.459  23.894   9.104  0.00  0.00    -0.485 OA
ATOM      9  C   UNL     1      35.657  23.039   8.395  0.00  0.00    +0.126 A 
ATOM     10  C   UNL     1      36.061  22.703   7.104  0.00  0.00    +0.046 A 
ATOM     11  C   UNL     1      35.264  21.869   6.317  0.00  0.00    +0.004 A 
ATOM     12  C   UNL     1      34.077  21.353   6.833  0.00  0.00    +0.001 A 
ATOM     13  C   UNL     1      33.693  21.666   8.137  0.00  0.00    +0.009 A 
ATOM     14  C   UNL     1      34.482  22.514   8.930  0.00  0.00    +0.015 A 
ENDROOT
BRANCH   1  21
ATOM     15  N   UNL     1      33.546  17.709  14.011  0.00  0.00    -0.299 N 
ATOM     16  C   UNL     1      32.680  18.835  14.359  0.00  0.00    +0.127 C 
ATOM     17  C   UNL     1      33.456  20.147  14.406  0.00  0.00    +0.129 C 
ATOM     18  N   UNL     1      34.069  20.374  13.106  0.00  0.00    -0.275 N 
ATOM     19  C   UNL     1      33.721  21.500  12.392  0.00  0.00    +0.303 C 
ATOM     20  O   UNL     1      32.906  22.320  12.811  0.00  0.00    -0.253 OA
ATOM     21  N   UNL     1      34.310  21.640  11.171  0.00  0.00    -0.292 N 
ATOM     22  C   UNL     1      34.961  19.298  12.662  0.00  0.00    +0.205 C 
ATOM     23  C   UNL     1      34.614  17.869  13.130  0.00  0.00    +0.233 C 
ATOM     24  O   UNL     1      35.298  16.916  12.748  0.00  0.00    -0.274 OA
ATOM     25  H   UNL     1      35.194  21.182  11.016  0.00  0.00    +0.151 HD
BRANCH  15  27
ATOM     26  C   UNL     1      32.087  15.842  13.282  0.00  0.00    +0.024 C 
ATOM     27  C   UNL     1      33.077  16.362  14.314  0.00  0.00    +0.104 C 
ENDBRANCH  15  27
ENDBRANCH   1  21
TORSDOF 2
ENDMDL
MODEL 9
REMARK VINA RESULT:      -5.9      4.892      7.832
REMARK  Name = ZINC000329563636
REMARK  3 active torsions:
REMARK  status: ('A' for Active; 'I' for Inactive)
REMARK    1  A    between atoms: C_1  and  C_2
REMARK    2  A    between atoms: C_2  and  N_3
REMARK    3  A    between atoms: N_9  and  C_10
REMARK                            x       y       z     vdW  Elec       q    Type
REMARK                         _______ _______ _______ _____ _____    ______ ____
ROOT
ATOM      1  C   UNL     1      33.833  23.756  15.483  0.00  0.00    +0.112 C 
ATOM      2  C   UNL     1      34.778  23.164  14.431  0.00  0.00    +0.075 C 
ATOM      3  C   UNL     1      34.302  21.847  13.802  0.00  0.00    +0.113 C 
ATOM      4  C   UNL     1      33.315  22.011  12.617  0.00  0.00    +0.048 C 
ATOM      5  C   UNL     1      34.066  21.561  11.369  0.00  0.00    +0.004 C 
ATOM      6  C   UNL     1      35.037  20.516  11.884  0.00  0.00    +0.004 C 
ATOM      7  C   UNL     1      35.529  21.126  13.186  0.00  0.00    +0.048 C 
ATOM      8  O   UNL     1      33.740  20.955  14.785  0.00  0.00    -0.485 OA
ATOM      9  C   UNL     1      32.699  21.512  15.480  0.00  0.00    +0.126 A 
ATOM     10  C   UNL     1      31.649  20.671  15.846  0.00  0.00    +0.046 A 
ATOM     11  C   UNL     1      30.541  21.189  16.519  0.00  0.00    +0.004 A 
ATOM     12  C   UNL     1      30.496  22.542  16.846  0.00  0.00    +0.001 A 
ATOM     13  C   UNL     1      31.564  23.374  16.507  0.00  0.00    +0.009 A 
ATOM     14  C   UNL     1      32.676  22.863  15.819  0.00  0.00    +0.015 A 
ENDROOT
BRANCH   1  21
ATOM     15  N   UNL     1      35.917  26.021  20.999  0.00  0.00    -0.299 N 
ATOM     16  C   UNL     1      35.418  27.016  20.051  0.00  0.00    +0.127 C 
ATOM     17  C   UNL     1      36.000  26.805  18.658  0.00  0.00    +0.129 C 
ATOM     18  N   UNL     1      35.654  25.467  18.203  0.00  0.00    -0.275 N 
ATOM     19  C   UNL     1      34.892  25.327  17.064  0.00  0.00    +0.303 C 
ATOM     20  O   UNL     1      34.488  26.292  16.417  0.00  0.00    -0.253 OA
ATOM     21  N   UNL     1      34.579  24.049  16.708  0.00  0.00    -0.292 N 
ATOM     22  C   UNL     1      36.111  24.391  19.088  0.00  0.00    +0.205 C 
ATOM     23  C   UNL     1      36.189  24.716  20.595  0.00  0.00    +0.233 C 
ATOM     24  O   UNL     1      36.519  23.836  21.395  0.00  0.00    -0.274 OA
ATOM     25  H   UNL     1      35.187  23.307  17.018  0.00  0.00    +0.151 HD
BRANCH  15  27
ATOM     26  C   UNL     1      37.008  27.038  22.980  0.00  0.00    +0.024 C 
ATOM     27  C   UNL     1      35.794  26.307  22.424  0.00  0.00    +0.104 C 
ENDBRANCH  15  27
ENDBRANCH   1  21
TORSDOF 2
ENDMDL
