MODEL 1
REMARK VINA RESULT:      -8.1      0.000      0.000
REMARK  Name = ZINC000583127796
REMARK  2 active torsions:
REMARK  status: ('A' for Active; 'I' for Inactive)
REMARK    1  A    between atoms: C_2  and  C_4
REMARK    2  A    between atoms: C_7  and  C_8
REMARK                            x       y       z     vdW  Elec       q    Type
REMARK                         _______ _______ _______ _____ _____    ______ ____
ROOT
ATOM      1  C   UNL     1      12.717   5.733  10.275  0.00  0.00    +0.247 C 
ATOM      2  O   UNL     1      12.926   6.943  10.161  0.00  0.00    -0.270 OA
ATOM      3  N   UNL     1      12.355   4.916   9.193  0.00  0.00    -0.297 N 
ATOM      4  C   UNL     1      12.084   3.478   9.235  0.00  0.00    +0.108 C 
ATOM      5  C   UNL     1      12.923   2.697   8.240  0.00  0.00    +0.020 C 
ATOM      6  C   UNL     1      12.849   3.299   6.849  0.00  0.00    +0.011 C 
ATOM      7  C   UNL     1      13.155   4.816   6.826  0.00  0.00    -0.004 C 
ATOM      8  C   UNL     1      12.904   5.301   5.382  0.00  0.00    +0.020 C 
ATOM      9  C   UNL     1      13.709   6.552   5.109  0.00  0.00    +0.070 C 
ATOM     10  S   UNL     1      15.290   6.241   5.910  0.00  0.00    -0.160 S 
ATOM     11  C   UNL     1      14.636   5.099   7.161  0.00  0.00    +0.077 C 
ATOM     12  C   UNL     1      12.234   5.526   7.855  0.00  0.00    +0.115 C 
ENDROOT
BRANCH   1  16
ATOM     13  C   UNL     1      13.521   4.319  14.235  0.00  0.00    +0.037 A 
ATOM     14  C   UNL     1      14.312   3.868  13.176  0.00  0.00    +0.014 A 
ATOM     15  C   UNL     1      13.988   4.226  11.866  0.00  0.00    +0.014 A 
ATOM     16  C   UNL     1      12.947   5.123  11.621  0.00  0.00    +0.037 A 
ATOM     17  C   UNL     1      12.097   5.495  12.672  0.00  0.00    +0.014 A 
ATOM     18  C   UNL     1      12.378   5.082  13.978  0.00  0.00    +0.014 A 
BRANCH  13  20
ATOM     19  N   UNL     1      12.947   3.297  16.366  0.00  0.00    -0.325 N 
ATOM     20  C   UNL     1      13.872   4.002  15.646  0.00  0.00    +0.242 C 
ATOM     21  O   UNL     1      14.952   4.309  16.122  0.00  0.00    -0.270 OA
ATOM     22  H   UNL     1      13.245   2.982  17.281  0.00  0.00    +0.145 HD
ATOM     23  H   UNL     1      12.189   2.793  15.926  0.00  0.00    +0.145 HD
ENDBRANCH  13  20
ENDBRANCH   1  16
TORSDOF 2
ENDMDL
MODEL 2
REMARK VINA RESULT:      -7.7      0.923      1.456
REMARK  Name = ZINC000583127796
REMARK  2 active torsions:
REMARK  status: ('A' for Active; 'I' for Inactive)
REMARK    1  A    between atoms: C_2  and  C_4
REMARK    2  A    between atoms: C_7  and  C_8
REMARK                            x       y       z     vdW  Elec       q    Type
REMARK                         _______ _______ _______ _____ _____    ______ ____
ROOT
ATOM      1  C   UNL     1      12.628   5.031   9.987  0.00  0.00    +0.247 C 
ATOM      2  O   UNL     1      12.262   6.138   9.588  0.00  0.00    -0.270 OA
ATOM      3  N   UNL     1      12.791   3.929   9.134  0.00  0.00    -0.297 N 
ATOM      4  C   UNL     1      13.216   2.581   9.517  0.00  0.00    +0.108 C 
ATOM      5  C   UNL     1      14.410   2.096   8.717  0.00  0.00    +0.020 C 
ATOM      6  C   UNL     1      14.198   2.276   7.225  0.00  0.00    +0.011 C 
ATOM      7  C   UNL     1      13.765   3.712   6.841  0.00  0.00    -0.004 C 
ATOM      8  C   UNL     1      13.455   3.695   5.329  0.00  0.00    +0.020 C 
ATOM      9  C   UNL     1      13.610   5.086   4.755  0.00  0.00    +0.070 C 
ATOM     10  S   UNL     1      15.071   5.741   5.576  0.00  0.00    -0.160 S 
ATOM     11  C   UNL     1      14.907   4.726   7.071  0.00  0.00    +0.077 C 
ATOM     12  C   UNL     1      12.528   4.104   7.693  0.00  0.00    +0.115 C 
ENDROOT
BRANCH   1  16
ATOM     13  C   UNL     1      13.540   4.321  14.109  0.00  0.00    +0.037 A 
ATOM     14  C   UNL     1      12.438   5.115  13.782  0.00  0.00    +0.014 A 
ATOM     15  C   UNL     1      12.199   5.454  12.448  0.00  0.00    +0.014 A 
ATOM     16  C   UNL     1      12.988   4.909  11.433  0.00  0.00    +0.037 A 
ATOM     17  C   UNL     1      14.146   4.195  11.770  0.00  0.00    +0.014 A 
ATOM     18  C   UNL     1      14.428   3.912  13.111  0.00  0.00    +0.014 A 
BRANCH  13  20
ATOM     19  N   UNL     1      12.873   3.051  16.073  0.00  0.00    -0.325 N 
ATOM     20  C   UNL     1      13.791   3.896  15.514  0.00  0.00    +0.242 C 
ATOM     21  O   UNL     1      14.792   4.242  16.118  0.00  0.00    -0.270 OA
ATOM     22  H   UNL     1      13.116   2.672  16.980  0.00  0.00    +0.145 HD
ATOM     23  H   UNL     1      12.207   2.532  15.518  0.00  0.00    +0.145 HD
ENDBRANCH  13  20
ENDBRANCH   1  16
TORSDOF 2
ENDMDL
MODEL 3
REMARK VINA RESULT:      -7.4      2.541      3.323
REMARK  Name = ZINC000583127796
REMARK  2 active torsions:
REMARK  status: ('A' for Active; 'I' for Inactive)
REMARK    1  A    between atoms: C_2  and  C_4
REMARK    2  A    between atoms: C_7  and  C_8
REMARK                            x       y       z     vdW  Elec       q    Type
REMARK                         _______ _______ _______ _____ _____    ______ ____
ROOT
ATOM      1  C   UNL     1      14.966   5.097   8.777  0.00  0.00    +0.247 C 
ATOM      2  O   UNL     1      16.150   4.797   8.940  0.00  0.00    -0.270 OA
ATOM      3  N   UNL     1      14.370   5.187   7.509  0.00  0.00    -0.297 N 
ATOM      4  C   UNL     1      12.979   5.538   7.219  0.00  0.00    +0.108 C 
ATOM      5  C   UNL     1      12.281   4.500   6.361  0.00  0.00    +0.020 C 
ATOM      6  C   UNL     1      13.097   4.147   5.131  0.00  0.00    +0.011 C 
ATOM      7  C   UNL     1      14.560   3.763   5.463  0.00  0.00    -0.004 C 
ATOM      8  C   UNL     1      15.288   3.572   4.115  0.00  0.00    +0.020 C 
ATOM      9  C   UNL     1      16.476   2.653   4.295  0.00  0.00    +0.070 C 
ATOM     10  S   UNL     1      15.882   1.380   5.419  0.00  0.00    -0.160 S 
ATOM     11  C   UNL     1      14.633   2.421   6.225  0.00  0.00    +0.077 C 
ATOM     12  C   UNL     1      15.191   4.893   6.319  0.00  0.00    +0.115 C 
ENDROOT
BRANCH   1  16
ATOM     13  C   UNL     1      12.404   5.317  12.200  0.00  0.00    +0.037 A 
ATOM     14  C   UNL     1      12.186   6.186  11.129  0.00  0.00    +0.014 A 
ATOM     15  C   UNL     1      13.084   6.209  10.060  0.00  0.00    +0.014 A 
ATOM     16  C   UNL     1      14.132   5.287  10.003  0.00  0.00    +0.037 A 
ATOM     17  C   UNL     1      14.404   4.485  11.121  0.00  0.00    +0.014 A 
ATOM     18  C   UNL     1      13.545   4.510  12.224  0.00  0.00    +0.014 A 
BRANCH  13  20
ATOM     19  N   UNL     1      11.963   5.037  14.575  0.00  0.00    -0.325 N 
ATOM     20  C   UNL     1      11.437   5.229  13.328  0.00  0.00    +0.242 C 
ATOM     21  O   UNL     1      10.238   5.373  13.156  0.00  0.00    -0.270 OA
ATOM     22  H   UNL     1      11.309   5.102  15.346  0.00  0.00    +0.145 HD
ATOM     23  H   UNL     1      12.939   5.198  14.781  0.00  0.00    +0.145 HD
ENDBRANCH  13  20
ENDBRANCH   1  16
TORSDOF 2
ENDMDL
MODEL 4
REMARK VINA RESULT:      -7.0      3.775      6.962
REMARK  Name = ZINC000583127796
REMARK  2 active torsions:
REMARK  status: ('A' for Active; 'I' for Inactive)
REMARK    1  A    between atoms: C_2  and  C_4
REMARK    2  A    between atoms: C_7  and  C_8
REMARK                            x       y       z     vdW  Elec       q    Type
REMARK                         _______ _______ _______ _____ _____    ______ ____
ROOT
ATOM      1  C   UNL     1      11.785   4.650   7.322  0.00  0.00    +0.247 C 
ATOM      2  O   UNL     1      11.942   3.969   6.306  0.00  0.00    -0.270 OA
ATOM      3  N   UNL     1      12.128   4.195   8.605  0.00  0.00    -0.297 N 
ATOM      4  C   UNL     1      11.975   4.929   9.862  0.00  0.00    +0.108 C 
ATOM      5  C   UNL     1      13.270   5.018  10.648  0.00  0.00    +0.020 C 
ATOM      6  C   UNL     1      13.928   3.659  10.802  0.00  0.00    +0.011 C 
ATOM      7  C   UNL     1      14.094   2.908   9.458  0.00  0.00    -0.004 C 
ATOM      8  C   UNL     1      14.640   1.504   9.796  0.00  0.00    +0.020 C 
ATOM      9  C   UNL     1      15.379   0.937   8.604  0.00  0.00    +0.070 C 
ATOM     10  S   UNL     1      16.283   2.342   7.936  0.00  0.00    -0.160 S 
ATOM     11  C   UNL     1      15.131   3.604   8.548  0.00  0.00    +0.077 C 
ATOM     12  C   UNL     1      12.717   2.850   8.745  0.00  0.00    +0.115 C 
ENDROOT
BRANCH   1  16
ATOM     13  C   UNL     1      10.201   8.535   6.470  0.00  0.00    +0.037 A 
ATOM     14  C   UNL     1      11.579   8.323   6.372  0.00  0.00    +0.014 A 
ATOM     15  C   UNL     1      12.122   7.098   6.762  0.00  0.00    +0.014 A 
ATOM     16  C   UNL     1      11.284   6.047   7.139  0.00  0.00    +0.037 A 
ATOM     17  C   UNL     1       9.917   6.290   7.329  0.00  0.00    +0.014 A 
ATOM     18  C   UNL     1       9.378   7.540   7.005  0.00  0.00    +0.014 A 
BRANCH  13  20
ATOM     19  N   UNL     1      10.427  10.870   5.833  0.00  0.00    -0.325 N 
ATOM     20  C   UNL     1       9.584   9.809   6.011  0.00  0.00    +0.242 C 
ATOM     21  O   UNL     1       8.394   9.889   5.754  0.00  0.00    -0.270 OA
ATOM     22  H   UNL     1      10.020  11.693   5.404  0.00  0.00    +0.145 HD
ATOM     23  H   UNL     1      11.430  10.759   5.760  0.00  0.00    +0.145 HD
ENDBRANCH  13  20
ENDBRANCH   1  16
TORSDOF 2
ENDMDL
MODEL 5
REMARK VINA RESULT:      -6.9      4.029      7.318
REMARK  Name = ZINC000583127796
REMARK  2 active torsions:
REMARK  status: ('A' for Active; 'I' for Inactive)
REMARK    1  A    between atoms: C_2  and  C_4
REMARK    2  A    between atoms: C_7  and  C_8
REMARK                            x       y       z     vdW  Elec       q    Type
REMARK                         _______ _______ _______ _____ _____    ______ ____
ROOT
ATOM      1  C   UNL     1      13.165   3.307   7.950  0.00  0.00    +0.247 C 
ATOM      2  O   UNL     1      12.610   2.409   8.586  0.00  0.00    -0.270 OA
ATOM      3  N   UNL     1      12.881   4.667   8.147  0.00  0.00    -0.297 N 
ATOM      4  C   UNL     1      13.486   5.798   7.440  0.00  0.00    +0.108 C 
ATOM      5  C   UNL     1      14.084   6.824   8.384  0.00  0.00    +0.020 C 
ATOM      6  C   UNL     1      13.104   7.228   9.470  0.00  0.00    +0.011 C 
ATOM      7  C   UNL     1      12.490   6.018  10.214  0.00  0.00    -0.004 C 
ATOM      8  C   UNL     1      11.422   6.581  11.177  0.00  0.00    +0.020 C 
ATOM      9  C   UNL     1      11.205   5.621  12.326  0.00  0.00    +0.070 C 
ATOM     10  S   UNL     1      12.858   5.037  12.730  0.00  0.00    -0.160 S 
ATOM     11  C   UNL     1      13.547   5.285  11.070  0.00  0.00    +0.077 C 
ATOM     12  C   UNL     1      11.886   5.043   9.169  0.00  0.00    +0.115 C 
ENDROOT
BRANCH   1  16
ATOM     13  C   UNL     1      16.124   1.800   5.248  0.00  0.00    +0.037 A 
ATOM     14  C   UNL     1      16.510   2.191   6.532  0.00  0.00    +0.014 A 
ATOM     15  C   UNL     1      15.581   2.795   7.382  0.00  0.00    +0.014 A 
ATOM     16  C   UNL     1      14.244   2.905   6.996  0.00  0.00    +0.037 A 
ATOM     17  C   UNL     1      13.881   2.603   5.676  0.00  0.00    +0.014 A 
ATOM     18  C   UNL     1      14.826   2.061   4.798  0.00  0.00    +0.014 A 
BRANCH  13  20
ATOM     19  N   UNL     1      16.646   0.876   3.060  0.00  0.00    -0.325 N 
ATOM     20  C   UNL     1      17.074   1.104   4.338  0.00  0.00    +0.242 C 
ATOM     21  O   UNL     1      18.199   0.799   4.698  0.00  0.00    -0.270 OA
ATOM     22  H   UNL     1      17.341   0.515   2.418  0.00  0.00    +0.145 HD
ATOM     23  H   UNL     1      15.854   1.360   2.660  0.00  0.00    +0.145 HD
ENDBRANCH  13  20
ENDBRANCH   1  16
TORSDOF 2
ENDMDL
MODEL 6
REMARK VINA RESULT:      -6.9      4.035      7.311
REMARK  Name = ZINC000583127796
REMARK  2 active torsions:
REMARK  status: ('A' for Active; 'I' for Inactive)
REMARK    1  A    between atoms: C_2  and  C_4
REMARK    2  A    between atoms: C_7  and  C_8
REMARK                            x       y       z     vdW  Elec       q    Type
REMARK                         _______ _______ _______ _____ _____    ______ ____
ROOT
ATOM      1  C   UNL     1      10.854   5.672   7.759  0.00  0.00    +0.247 C 
ATOM      2  O   UNL     1      11.504   5.192   6.829  0.00  0.00    -0.270 OA
ATOM      3  N   UNL     1      11.149   5.414   9.107  0.00  0.00    -0.297 N 
ATOM      4  C   UNL     1      10.434   5.935  10.274  0.00  0.00    +0.108 C 
ATOM      5  C   UNL     1      11.352   6.640  11.255  0.00  0.00    +0.020 C 
ATOM      6  C   UNL     1      12.562   5.792  11.601  0.00  0.00    +0.011 C 
ATOM      7  C   UNL     1      13.312   5.266  10.352  0.00  0.00    -0.004 C 
ATOM      8  C   UNL     1      14.418   4.317  10.863  0.00  0.00    +0.020 C 
ATOM      9  C   UNL     1      15.536   4.233   9.847  0.00  0.00    +0.070 C 
ATOM     10  S   UNL     1      15.717   5.921   9.251  0.00  0.00    -0.160 S 
ATOM     11  C   UNL     1      14.003   6.414   9.583  0.00  0.00    +0.077 C 
ATOM     12  C   UNL     1      12.297   4.544   9.427  0.00  0.00    +0.115 C 
ENDROOT
BRANCH   1  16
ATOM     13  C   UNL     1       7.855   8.641   7.040  0.00  0.00    +0.037 A 
ATOM     14  C   UNL     1       7.484   7.422   7.613  0.00  0.00    +0.014 A 
ATOM     15  C   UNL     1       8.428   6.401   7.744  0.00  0.00    +0.014 A 
ATOM     16  C   UNL     1       9.763   6.633   7.409  0.00  0.00    +0.037 A 
ATOM     17  C   UNL     1      10.111   7.818   6.746  0.00  0.00    +0.014 A 
ATOM     18  C   UNL     1       9.152   8.817   6.551  0.00  0.00    +0.014 A 
BRANCH  13  20
ATOM     19  N   UNL     1       5.679   9.490   6.364  0.00  0.00    -0.325 N 
ATOM     20  C   UNL     1       6.888   9.768   6.939  0.00  0.00    +0.242 C 
ATOM     21  O   UNL     1       7.140  10.871   7.393  0.00  0.00    -0.270 OA
ATOM     22  H   UNL     1       4.987  10.228   6.411  0.00  0.00    +0.145 HD
ATOM     23  H   UNL     1       5.341   8.545   6.244  0.00  0.00    +0.145 HD
ENDBRANCH  13  20
ENDBRANCH   1  16
TORSDOF 2
ENDMDL
MODEL 7
REMARK VINA RESULT:      -6.8      4.097      5.753
REMARK  Name = ZINC000583127796
REMARK  2 active torsions:
REMARK  status: ('A' for Active; 'I' for Inactive)
REMARK    1  A    between atoms: C_2  and  C_4
REMARK    2  A    between atoms: C_7  and  C_8
REMARK                            x       y       z     vdW  Elec       q    Type
REMARK                         _______ _______ _______ _____ _____    ______ ____
ROOT
ATOM      1  C   UNL     1      13.504   6.216   7.726  0.00  0.00    +0.247 C 
ATOM      2  O   UNL     1      14.230   7.197   7.551  0.00  0.00    -0.270 OA
ATOM      3  N   UNL     1      13.995   4.902   7.770  0.00  0.00    -0.297 N 
ATOM      4  C   UNL     1      13.211   3.682   7.969  0.00  0.00    +0.108 C 
ATOM      5  C   UNL     1      13.725   2.838   9.120  0.00  0.00    +0.020 C 
ATOM      6  C   UNL     1      15.221   2.602   9.019  0.00  0.00    +0.011 C 
ATOM      7  C   UNL     1      16.031   3.907   8.826  0.00  0.00    -0.004 C 
ATOM      8  C   UNL     1      17.501   3.491   8.600  0.00  0.00    +0.020 C 
ATOM      9  C   UNL     1      18.424   4.624   8.991  0.00  0.00    +0.070 C 
ATOM     10  S   UNL     1      17.684   5.299  10.486  0.00  0.00    -0.160 S 
ATOM     11  C   UNL     1      15.987   4.792  10.091  0.00  0.00    +0.077 C 
ATOM     12  C   UNL     1      15.446   4.683   7.616  0.00  0.00    +0.115 C 
ENDROOT
BRANCH   1  16
ATOM     13  C   UNL     1       9.305   6.582   8.478  0.00  0.00    +0.037 A 
ATOM     14  C   UNL     1       9.797   6.870   7.202  0.00  0.00    +0.014 A 
ATOM     15  C   UNL     1      11.175   6.871   6.974  0.00  0.00    +0.014 A 
ATOM     16  C   UNL     1      12.054   6.475   7.983  0.00  0.00    +0.037 A 
ATOM     17  C   UNL     1      11.567   6.282   9.284  0.00  0.00    +0.014 A 
ATOM     18  C   UNL     1      10.192   6.348   9.532  0.00  0.00    +0.014 A 
BRANCH  13  20
ATOM     19  N   UNL     1       7.457   6.373  10.044  0.00  0.00    -0.325 N 
ATOM     20  C   UNL     1       7.841   6.517   8.740  0.00  0.00    +0.242 C 
ATOM     21  O   UNL     1       7.024   6.639   7.844  0.00  0.00    -0.270 OA
ATOM     22  H   UNL     1       6.464   6.454  10.225  0.00  0.00    +0.145 HD
ATOM     23  H   UNL     1       8.084   6.555  10.817  0.00  0.00    +0.145 HD
ENDBRANCH  13  20
ENDBRANCH   1  16
TORSDOF 2
ENDMDL
MODEL 8
REMARK VINA RESULT:      -6.8      4.804      6.755
REMARK  Name = ZINC000583127796
REMARK  2 active torsions:
REMARK  status: ('A' for Active; 'I' for Inactive)
REMARK    1  A    between atoms: C_2  and  C_4
REMARK    2  A    between atoms: C_7  and  C_8
REMARK                            x       y       z     vdW  Elec       q    Type
REMARK                         _______ _______ _______ _____ _____    ______ ____
ROOT
ATOM      1  C   UNL     1      13.131   6.135   7.571  0.00  0.00    +0.247 C 
ATOM      2  O   UNL     1      13.471   6.222   8.752  0.00  0.00    -0.270 OA
ATOM      3  N   UNL     1      13.916   5.500   6.596  0.00  0.00    -0.297 N 
ATOM      4  C   UNL     1      13.596   5.351   5.175  0.00  0.00    +0.108 C 
ATOM      5  C   UNL     1      13.649   3.908   4.712  0.00  0.00    +0.020 C 
ATOM      6  C   UNL     1      14.943   3.232   5.127  0.00  0.00    +0.011 C 
ATOM      7  C   UNL     1      15.253   3.387   6.635  0.00  0.00    -0.004 C 
ATOM      8  C   UNL     1      16.652   2.777   6.869  0.00  0.00    +0.020 C 
ATOM      9  C   UNL     1      16.791   2.341   8.311  0.00  0.00    +0.070 C 
ATOM     10  S   UNL     1      15.191   1.619   8.709  0.00  0.00    -0.160 S 
ATOM     11  C   UNL     1      14.249   2.595   7.502  0.00  0.00    +0.077 C 
ATOM     12  C   UNL     1      15.198   4.894   7.004  0.00  0.00    +0.115 C 
ENDROOT
BRANCH   1  16
ATOM     13  C   UNL     1       9.297   7.888   6.821  0.00  0.00    +0.037 A 
ATOM     14  C   UNL     1       9.365   6.592   7.340  0.00  0.00    +0.014 A 
ATOM     15  C   UNL     1      10.604   5.964   7.477  0.00  0.00    +0.014 A 
ATOM     16  C   UNL     1      11.781   6.665   7.206  0.00  0.00    +0.037 A 
ATOM     17  C   UNL     1      11.706   7.925   6.595  0.00  0.00    +0.014 A 
ATOM     18  C   UNL     1      10.462   8.530   6.392  0.00  0.00    +0.014 A 
BRANCH  13  20
ATOM     19  N   UNL     1       6.974   7.936   6.105  0.00  0.00    -0.325 N 
ATOM     20  C   UNL     1       7.998   8.606   6.715  0.00  0.00    +0.242 C 
ATOM     21  O   UNL     1       7.839   9.716   7.194  0.00  0.00    -0.270 OA
ATOM     22  H   UNL     1       6.066   8.382   6.148  0.00  0.00    +0.145 HD
ATOM     23  H   UNL     1       6.992   6.936   5.961  0.00  0.00    +0.145 HD
ENDBRANCH  13  20
ENDBRANCH   1  16
TORSDOF 2
ENDMDL
MODEL 9
REMARK VINA RESULT:      -6.8      3.952      6.742
REMARK  Name = ZINC000583127796
REMARK  2 active torsions:
REMARK  status: ('A' for Active; 'I' for Inactive)
REMARK    1  A    between atoms: C_2  and  C_4
REMARK    2  A    between atoms: C_7  and  C_8
REMARK                            x       y       z     vdW  Elec       q    Type
REMARK                         _______ _______ _______ _____ _____    ______ ____
ROOT
ATOM      1  C   UNL     1      11.331   5.256   8.396  0.00  0.00    +0.247 C 
ATOM      2  O   UNL     1      11.143   4.135   7.921  0.00  0.00    -0.270 OA
ATOM      3  N   UNL     1      12.496   5.600   9.100  0.00  0.00    -0.297 N 
ATOM      4  C   UNL     1      12.803   6.900   9.699  0.00  0.00    +0.108 C 
ATOM      5  C   UNL     1      14.133   7.460   9.230  0.00  0.00    +0.020 C 
ATOM      6  C   UNL     1      15.249   6.440   9.360  0.00  0.00    +0.011 C 
ATOM      7  C   UNL     1      14.909   5.080   8.704  0.00  0.00    -0.004 C 
ATOM      8  C   UNL     1      16.070   4.119   9.040  0.00  0.00    +0.020 C 
ATOM      9  C   UNL     1      16.145   3.018   8.006  0.00  0.00    +0.070 C 
ATOM     10  S   UNL     1      15.822   3.855   6.447  0.00  0.00    -0.160 S 
ATOM     11  C   UNL     1      14.834   5.197   7.165  0.00  0.00    +0.077 C 
ATOM     12  C   UNL     1      13.550   4.581   9.264  0.00  0.00    +0.115 C 
ENDROOT
BRANCH   1  16
ATOM     13  C   UNL     1       8.143   7.963   7.478  0.00  0.00    +0.037 A 
ATOM     14  C   UNL     1       9.304   7.988   6.701  0.00  0.00    +0.014 A 
ATOM     15  C   UNL     1      10.397   7.197   7.061  0.00  0.00    +0.014 A 
ATOM     16  C   UNL     1      10.293   6.298   8.124  0.00  0.00    +0.037 A 
ATOM     17  C   UNL     1       9.167   6.345   8.958  0.00  0.00    +0.014 A 
ATOM     18  C   UNL     1       8.097   7.188   8.640  0.00  0.00    +0.014 A 
BRANCH  13  20
ATOM     19  N   UNL     1       6.357   8.431   5.897  0.00  0.00    -0.325 N 
ATOM     20  C   UNL     1       6.942   8.751   7.090  0.00  0.00    +0.242 C 
ATOM     21  O   UNL     1       6.470   9.603   7.824  0.00  0.00    -0.270 OA
ATOM     22  H   UNL     1       5.473   8.886   5.700  0.00  0.00    +0.145 HD
ATOM     23  H   UNL     1       6.546   7.562   5.417  0.00  0.00    +0.145 HD
ENDBRANCH  13  20
ENDBRANCH   1  16
TORSDOF 2
ENDMDL
