MODEL 1
REMARK VINA RESULT:      -5.8      0.000      0.000
REMARK  Name = ZINC001228612316
REMARK  5 active torsions:
REMARK  status: ('A' for Active; 'I' for Inactive)
REMARK    1  A    between atoms: C_2  and  C_4
REMARK    2  A    between atoms: C_8  and  O_9
REMARK    3  A    between atoms: O_9  and  C_10
REMARK    4  A    between atoms: C_10  and  C_11
REMARK    5  A    between atoms: C_10  and  C_17
REMARK                            x       y       z     vdW  Elec       q    Type
REMARK                         _______ _______ _______ _____ _____    ______ ____
ROOT
ATOM      1  C   UNL     1      31.066  15.061  11.428  0.00  0.00    +0.040 A 
ATOM      2  C   UNL     1      32.308  14.697  10.902  0.00  0.00    +0.013 A 
ATOM      3  C   UNL     1      33.476  15.213  11.471  0.00  0.00    +0.004 A 
ATOM      4  C   UNL     1      33.399  16.081  12.566  0.00  0.00    +0.046 A 
ATOM      5  C   UNL     1      32.159  16.440  13.099  0.00  0.00    +0.122 A 
ATOM      6  C   UNL     1      31.000  15.951  12.505  0.00  0.00    +0.058 A 
ENDROOT
BRANCH   1   8
ATOM      7  N   UNL     1      29.594  14.578   9.548  0.00  0.00    -0.325 N 
ATOM      8  C   UNL     1      29.779  14.545  10.900  0.00  0.00    +0.242 C 
ATOM      9  O   UNL     1      28.935  14.047  11.636  0.00  0.00    -0.270 OA
ATOM     10  H   UNL     1      28.775  14.089   9.206  0.00  0.00    +0.145 HD
ATOM     11  H   UNL     1      30.358  14.716   8.903  0.00  0.00    +0.145 HD
ENDBRANCH   1   8
BRANCH   5  12
ATOM     12  O   UNL     1      32.190  17.284  14.175  0.00  0.00    -0.484 OA
BRANCH  12  13
ATOM     13  C   UNL     1      33.034  18.446  14.089  0.00  0.00    +0.208 C 
BRANCH  13  14
ATOM     14  C   UNL     1      32.163  19.685  14.059  0.00  0.00    +0.011 A 
ATOM     15  C   UNL     1      31.071  19.798  14.929  0.00  0.00    +0.010 A 
ATOM     16  C   UNL     1      30.267  20.931  14.898  0.00  0.00    +0.020 A 
ATOM     17  C   UNL     1      30.583  21.926  13.991  0.00  0.00    +0.111 A 
ATOM     18  N   UNL     1      31.622  21.859  13.131  0.00  0.00    -0.263 NA
ATOM     19  C   UNL     1      32.386  20.740  13.182  0.00  0.00    +0.118 A 
ENDBRANCH  13  14
BRANCH  13  20
ATOM     20  C   UNL     1      33.965  18.486  15.281  0.00  0.00    +0.034 C 
ATOM     21  C   UNL     1      35.033  19.550  15.433  0.00  0.00    +0.008 C 
ATOM     22  C   UNL     1      35.433  18.139  15.129  0.00  0.00    +0.008 C 
ENDBRANCH  13  20
ENDBRANCH  12  13
ENDBRANCH   5  12
TORSDOF 5
ENDMDL
MODEL 2
REMARK VINA RESULT:      -5.7      6.512      8.733
REMARK  Name = ZINC001228612316
REMARK  5 active torsions:
REMARK  status: ('A' for Active; 'I' for Inactive)
REMARK    1  A    between atoms: C_2  and  C_4
REMARK    2  A    between atoms: C_8  and  O_9
REMARK    3  A    between atoms: O_9  and  C_10
REMARK    4  A    between atoms: C_10  and  C_11
REMARK    5  A    between atoms: C_10  and  C_17
REMARK                            x       y       z     vdW  Elec       q    Type
REMARK                         _______ _______ _______ _____ _____    ______ ____
ROOT
ATOM      1  C   UNL     1      31.756  22.426  16.198  0.00  0.00    +0.040 A 
ATOM      2  C   UNL     1      32.405  22.193  14.983  0.00  0.00    +0.013 A 
ATOM      3  C   UNL     1      33.704  22.672  14.792  0.00  0.00    +0.004 A 
ATOM      4  C   UNL     1      34.351  23.371  15.816  0.00  0.00    +0.046 A 
ATOM      5  C   UNL     1      33.709  23.598  17.035  0.00  0.00    +0.122 A 
ATOM      6  C   UNL     1      32.403  23.150  17.205  0.00  0.00    +0.058 A 
ENDROOT
BRANCH   1   8
ATOM      7  N   UNL     1      29.786  21.143  15.559  0.00  0.00    -0.325 N 
ATOM      8  C   UNL     1      30.386  21.936  16.494  0.00  0.00    +0.242 C 
ATOM      9  O   UNL     1      29.834  22.176  17.561  0.00  0.00    -0.270 OA
ATOM     10  H   UNL     1      28.918  20.706  15.848  0.00  0.00    +0.145 HD
ATOM     11  H   UNL     1      30.304  20.703  14.813  0.00  0.00    +0.145 HD
ENDBRANCH   1   8
BRANCH   5  12
ATOM     12  O   UNL     1      34.430  24.281  17.976  0.00  0.00    -0.484 OA
BRANCH  12  13
ATOM     13  C   UNL     1      34.365  25.719  17.954  0.00  0.00    +0.208 C 
BRANCH  13  14
ATOM     14  C   UNL     1      33.770  26.204  19.259  0.00  0.00    +0.011 A 
ATOM     15  C   UNL     1      32.420  25.966  19.549  0.00  0.00    +0.010 A 
ATOM     16  C   UNL     1      31.871  26.416  20.743  0.00  0.00    +0.020 A 
ATOM     17  C   UNL     1      32.696  27.095  21.621  0.00  0.00    +0.111 A 
ATOM     18  N   UNL     1      34.000  27.351  21.383  0.00  0.00    -0.263 NA
ATOM     19  C   UNL     1      34.506  26.904  20.208  0.00  0.00    +0.118 A 
ENDBRANCH  13  14
BRANCH  13  20
ATOM     20  C   UNL     1      35.755  26.287  17.766  0.00  0.00    +0.034 C 
ATOM     21  C   UNL     1      35.998  27.595  17.042  0.00  0.00    +0.008 C 
ATOM     22  C   UNL     1      36.404  26.306  16.396  0.00  0.00    +0.008 C 
ENDBRANCH  13  20
ENDBRANCH  12  13
ENDBRANCH   5  12
TORSDOF 5
ENDMDL
MODEL 3
REMARK VINA RESULT:      -5.5      3.483      7.309
REMARK  Name = ZINC001228612316
REMARK  5 active torsions:
REMARK  status: ('A' for Active; 'I' for Inactive)
REMARK    1  A    between atoms: C_2  and  C_4
REMARK    2  A    between atoms: C_8  and  O_9
REMARK    3  A    between atoms: O_9  and  C_10
REMARK    4  A    between atoms: C_10  and  C_11
REMARK    5  A    between atoms: C_10  and  C_17
REMARK                            x       y       z     vdW  Elec       q    Type
REMARK                         _______ _______ _______ _____ _____    ______ ____
ROOT
ATOM      1  C   UNL     1      32.151  23.066  16.526  0.00  0.00    +0.040 A 
ATOM      2  C   UNL     1      31.121  22.584  17.338  0.00  0.00    +0.013 A 
ATOM      3  C   UNL     1      30.267  21.591  16.851  0.00  0.00    +0.004 A 
ATOM      4  C   UNL     1      30.451  21.077  15.563  0.00  0.00    +0.046 A 
ATOM      5  C   UNL     1      31.485  21.551  14.752  0.00  0.00    +0.122 A 
ATOM      6  C   UNL     1      32.308  22.565  15.230  0.00  0.00    +0.058 A 
ENDROOT
BRANCH   1   8
ATOM      7  N   UNL     1      32.785  24.843  18.068  0.00  0.00    -0.325 N 
ATOM      8  C   UNL     1      33.115  24.104  16.969  0.00  0.00    +0.242 C 
ATOM      9  O   UNL     1      34.198  24.254  16.415  0.00  0.00    -0.270 OA
ATOM     10  H   UNL     1      33.520  25.437  18.433  0.00  0.00    +0.145 HD
ATOM     11  H   UNL     1      32.051  24.564  18.703  0.00  0.00    +0.145 HD
ENDBRANCH   1   8
BRANCH   5  12
ATOM     12  O   UNL     1      31.588  20.978  13.514  0.00  0.00    -0.484 OA
BRANCH  12  13
ATOM     13  C   UNL     1      32.818  20.305  13.189  0.00  0.00    +0.208 C 
BRANCH  13  14
ATOM     14  C   UNL     1      32.788  18.912  13.784  0.00  0.00    +0.011 A 
ATOM     15  C   UNL     1      31.664  18.095  13.606  0.00  0.00    +0.010 A 
ATOM     16  C   UNL     1      31.632  16.821  14.158  0.00  0.00    +0.020 A 
ATOM     17  C   UNL     1      32.736  16.396  14.875  0.00  0.00    +0.111 A 
ATOM     18  N   UNL     1      33.838  17.150  15.077  0.00  0.00    -0.263 NA
ATOM     19  C   UNL     1      33.838  18.391  14.530  0.00  0.00    +0.118 A 
ENDBRANCH  13  14
BRANCH  13  20
ATOM     20  C   UNL     1      32.974  20.231  11.686  0.00  0.00    +0.034 C 
ATOM     21  C   UNL     1      34.171  19.572  11.032  0.00  0.00    +0.008 C 
ATOM     22  C   UNL     1      34.024  21.061  10.974  0.00  0.00    +0.008 C 
ENDBRANCH  13  20
ENDBRANCH  12  13
ENDBRANCH   5  12
TORSDOF 5
ENDMDL
MODEL 4
REMARK VINA RESULT:      -5.5      4.875      7.551
REMARK  Name = ZINC001228612316
REMARK  5 active torsions:
REMARK  status: ('A' for Active; 'I' for Inactive)
REMARK    1  A    between atoms: C_2  and  C_4
REMARK    2  A    between atoms: C_8  and  O_9
REMARK    3  A    between atoms: O_9  and  C_10
REMARK    4  A    between atoms: C_10  and  C_11
REMARK    5  A    between atoms: C_10  and  C_17
REMARK                            x       y       z     vdW  Elec       q    Type
REMARK                         _______ _______ _______ _____ _____    ______ ____
ROOT
ATOM      1  C   UNL     1      31.077  21.582  14.692  0.00  0.00    +0.040 A 
ATOM      2  C   UNL     1      30.218  21.075  15.670  0.00  0.00    +0.013 A 
ATOM      3  C   UNL     1      30.274  21.587  16.969  0.00  0.00    +0.004 A 
ATOM      4  C   UNL     1      31.177  22.609  17.282  0.00  0.00    +0.046 A 
ATOM      5  C   UNL     1      32.031  23.124  16.304  0.00  0.00    +0.122 A 
ATOM      6  C   UNL     1      31.995  22.584  15.023  0.00  0.00    +0.058 A 
ENDROOT
BRANCH   1   8
ATOM      7  N   UNL     1      32.105  21.505  12.484  0.00  0.00    -0.325 N 
ATOM      8  C   UNL     1      31.072  21.111  13.284  0.00  0.00    +0.242 C 
ATOM      9  O   UNL     1      30.212  20.345  12.865  0.00  0.00    -0.270 OA
ATOM     10  H   UNL     1      32.154  21.053  11.578  0.00  0.00    +0.145 HD
ATOM     11  H   UNL     1      32.958  21.893  12.859  0.00  0.00    +0.145 HD
ENDBRANCH   1   8
BRANCH   5  12
ATOM     12  O   UNL     1      32.869  24.127  16.707  0.00  0.00    -0.484 OA
BRANCH  12  13
ATOM     13  C   UNL     1      33.282  24.140  18.086  0.00  0.00    +0.208 C 
BRANCH  13  14
ATOM     14  C   UNL     1      34.678  23.561  18.185  0.00  0.00    +0.011 A 
ATOM     15  C   UNL     1      34.943  22.514  19.078  0.00  0.00    +0.010 A 
ATOM     16  C   UNL     1      36.224  21.986  19.175  0.00  0.00    +0.020 A 
ATOM     17  C   UNL     1      37.211  22.523  18.368  0.00  0.00    +0.111 A 
ATOM     18  N   UNL     1      37.003  23.534  17.498  0.00  0.00    -0.263 NA
ATOM     19  C   UNL     1      35.744  24.032  17.428  0.00  0.00    +0.118 A 
ENDBRANCH  13  14
BRANCH  13  20
ATOM     20  C   UNL     1      33.263  25.560  18.607  0.00  0.00    +0.034 C 
ATOM     21  C   UNL     1      33.742  25.911  20.001  0.00  0.00    +0.008 C 
ATOM     22  C   UNL     1      32.280  25.977  19.683  0.00  0.00    +0.008 C 
ENDBRANCH  13  20
ENDBRANCH  12  13
ENDBRANCH   5  12
TORSDOF 5
ENDMDL
MODEL 5
REMARK VINA RESULT:      -5.4      2.182      6.235
REMARK  Name = ZINC001228612316
REMARK  5 active torsions:
REMARK  status: ('A' for Active; 'I' for Inactive)
REMARK    1  A    between atoms: C_2  and  C_4
REMARK    2  A    between atoms: C_8  and  O_9
REMARK    3  A    between atoms: O_9  and  C_10
REMARK    4  A    between atoms: C_10  and  C_11
REMARK    5  A    between atoms: C_10  and  C_17
REMARK                            x       y       z     vdW  Elec       q    Type
REMARK                         _______ _______ _______ _____ _____    ______ ____
ROOT
ATOM      1  C   UNL     1      31.844  21.443  15.322  0.00  0.00    +0.040 A 
ATOM      2  C   UNL     1      32.845  22.404  15.159  0.00  0.00    +0.013 A 
ATOM      3  C   UNL     1      33.889  22.166  14.262  0.00  0.00    +0.004 A 
ATOM      4  C   UNL     1      33.925  20.977  13.526  0.00  0.00    +0.046 A 
ATOM      5  C   UNL     1      32.921  20.018  13.680  0.00  0.00    +0.122 A 
ATOM      6  C   UNL     1      31.904  20.246  14.602  0.00  0.00    +0.058 A 
ENDROOT
BRANCH   1   8
ATOM      7  N   UNL     1      29.491  21.093  15.850  0.00  0.00    -0.325 N 
ATOM      8  C   UNL     1      30.688  21.622  16.237  0.00  0.00    +0.242 C 
ATOM      9  O   UNL     1      30.810  22.165  17.328  0.00  0.00    -0.270 OA
ATOM     10  H   UNL     1      28.762  21.101  16.553  0.00  0.00    +0.145 HD
ATOM     11  H   UNL     1      29.418  20.411  15.109  0.00  0.00    +0.145 HD
ENDBRANCH   1   8
BRANCH   5  12
ATOM     12  O   UNL     1      33.039  18.895  12.908  0.00  0.00    -0.484 OA
BRANCH  12  13
ATOM     13  C   UNL     1      32.894  17.619  13.558  0.00  0.00    +0.208 C 
BRANCH  13  14
ATOM     14  C   UNL     1      32.462  16.592  12.532  0.00  0.00    +0.011 A 
ATOM     15  C   UNL     1      33.318  16.247  11.478  0.00  0.00    +0.010 A 
ATOM     16  C   UNL     1      32.921  15.310  10.532  0.00  0.00    +0.020 A 
ATOM     17  C   UNL     1      31.668  14.740  10.670  0.00  0.00    +0.111 A 
ATOM     18  N   UNL     1      30.808  15.046  11.665  0.00  0.00    -0.263 NA
ATOM     19  C   UNL     1      31.222  15.966  12.570  0.00  0.00    +0.118 A 
ENDBRANCH  13  14
BRANCH  13  20
ATOM     20  C   UNL     1      34.211  17.215  14.184  0.00  0.00    +0.034 C 
ATOM     21  C   UNL     1      34.342  15.986  15.059  0.00  0.00    +0.008 C 
ATOM     22  C   UNL     1      34.431  17.347  15.678  0.00  0.00    +0.008 C 
ENDBRANCH  13  20
ENDBRANCH  12  13
ENDBRANCH   5  12
TORSDOF 5
ENDMDL
MODEL 6
REMARK VINA RESULT:      -5.4      2.702      6.345
REMARK  Name = ZINC001228612316
REMARK  5 active torsions:
REMARK  status: ('A' for Active; 'I' for Inactive)
REMARK    1  A    between atoms: C_2  and  C_4
REMARK    2  A    between atoms: C_8  and  O_9
REMARK    3  A    between atoms: O_9  and  C_10
REMARK    4  A    between atoms: C_10  and  C_11
REMARK    5  A    between atoms: C_10  and  C_17
REMARK                            x       y       z     vdW  Elec       q    Type
REMARK                         _______ _______ _______ _____ _____    ______ ____
ROOT
ATOM      1  C   UNL     1      30.994  21.573  15.480  0.00  0.00    +0.040 A 
ATOM      2  C   UNL     1      30.958  22.255  14.260  0.00  0.00    +0.013 A 
ATOM      3  C   UNL     1      30.998  21.531  13.066  0.00  0.00    +0.004 A 
ATOM      4  C   UNL     1      31.063  20.134  13.093  0.00  0.00    +0.046 A 
ATOM      5  C   UNL     1      31.091  19.450  14.310  0.00  0.00    +0.122 A 
ATOM      6  C   UNL     1      31.088  20.178  15.495  0.00  0.00    +0.058 A 
ENDROOT
BRANCH   1   8
ATOM      7  N   UNL     1      31.681  23.393  16.948  0.00  0.00    -0.325 N 
ATOM      8  C   UNL     1      30.936  22.260  16.795  0.00  0.00    +0.242 C 
ATOM      9  O   UNL     1      30.199  21.869  17.692  0.00  0.00    -0.270 OA
ATOM     10  H   UNL     1      31.510  23.918  17.797  0.00  0.00    +0.145 HD
ATOM     11  H   UNL     1      32.071  23.891  16.162  0.00  0.00    +0.145 HD
ENDBRANCH   1   8
BRANCH   5  12
ATOM     12  O   UNL     1      31.144  18.085  14.231  0.00  0.00    -0.484 OA
BRANCH  12  13
ATOM     13  C   UNL     1      32.183  17.503  13.422  0.00  0.00    +0.208 C 
BRANCH  13  14
ATOM     14  C   UNL     1      33.503  17.624  14.155  0.00  0.00    +0.011 A 
ATOM     15  C   UNL     1      33.726  16.890  15.328  0.00  0.00    +0.010 A 
ATOM     16  C   UNL     1      34.934  17.006  16.005  0.00  0.00    +0.020 A 
ATOM     17  C   UNL     1      35.891  17.858  15.484  0.00  0.00    +0.111 A 
ATOM     18  N   UNL     1      35.718  18.588  14.362  0.00  0.00    -0.263 NA
ATOM     19  C   UNL     1      34.529  18.458  13.725  0.00  0.00    +0.118 A 
ENDBRANCH  13  14
BRANCH  13  20
ATOM     20  C   UNL     1      31.862  16.049  13.154  0.00  0.00    +0.034 C 
ATOM     21  C   UNL     1      32.629  15.230  12.137  0.00  0.00    +0.008 C 
ATOM     22  C   UNL     1      31.214  15.626  11.850  0.00  0.00    +0.008 C 
ENDBRANCH  13  20
ENDBRANCH  12  13
ENDBRANCH   5  12
TORSDOF 5
ENDMDL
MODEL 7
REMARK VINA RESULT:      -5.4      2.695      6.830
REMARK  Name = ZINC001228612316
REMARK  5 active torsions:
REMARK  status: ('A' for Active; 'I' for Inactive)
REMARK    1  A    between atoms: C_2  and  C_4
REMARK    2  A    between atoms: C_8  and  O_9
REMARK    3  A    between atoms: O_9  and  C_10
REMARK    4  A    between atoms: C_10  and  C_11
REMARK    5  A    between atoms: C_10  and  C_17
REMARK                            x       y       z     vdW  Elec       q    Type
REMARK                         _______ _______ _______ _____ _____    ______ ____
ROOT
ATOM      1  C   UNL     1      32.216  22.444  15.972  0.00  0.00    +0.040 A 
ATOM      2  C   UNL     1      30.858  22.191  16.179  0.00  0.00    +0.013 A 
ATOM      3  C   UNL     1      30.281  21.041  15.635  0.00  0.00    +0.004 A 
ATOM      4  C   UNL     1      31.063  20.144  14.899  0.00  0.00    +0.046 A 
ATOM      5  C   UNL     1      32.424  20.390  14.698  0.00  0.00    +0.122 A 
ATOM      6  C   UNL     1      32.982  21.556  15.211  0.00  0.00    +0.058 A 
ENDROOT
BRANCH   1   8
ATOM      7  N   UNL     1      32.460  24.130  17.716  0.00  0.00    -0.325 N 
ATOM      8  C   UNL     1      32.915  23.630  16.530  0.00  0.00    +0.242 C 
ATOM      9  O   UNL     1      33.903  24.108  15.987  0.00  0.00    -0.270 OA
ATOM     10  H   UNL     1      33.041  24.841  18.143  0.00  0.00    +0.145 HD
ATOM     11  H   UNL     1      31.843  23.606  18.319  0.00  0.00    +0.145 HD
ENDBRANCH   1   8
BRANCH   5  12
ATOM     12  O   UNL     1      33.103  19.450  13.974  0.00  0.00    -0.484 OA
BRANCH  12  13
ATOM     13  C   UNL     1      33.256  18.141  14.554  0.00  0.00    +0.208 C 
BRANCH  13  14
ATOM     14  C   UNL     1      32.827  17.101  13.540  0.00  0.00    +0.011 A 
ATOM     15  C   UNL     1      31.468  16.802  13.371  0.00  0.00    +0.010 A 
ATOM     16  C   UNL     1      31.074  15.844  12.446  0.00  0.00    +0.020 A 
ATOM     17  C   UNL     1      32.057  15.209  11.709  0.00  0.00    +0.111 A 
ATOM     18  N   UNL     1      33.377  15.461  11.841  0.00  0.00    -0.263 NA
ATOM     19  C   UNL     1      33.732  16.398  12.754  0.00  0.00    +0.118 A 
ENDBRANCH  13  14
BRANCH  13  20
ATOM     20  C   UNL     1      34.701  17.927  14.949  0.00  0.00    +0.034 C 
ATOM     21  C   UNL     1      35.093  17.053  16.122  0.00  0.00    +0.008 C 
ATOM     22  C   UNL     1      35.255  18.539  16.220  0.00  0.00    +0.008 C 
ENDBRANCH  13  20
ENDBRANCH  12  13
ENDBRANCH   5  12
TORSDOF 5
ENDMDL
MODEL 8
REMARK VINA RESULT:      -5.4      4.801      6.803
REMARK  Name = ZINC001228612316
REMARK  5 active torsions:
REMARK  status: ('A' for Active; 'I' for Inactive)
REMARK    1  A    between atoms: C_2  and  C_4
REMARK    2  A    between atoms: C_8  and  O_9
REMARK    3  A    between atoms: O_9  and  C_10
REMARK    4  A    between atoms: C_10  and  C_11
REMARK    5  A    between atoms: C_10  and  C_17
REMARK                            x       y       z     vdW  Elec       q    Type
REMARK                         _______ _______ _______ _____ _____    ______ ____
ROOT
ATOM      1  C   UNL     1      31.374  21.447  15.324  0.00  0.00    +0.040 A 
ATOM      2  C   UNL     1      30.644  20.309  14.973  0.00  0.00    +0.013 A 
ATOM      3  C   UNL     1      30.988  19.597  13.822  0.00  0.00    +0.004 A 
ATOM      4  C   UNL     1      32.065  20.016  13.033  0.00  0.00    +0.046 A 
ATOM      5  C   UNL     1      32.803  21.149  13.386  0.00  0.00    +0.122 A 
ATOM      6  C   UNL     1      32.431  21.873  14.514  0.00  0.00    +0.058 A 
ENDROOT
BRANCH   1   8
ATOM      7  N   UNL     1      31.752  23.436  16.680  0.00  0.00    -0.325 N 
ATOM      8  C   UNL     1      31.091  22.250  16.540  0.00  0.00    +0.242 C 
ATOM      9  O   UNL     1      30.249  21.901  17.359  0.00  0.00    -0.270 OA
ATOM     10  H   UNL     1      31.433  24.028  17.438  0.00  0.00    +0.145 HD
ATOM     11  H   UNL     1      32.229  23.880  15.910  0.00  0.00    +0.145 HD
ENDBRANCH   1   8
BRANCH   5  12
ATOM     12  O   UNL     1      33.842  21.471  12.557  0.00  0.00    -0.484 OA
BRANCH  12  13
ATOM     13  C   UNL     1      33.525  21.858  11.207  0.00  0.00    +0.208 C 
BRANCH  13  14
ATOM     14  C   UNL     1      34.017  23.271  10.974  0.00  0.00    +0.011 A 
ATOM     15  C   UNL     1      33.340  24.113  10.081  0.00  0.00    +0.010 A 
ATOM     16  C   UNL     1      33.794  25.408   9.861  0.00  0.00    +0.020 A 
ATOM     17  C   UNL     1      34.921  25.826  10.547  0.00  0.00    +0.111 A 
ATOM     18  N   UNL     1      35.607  25.049  11.412  0.00  0.00    -0.263 NA
ATOM     19  C   UNL     1      35.142  23.790  11.603  0.00  0.00    +0.118 A 
ENDBRANCH  13  14
BRANCH  13  20
ATOM     20  C   UNL     1      34.185  20.904  10.237  0.00  0.00    +0.034 C 
ATOM     21  C   UNL     1      33.799  20.849   8.774  0.00  0.00    +0.008 C 
ATOM     22  C   UNL     1      33.425  19.717   9.679  0.00  0.00    +0.008 C 
ENDBRANCH  13  20
ENDBRANCH  12  13
ENDBRANCH   5  12
TORSDOF 5
ENDMDL
MODEL 9
REMARK VINA RESULT:      -5.3      3.689      5.189
REMARK  Name = ZINC001228612316
REMARK  5 active torsions:
REMARK  status: ('A' for Active; 'I' for Inactive)
REMARK    1  A    between atoms: C_2  and  C_4
REMARK    2  A    between atoms: C_8  and  O_9
REMARK    3  A    between atoms: O_9  and  C_10
REMARK    4  A    between atoms: C_10  and  C_11
REMARK    5  A    between atoms: C_10  and  C_17
REMARK                            x       y       z     vdW  Elec       q    Type
REMARK                         _______ _______ _______ _____ _____    ______ ____
ROOT
ATOM      1  C   UNL     1      33.699  17.189  15.075  0.00  0.00    +0.040 A 
ATOM      2  C   UNL     1      32.566  16.457  14.713  0.00  0.00    +0.013 A 
ATOM      3  C   UNL     1      31.447  17.125  14.208  0.00  0.00    +0.004 A 
ATOM      4  C   UNL     1      31.468  18.515  14.058  0.00  0.00    +0.046 A 
ATOM      5  C   UNL     1      32.603  19.249  14.412  0.00  0.00    +0.122 A 
ATOM      6  C   UNL     1      33.699  18.581  14.947  0.00  0.00    +0.058 A 
ENDROOT
BRANCH   1   8
ATOM      7  N   UNL     1      35.100  16.522  16.954  0.00  0.00    -0.325 N 
ATOM      8  C   UNL     1      34.938  16.560  15.600  0.00  0.00    +0.242 C 
ATOM      9  O   UNL     1      35.758  16.035  14.855  0.00  0.00    -0.270 OA
ATOM     10  H   UNL     1      35.876  15.962  17.286  0.00  0.00    +0.145 HD
ATOM     11  H   UNL     1      34.336  16.687  17.593  0.00  0.00    +0.145 HD
ENDBRANCH   1   8
BRANCH   5  12
ATOM     12  O   UNL     1      32.528  20.601  14.218  0.00  0.00    -0.484 OA
BRANCH  12  13
ATOM     13  C   UNL     1      32.674  21.451  15.371  0.00  0.00    +0.208 C 
BRANCH  13  14
ATOM     14  C   UNL     1      33.740  22.488  15.085  0.00  0.00    +0.011 A 
ATOM     15  C   UNL     1      34.001  23.503  16.015  0.00  0.00    +0.010 A 
ATOM     16  C   UNL     1      34.974  24.459  15.750  0.00  0.00    +0.020 A 
ATOM     17  C   UNL     1      35.663  24.370  14.554  0.00  0.00    +0.111 A 
ATOM     18  N   UNL     1      35.442  23.414  13.627  0.00  0.00    -0.263 NA
ATOM     19  C   UNL     1      34.484  22.497  13.911  0.00  0.00    +0.118 A 
ENDBRANCH  13  14
BRANCH  13  20
ATOM     20  C   UNL     1      31.353  22.123  15.676  0.00  0.00    +0.034 C 
ATOM     21  C   UNL     1      30.804  22.215  17.085  0.00  0.00    +0.008 C 
ATOM     22  C   UNL     1      30.146  21.306  16.094  0.00  0.00    +0.008 C 
ENDBRANCH  13  20
ENDBRANCH  12  13
ENDBRANCH   5  12
TORSDOF 5
ENDMDL
