MODEL 1
REMARK VINA RESULT:      -7.5      0.000      0.000
REMARK  Name = ZINC000329563636
REMARK  3 active torsions:
REMARK  status: ('A' for Active; 'I' for Inactive)
REMARK    1  A    between atoms: C_1  and  C_2
REMARK    2  A    between atoms: C_2  and  N_3
REMARK    3  A    between atoms: N_9  and  C_10
REMARK                            x       y       z     vdW  Elec       q    Type
REMARK                         _______ _______ _______ _____ _____    ______ ____
ROOT
ATOM      1  C   UNL     1      27.805  21.678  18.432  0.00  0.00    +0.112 C 
ATOM      2  C   UNL     1      27.773  21.211  16.974  0.00  0.00    +0.075 C 
ATOM      3  C   UNL     1      29.148  21.104  16.297  0.00  0.00    +0.113 C 
ATOM      4  C   UNL     1      29.898  19.771  16.551  0.00  0.00    +0.048 C 
ATOM      5  C   UNL     1      29.931  19.037  15.215  0.00  0.00    +0.004 C 
ATOM      6  C   UNL     1      29.928  20.147  14.184  0.00  0.00    +0.004 C 
ATOM      7  C   UNL     1      28.939  21.145  14.761  0.00  0.00    +0.048 C 
ATOM      8  O   UNL     1      30.000  22.214  16.638  0.00  0.00    -0.485 OA
ATOM      9  C   UNL     1      30.187  22.352  17.989  0.00  0.00    +0.126 A 
ATOM     10  C   UNL     1      31.437  22.785  18.426  0.00  0.00    +0.046 A 
ATOM     11  C   UNL     1      31.696  22.905  19.792  0.00  0.00    +0.004 A 
ATOM     12  C   UNL     1      30.698  22.612  20.719  0.00  0.00    +0.001 A 
ATOM     13  C   UNL     1      29.438  22.210  20.276  0.00  0.00    +0.009 A 
ATOM     14  C   UNL     1      29.174  22.076  18.903  0.00  0.00    +0.015 A 
ENDROOT
BRANCH   1  21
ATOM     15  N   UNL     1      23.415  25.720  20.429  0.00  0.00    -0.299 N 
ATOM     16  C   UNL     1      22.974  24.327  20.366  0.00  0.00    +0.127 C 
ATOM     17  C   UNL     1      23.356  23.661  19.047  0.00  0.00    +0.129 C 
ATOM     18  N   UNL     1      24.795  23.775  18.858  0.00  0.00    -0.275 N 
ATOM     19  C   UNL     1      25.548  22.629  18.744  0.00  0.00    +0.303 C 
ATOM     20  O   UNL     1      25.052  21.504  18.788  0.00  0.00    -0.253 OA
ATOM     21  N   UNL     1      26.895  22.809  18.610  0.00  0.00    -0.292 N 
ATOM     22  C   UNL     1      25.298  25.151  18.864  0.00  0.00    +0.205 C 
ATOM     23  C   UNL     1      24.501  26.180  19.693  0.00  0.00    +0.233 C 
ATOM     24  O   UNL     1      24.843  27.364  19.697  0.00  0.00    -0.274 OA
ATOM     25  H   UNL     1      27.220  23.680  18.226  0.00  0.00    +0.151 HD
BRANCH  15  27
ATOM     26  C   UNL     1      21.833  25.853  22.322  0.00  0.00    +0.024 C 
ATOM     27  C   UNL     1      22.763  26.607  21.387  0.00  0.00    +0.104 C 
ENDBRANCH  15  27
ENDBRANCH   1  21
TORSDOF 2
ENDMDL
MODEL 2
REMARK VINA RESULT:      -7.1      1.851      2.102
REMARK  Name = ZINC000329563636
REMARK  3 active torsions:
REMARK  status: ('A' for Active; 'I' for Inactive)
REMARK    1  A    between atoms: C_1  and  C_2
REMARK    2  A    between atoms: C_2  and  N_3
REMARK    3  A    between atoms: N_9  and  C_10
REMARK                            x       y       z     vdW  Elec       q    Type
REMARK                         _______ _______ _______ _____ _____    ______ ____
ROOT
ATOM      1  C   UNL     1      29.128  22.282  19.403  0.00  0.00    +0.112 C 
ATOM      2  C   UNL     1      29.222  22.124  17.882  0.00  0.00    +0.075 C 
ATOM      3  C   UNL     1      30.648  21.960  17.334  0.00  0.00    +0.113 C 
ATOM      4  C   UNL     1      31.195  20.509  17.369  0.00  0.00    +0.048 C 
ATOM      5  C   UNL     1      31.307  20.058  15.917  0.00  0.00    +0.004 C 
ATOM      6  C   UNL     1      31.564  21.341  15.152  0.00  0.00    +0.004 C 
ATOM      7  C   UNL     1      30.637  22.334  15.830  0.00  0.00    +0.048 C 
ATOM      8  O   UNL     1      31.577  22.846  17.986  0.00  0.00    -0.485 OA
ATOM      9  C   UNL     1      31.609  22.685  19.346  0.00  0.00    +0.126 A 
ATOM     10  C   UNL     1      32.838  22.840  19.985  0.00  0.00    +0.046 A 
ATOM     11  C   UNL     1      32.937  22.648  21.363  0.00  0.00    +0.004 A 
ATOM     12  C   UNL     1      31.805  22.321  22.106  0.00  0.00    +0.001 A 
ATOM     13  C   UNL     1      30.571  22.199  21.467  0.00  0.00    +0.009 A 
ATOM     14  C   UNL     1      30.465  22.380  20.078  0.00  0.00    +0.015 A 
ENDROOT
BRANCH   1  21
ATOM     15  N   UNL     1      24.971  26.407  21.708  0.00  0.00    -0.299 N 
ATOM     16  C   UNL     1      24.384  25.156  21.230  0.00  0.00    +0.127 C 
ATOM     17  C   UNL     1      24.913  24.760  19.854  0.00  0.00    +0.129 C 
ATOM     18  N   UNL     1      26.365  24.681  19.910  0.00  0.00    -0.275 N 
ATOM     19  C   UNL     1      26.983  23.487  19.617  0.00  0.00    +0.303 C 
ATOM     20  O   UNL     1      26.355  22.477  19.303  0.00  0.00    -0.253 OA
ATOM     21  N   UNL     1      28.343  23.473  19.729  0.00  0.00    -0.292 N 
ATOM     22  C   UNL     1      27.022  25.919  20.338  0.00  0.00    +0.205 C 
ATOM     23  C   UNL     1      26.219  26.844  21.277  0.00  0.00    +0.233 C 
ATOM     24  O   UNL     1      26.696  27.924  21.631  0.00  0.00    -0.274 OA
ATOM     25  H   UNL     1      28.836  24.345  19.630  0.00  0.00    +0.151 HD
BRANCH  15  27
ATOM     26  C   UNL     1      24.457  26.507  24.121  0.00  0.00    +0.024 C 
ATOM     27  C   UNL     1      24.271  27.143  22.755  0.00  0.00    +0.104 C 
ENDBRANCH  15  27
ENDBRANCH   1  21
TORSDOF 2
ENDMDL
MODEL 3
REMARK VINA RESULT:      -7.0      7.627     12.947
REMARK  Name = ZINC000329563636
REMARK  3 active torsions:
REMARK  status: ('A' for Active; 'I' for Inactive)
REMARK    1  A    between atoms: C_1  and  C_2
REMARK    2  A    between atoms: C_2  and  N_3
REMARK    3  A    between atoms: N_9  and  C_10
REMARK                            x       y       z     vdW  Elec       q    Type
REMARK                         _______ _______ _______ _____ _____    ______ ____
ROOT
ATOM      1  C   UNL     1      31.461  16.499  13.031  0.00  0.00    +0.112 C 
ATOM      2  C   UNL     1      30.832  17.117  14.284  0.00  0.00    +0.075 C 
ATOM      3  C   UNL     1      31.239  18.572  14.564  0.00  0.00    +0.113 C 
ATOM      4  C   UNL     1      30.408  19.638  13.803  0.00  0.00    +0.048 C 
ATOM      5  C   UNL     1      29.587  20.373  14.857  0.00  0.00    +0.004 C 
ATOM      6  C   UNL     1      30.436  20.290  16.110  0.00  0.00    +0.004 C 
ATOM      7  C   UNL     1      30.977  18.872  16.062  0.00  0.00    +0.048 C 
ATOM      8  O   UNL     1      32.643  18.790  14.327  0.00  0.00    -0.485 OA
ATOM      9  C   UNL     1      33.030  18.464  13.054  0.00  0.00    +0.126 A 
ATOM     10  C   UNL     1      34.016  19.249  12.459  0.00  0.00    +0.046 A 
ATOM     11  C   UNL     1      34.420  18.987  11.149  0.00  0.00    +0.004 A 
ATOM     12  C   UNL     1      33.853  17.928  10.442  0.00  0.00    +0.001 A 
ATOM     13  C   UNL     1      32.891  17.125  11.053  0.00  0.00    +0.009 A 
ATOM     14  C   UNL     1      32.471  17.389  12.368  0.00  0.00    +0.015 A 
ENDROOT
BRANCH   1  21
ATOM     15  N   UNL     1      34.507  10.993  12.976  0.00  0.00    -0.299 N 
ATOM     16  C   UNL     1      33.487  11.133  11.938  0.00  0.00    +0.127 C 
ATOM     17  C   UNL     1      32.171  11.671  12.492  0.00  0.00    +0.129 C 
ATOM     18  N   UNL     1      32.423  12.936  13.167  0.00  0.00    -0.275 N 
ATOM     19  C   UNL     1      31.786  14.071  12.722  0.00  0.00    +0.303 C 
ATOM     20  O   UNL     1      31.003  14.061  11.773  0.00  0.00    -0.253 OA
ATOM     21  N   UNL     1      32.100  15.229  13.373  0.00  0.00    -0.292 N 
ATOM     22  C   UNL     1      33.404  12.857  14.253  0.00  0.00    +0.205 C 
ATOM     23  C   UNL     1      34.489  11.767  14.131  0.00  0.00    +0.233 C 
ATOM     24  O   UNL     1      35.313  11.615  15.036  0.00  0.00    -0.274 OA
ATOM     25  H   UNL     1      32.433  15.163  14.321  0.00  0.00    +0.151 HD
BRANCH  15  27
ATOM     26  C   UNL     1      35.276   8.646  12.980  0.00  0.00    +0.024 C 
ATOM     27  C   UNL     1      35.633  10.100  12.722  0.00  0.00    +0.104 C 
ENDBRANCH  15  27
ENDBRANCH   1  21
TORSDOF 2
ENDMDL
MODEL 4
REMARK VINA RESULT:      -6.8      5.203      7.849
REMARK  Name = ZINC000329563636
REMARK  3 active torsions:
REMARK  status: ('A' for Active; 'I' for Inactive)
REMARK    1  A    between atoms: C_1  and  C_2
REMARK    2  A    between atoms: C_2  and  N_3
REMARK    3  A    between atoms: N_9  and  C_10
REMARK                            x       y       z     vdW  Elec       q    Type
REMARK                         _______ _______ _______ _____ _____    ______ ____
ROOT
ATOM      1  C   UNL     1      31.644  22.641  13.066  0.00  0.00    +0.112 C 
ATOM      2  C   UNL     1      31.972  23.907  12.267  0.00  0.00    +0.075 C 
ATOM      3  C   UNL     1      33.041  23.727  11.178  0.00  0.00    +0.113 C 
ATOM      4  C   UNL     1      32.508  23.191   9.825  0.00  0.00    +0.048 C 
ATOM      5  C   UNL     1      32.645  24.335   8.826  0.00  0.00    +0.004 C 
ATOM      6  C   UNL     1      33.834  25.126   9.335  0.00  0.00    +0.004 C 
ATOM      7  C   UNL     1      33.628  25.121  10.839  0.00  0.00    +0.048 C 
ATOM      8  O   UNL     1      34.133  22.905  11.632  0.00  0.00    -0.485 OA
ATOM      9  C   UNL     1      33.732  21.667  12.060  0.00  0.00    +0.126 A 
ATOM     10  C   UNL     1      34.580  20.591  11.805  0.00  0.00    +0.046 A 
ATOM     11  C   UNL     1      34.203  19.301  12.182  0.00  0.00    +0.004 A 
ATOM     12  C   UNL     1      32.990  19.091  12.833  0.00  0.00    +0.001 A 
ATOM     13  C   UNL     1      32.159  20.175  13.114  0.00  0.00    +0.009 A 
ATOM     14  C   UNL     1      32.525  21.475  12.728  0.00  0.00    +0.015 A 
ENDROOT
BRANCH   1  21
ATOM     15  N   UNL     1      31.794  22.315  19.349  0.00  0.00    -0.299 N 
ATOM     16  C   UNL     1      30.637  21.666  18.734  0.00  0.00    +0.127 C 
ATOM     17  C   UNL     1      29.972  22.548  17.682  0.00  0.00    +0.129 C 
ATOM     18  N   UNL     1      30.964  22.925  16.686  0.00  0.00    -0.275 N 
ATOM     19  C   UNL     1      30.763  22.569  15.372  0.00  0.00    +0.303 C 
ATOM     20  O   UNL     1      29.770  21.946  15.000  0.00  0.00    -0.253 OA
ATOM     21  N   UNL     1      31.752  22.918  14.498  0.00  0.00    -0.292 N 
ATOM     22  C   UNL     1      32.132  23.624  17.229  0.00  0.00    +0.205 C 
ATOM     23  C   UNL     1      32.523  23.295  18.685  0.00  0.00    +0.233 C 
ATOM     24  O   UNL     1      33.465  23.887  19.218  0.00  0.00    -0.274 OA
ATOM     25  H   UNL     1      32.339  23.701  14.736  0.00  0.00    +0.151 HD
BRANCH  15  27
ATOM     26  C   UNL     1      31.268  22.133  21.755  0.00  0.00    +0.024 C 
ATOM     27  C   UNL     1      32.255  21.823  20.643  0.00  0.00    +0.104 C 
ENDBRANCH  15  27
ENDBRANCH   1  21
TORSDOF 2
ENDMDL
MODEL 5
REMARK VINA RESULT:      -6.8      5.443      9.951
REMARK  Name = ZINC000329563636
REMARK  3 active torsions:
REMARK  status: ('A' for Active; 'I' for Inactive)
REMARK    1  A    between atoms: C_1  and  C_2
REMARK    2  A    between atoms: C_2  and  N_3
REMARK    3  A    between atoms: N_9  and  C_10
REMARK                            x       y       z     vdW  Elec       q    Type
REMARK                         _______ _______ _______ _____ _____    ______ ____
ROOT
ATOM      1  C   UNL     1      31.667  22.027  15.175  0.00  0.00    +0.112 C 
ATOM      2  C   UNL     1      30.166  22.265  15.361  0.00  0.00    +0.075 C 
ATOM      3  C   UNL     1      29.399  21.099  16.004  0.00  0.00    +0.113 C 
ATOM      4  C   UNL     1      29.435  21.073  17.554  0.00  0.00    +0.048 C 
ATOM      5  C   UNL     1      28.017  21.381  18.021  0.00  0.00    +0.004 C 
ATOM      6  C   UNL     1      27.139  20.849  16.906  0.00  0.00    +0.004 C 
ATOM      7  C   UNL     1      27.897  21.252  15.654  0.00  0.00    +0.048 C 
ATOM      8  O   UNL     1      29.829  19.826  15.486  0.00  0.00    -0.485 OA
ATOM      9  C   UNL     1      31.172  19.607  15.644  0.00  0.00    +0.126 A 
ATOM     10  C   UNL     1      31.585  18.304  15.916  0.00  0.00    +0.046 A 
ATOM     11  C   UNL     1      32.937  18.031  16.126  0.00  0.00    +0.004 A 
ATOM     12  C   UNL     1      33.878  19.055  16.044  0.00  0.00    +0.001 A 
ATOM     13  C   UNL     1      33.463  20.352  15.740  0.00  0.00    +0.009 A 
ATOM     14  C   UNL     1      32.102  20.637  15.538  0.00  0.00    +0.015 A 
ENDROOT
BRANCH   1  21
ATOM     15  N   UNL     1      34.695  22.765   9.708  0.00  0.00    -0.299 N 
ATOM     16  C   UNL     1      35.364  23.370  10.859  0.00  0.00    +0.127 C 
ATOM     17  C   UNL     1      34.406  24.188  11.719  0.00  0.00    +0.129 C 
ATOM     18  N   UNL     1      33.297  23.339  12.131  0.00  0.00    -0.275 N 
ATOM     19  C   UNL     1      33.073  23.134  13.473  0.00  0.00    +0.303 C 
ATOM     20  O   UNL     1      33.771  23.647  14.346  0.00  0.00    -0.253 OA
ATOM     21  N   UNL     1      32.043  22.295  13.787  0.00  0.00    -0.292 N 
ATOM     22  C   UNL     1      32.551  22.737  11.022  0.00  0.00    +0.205 C 
ATOM     23  C   UNL     1      33.334  22.481   9.716  0.00  0.00    +0.233 C 
ATOM     24  O   UNL     1      32.751  22.024   8.730  0.00  0.00    -0.274 OA
ATOM     25  H   UNL     1      31.298  22.188  13.118  0.00  0.00    +0.151 HD
BRANCH  15  27
ATOM     26  C   UNL     1      35.819  23.499   7.635  0.00  0.00    +0.024 C 
ATOM     27  C   UNL     1      35.513  22.346   8.575  0.00  0.00    +0.104 C 
ENDBRANCH  15  27
ENDBRANCH   1  21
TORSDOF 2
ENDMDL
MODEL 6
REMARK VINA RESULT:      -6.7     22.163     23.405
REMARK  Name = ZINC000329563636
REMARK  3 active torsions:
REMARK  status: ('A' for Active; 'I' for Inactive)
REMARK    1  A    between atoms: C_1  and  C_2
REMARK    2  A    between atoms: C_2  and  N_3
REMARK    3  A    between atoms: N_9  and  C_10
REMARK                            x       y       z     vdW  Elec       q    Type
REMARK                         _______ _______ _______ _____ _____    ______ ____
ROOT
ATOM      1  C   UNL     1      19.213   6.174  29.576  0.00  0.00    +0.112 C 
ATOM      2  C   UNL     1      20.431   6.642  30.379  0.00  0.00    +0.075 C 
ATOM      3  C   UNL     1      21.709   5.818  30.158  0.00  0.00    +0.113 C 
ATOM      4  C   UNL     1      22.548   6.237  28.923  0.00  0.00    +0.048 C 
ATOM      5  C   UNL     1      23.837   6.842  29.467  0.00  0.00    +0.004 C 
ATOM      6  C   UNL     1      24.053   6.125  30.785  0.00  0.00    +0.004 C 
ATOM      7  C   UNL     1      22.652   6.050  31.365  0.00  0.00    +0.048 C 
ATOM      8  O   UNL     1      21.431   4.406  30.102  0.00  0.00    -0.485 OA
ATOM      9  C   UNL     1      20.523   4.075  29.130  0.00  0.00    +0.126 A 
ATOM     10  C   UNL     1      20.706   2.865  28.463  0.00  0.00    +0.046 A 
ATOM     11  C   UNL     1      19.835   2.497  27.437  0.00  0.00    +0.004 A 
ATOM     12  C   UNL     1      18.770   3.327  27.092  0.00  0.00    +0.001 A 
ATOM     13  C   UNL     1      18.573   4.522  27.785  0.00  0.00    +0.009 A 
ATOM     14  C   UNL     1      19.452   4.905  28.812  0.00  0.00    +0.015 A 
ENDROOT
BRANCH   1  21
ATOM     15  N   UNL     1      13.547   5.112  32.102  0.00  0.00    -0.299 N 
ATOM     16  C   UNL     1      13.548   6.057  30.986  0.00  0.00    +0.127 C 
ATOM     17  C   UNL     1      14.646   7.108  31.120  0.00  0.00    +0.129 C 
ATOM     18  N   UNL     1      15.930   6.435  31.250  0.00  0.00    -0.275 N 
ATOM     19  C   UNL     1      16.910   6.674  30.314  0.00  0.00    +0.303 C 
ATOM     20  O   UNL     1      16.746   7.443  29.367  0.00  0.00    -0.253 OA
ATOM     21  N   UNL     1      18.074   5.980  30.474  0.00  0.00    -0.292 N 
ATOM     22  C   UNL     1      16.015   5.506  32.380  0.00  0.00    +0.205 C 
ATOM     23  C   UNL     1      14.697   4.843  32.835  0.00  0.00    +0.233 C 
ATOM     24  O   UNL     1      14.693   4.091  33.812  0.00  0.00    -0.274 OA
ATOM     25  H   UNL     1      18.312   5.661  31.398  0.00  0.00    +0.151 HD
BRANCH  15  27
ATOM     26  C   UNL     1      11.280   5.182  33.079  0.00  0.00    +0.024 C 
ATOM     27  C   UNL     1      12.330   4.351  32.362  0.00  0.00    +0.104 C 
ENDBRANCH  15  27
ENDBRANCH   1  21
TORSDOF 2
ENDMDL
MODEL 7
REMARK VINA RESULT:      -6.6      5.435      9.632
REMARK  Name = ZINC000329563636
REMARK  3 active torsions:
REMARK  status: ('A' for Active; 'I' for Inactive)
REMARK    1  A    between atoms: C_1  and  C_2
REMARK    2  A    between atoms: C_2  and  N_3
REMARK    3  A    between atoms: N_9  and  C_10
REMARK                            x       y       z     vdW  Elec       q    Type
REMARK                         _______ _______ _______ _____ _____    ______ ____
ROOT
ATOM      1  C   UNL     1      32.714  21.974  15.555  0.00  0.00    +0.112 C 
ATOM      2  C   UNL     1      32.320  22.851  16.748  0.00  0.00    +0.075 C 
ATOM      3  C   UNL     1      31.215  22.270  17.643  0.00  0.00    +0.113 C 
ATOM      4  C   UNL     1      31.709  21.278  18.727  0.00  0.00    +0.048 C 
ATOM      5  C   UNL     1      31.501  21.971  20.069  0.00  0.00    +0.004 C 
ATOM      6  C   UNL     1      30.312  22.881  19.834  0.00  0.00    +0.004 C 
ATOM      7  C   UNL     1      30.577  23.434  18.444  0.00  0.00    +0.048 C 
ATOM      8  O   UNL     1      30.164  21.662  16.868  0.00  0.00    -0.485 OA
ATOM      9  C   UNL     1      30.615  20.674  16.033  0.00  0.00    +0.126 A 
ATOM     10  C   UNL     1      29.788  19.571  15.834  0.00  0.00    +0.046 A 
ATOM     11  C   UNL     1      30.213  18.516  15.026  0.00  0.00    +0.004 A 
ATOM     12  C   UNL     1      31.457  18.574  14.401  0.00  0.00    +0.001 A 
ATOM     13  C   UNL     1      32.269  19.694  14.577  0.00  0.00    +0.009 A 
ATOM     14  C   UNL     1      31.852  20.756  15.399  0.00  0.00    +0.015 A 
ENDROOT
BRANCH   1  21
ATOM     15  N   UNL     1      33.090  24.073   9.634  0.00  0.00    -0.299 N 
ATOM     16  C   UNL     1      34.310  23.439  10.133  0.00  0.00    +0.127 C 
ATOM     17  C   UNL     1      34.698  23.945  11.519  0.00  0.00    +0.129 C 
ATOM     18  N   UNL     1      33.579  23.739  12.428  0.00  0.00    -0.275 N 
ATOM     19  C   UNL     1      33.755  22.943  13.536  0.00  0.00    +0.303 C 
ATOM     20  O   UNL     1      34.827  22.398  13.797  0.00  0.00    -0.253 OA
ATOM     21  N   UNL     1      32.654  22.759  14.322  0.00  0.00    -0.292 N 
ATOM     22  C   UNL     1      32.334  24.388  12.011  0.00  0.00    +0.205 C 
ATOM     23  C   UNL     1      32.126  24.587  10.495  0.00  0.00    +0.233 C 
ATOM     24  O   UNL     1      31.123  25.172  10.082  0.00  0.00    -0.274 OA
ATOM     25  H   UNL     1      31.936  23.464  14.303  0.00  0.00    +0.151 HD
BRANCH  15  27
ATOM     26  C   UNL     1      33.649  22.975   7.494  0.00  0.00    +0.024 C 
ATOM     27  C   UNL     1      32.837  24.048   8.198  0.00  0.00    +0.104 C 
ENDBRANCH  15  27
ENDBRANCH   1  21
TORSDOF 2
ENDMDL
MODEL 8
REMARK VINA RESULT:      -6.5      5.170      8.410
REMARK  Name = ZINC000329563636
REMARK  3 active torsions:
REMARK  status: ('A' for Active; 'I' for Inactive)
REMARK    1  A    between atoms: C_1  and  C_2
REMARK    2  A    between atoms: C_2  and  N_3
REMARK    3  A    between atoms: N_9  and  C_10
REMARK                            x       y       z     vdW  Elec       q    Type
REMARK                         _______ _______ _______ _____ _____    ______ ____
ROOT
ATOM      1  C   UNL     1      33.559  21.946  12.763  0.00  0.00    +0.112 C 
ATOM      2  C   UNL     1      34.233  20.699  12.183  0.00  0.00    +0.075 C 
ATOM      3  C   UNL     1      34.442  20.724  10.661  0.00  0.00    +0.113 C 
ATOM      4  C   UNL     1      35.727  21.454  10.192  0.00  0.00    +0.048 C 
ATOM      5  C   UNL     1      36.647  20.379   9.625  0.00  0.00    +0.004 C 
ATOM      6  C   UNL     1      35.698  19.321   9.099  0.00  0.00    +0.004 C 
ATOM      7  C   UNL     1      34.624  19.264  10.171  0.00  0.00    +0.048 C 
ATOM      8  O   UNL     1      33.297  21.262   9.973  0.00  0.00    -0.485 OA
ATOM      9  C   UNL     1      32.964  22.524  10.390  0.00  0.00    +0.126 A 
ATOM     10  C   UNL     1      32.477  23.412   9.432  0.00  0.00    +0.046 A 
ATOM     11  C   UNL     1      32.160  24.722   9.793  0.00  0.00    +0.004 A 
ATOM     12  C   UNL     1      32.312  25.139  11.114  0.00  0.00    +0.001 A 
ATOM     13  C   UNL     1      32.770  24.238  12.075  0.00  0.00    +0.009 A 
ATOM     14  C   UNL     1      33.101  22.920  11.718  0.00  0.00    +0.015 A 
ENDROOT
BRANCH   1  21
ATOM     15  N   UNL     1      29.287  21.194  17.323  0.00  0.00    -0.299 N 
ATOM     16  C   UNL     1      30.676  21.075  17.766  0.00  0.00    +0.127 C 
ATOM     17  C   UNL     1      31.497  20.171  16.852  0.00  0.00    +0.129 C 
ATOM     18  N   UNL     1      31.412  20.675  15.488  0.00  0.00    -0.275 N 
ATOM     19  C   UNL     1      32.567  21.051  14.840  0.00  0.00    +0.303 C 
ATOM     20  O   UNL     1      33.676  20.972  15.366  0.00  0.00    -0.253 OA
ATOM     21  N   UNL     1      32.411  21.553  13.581  0.00  0.00    -0.292 N 
ATOM     22  C   UNL     1      30.048  20.776  14.964  0.00  0.00    +0.205 C 
ATOM     23  C   UNL     1      28.924  21.016  15.993  0.00  0.00    +0.233 C 
ATOM     24  O   UNL     1      27.749  21.059  15.622  0.00  0.00    -0.274 OA
ATOM     25  H   UNL     1      31.594  21.280  13.060  0.00  0.00    +0.151 HD
BRANCH  15  27
ATOM     26  C   UNL     1      28.924  22.228  19.537  0.00  0.00    +0.024 C 
ATOM     27  C   UNL     1      28.288  21.631  18.293  0.00  0.00    +0.104 C 
ENDBRANCH  15  27
ENDBRANCH   1  21
TORSDOF 2
ENDMDL
MODEL 9
REMARK VINA RESULT:      -6.4      6.062      9.776
REMARK  Name = ZINC000329563636
REMARK  3 active torsions:
REMARK  status: ('A' for Active; 'I' for Inactive)
REMARK    1  A    between atoms: C_1  and  C_2
REMARK    2  A    between atoms: C_2  and  N_3
REMARK    3  A    between atoms: N_9  and  C_10
REMARK                            x       y       z     vdW  Elec       q    Type
REMARK                         _______ _______ _______ _____ _____    ______ ____
ROOT
ATOM      1  C   UNL     1      32.521  19.870  14.720  0.00  0.00    +0.112 C 
ATOM      2  C   UNL     1      33.752  19.581  15.585  0.00  0.00    +0.075 C 
ATOM      3  C   UNL     1      33.495  19.583  17.100  0.00  0.00    +0.113 C 
ATOM      4  C   UNL     1      32.964  18.243  17.672  0.00  0.00    +0.048 C 
ATOM      5  C   UNL     1      34.081  17.676  18.541  0.00  0.00    +0.004 C 
ATOM      6  C   UNL     1      34.815  18.903  19.044  0.00  0.00    +0.004 C 
ATOM      7  C   UNL     1      34.848  19.805  17.822  0.00  0.00    +0.048 C 
ATOM      8  O   UNL     1      32.623  20.660  17.493  0.00  0.00    -0.485 OA
ATOM      9  C   UNL     1      31.416  20.638  16.844  0.00  0.00    +0.126 A 
ATOM     10  C   UNL     1      30.291  21.039  17.562  0.00  0.00    +0.046 A 
ATOM     11  C   UNL     1      29.031  20.998  16.964  0.00  0.00    +0.004 A 
ATOM     12  C   UNL     1      28.898  20.577  15.643  0.00  0.00    +0.001 A 
ATOM     13  C   UNL     1      30.031  20.207  14.918  0.00  0.00    +0.009 A 
ATOM     14  C   UNL     1      31.302  20.234  15.517  0.00  0.00    +0.015 A 
ENDROOT
BRANCH   1  21
ATOM     15  N   UNL     1      33.190  23.542   9.654  0.00  0.00    -0.299 N 
ATOM     16  C   UNL     1      33.647  22.165   9.470  0.00  0.00    +0.127 C 
ATOM     17  C   UNL     1      34.525  21.691  10.624  0.00  0.00    +0.129 C 
ATOM     18  N   UNL     1      33.793  21.849  11.872  0.00  0.00    -0.275 N 
ATOM     19  C   UNL     1      33.543  20.740  12.648  0.00  0.00    +0.303 C 
ATOM     20  O   UNL     1      33.921  19.613  12.331  0.00  0.00    -0.253 OA
ATOM     21  N   UNL     1      32.817  20.953  13.783  0.00  0.00    -0.292 N 
ATOM     22  C   UNL     1      33.345  23.218  12.142  0.00  0.00    +0.205 C 
ATOM     23  C   UNL     1      33.069  24.113  10.916  0.00  0.00    +0.233 C 
ATOM     24  O   UNL     1      32.740  25.290  11.076  0.00  0.00    -0.274 OA
ATOM     25  H   UNL     1      32.836  21.873  14.191  0.00  0.00    +0.151 HD
BRANCH  15  27
ATOM     26  C   UNL     1      33.127  23.589   7.185  0.00  0.00    +0.024 C 
ATOM     27  C   UNL     1      32.738  24.282   8.480  0.00  0.00    +0.104 C 
ENDBRANCH  15  27
ENDBRANCH   1  21
TORSDOF 2
ENDMDL
