MODEL 1
REMARK VINA RESULT:      -6.9      0.000      0.000
REMARK  Name = ZINC000329563636
REMARK  3 active torsions:
REMARK  status: ('A' for Active; 'I' for Inactive)
REMARK    1  A    between atoms: C_1  and  C_2
REMARK    2  A    between atoms: C_2  and  N_3
REMARK    3  A    between atoms: N_9  and  C_10
REMARK                            x       y       z     vdW  Elec       q    Type
REMARK                         _______ _______ _______ _____ _____    ______ ____
ROOT
ATOM      1  C   UNL     1      32.155  21.367  16.058  0.00  0.00    +0.112 C 
ATOM      2  C   UNL     1      32.615  19.908  15.971  0.00  0.00    +0.075 C 
ATOM      3  C   UNL     1      31.511  18.867  16.206  0.00  0.00    +0.113 C 
ATOM      4  C   UNL     1      30.662  18.525  14.953  0.00  0.00    +0.048 C 
ATOM      5  C   UNL     1      31.012  17.090  14.577  0.00  0.00    +0.004 C 
ATOM      6  C   UNL     1      31.369  16.442  15.901  0.00  0.00    +0.004 C 
ATOM      7  C   UNL     1      32.180  17.523  16.597  0.00  0.00    +0.048 C 
ATOM      8  O   UNL     1      30.645  19.239  17.296  0.00  0.00    -0.485 OA
ATOM      9  C   UNL     1      30.062  20.466  17.120  0.00  0.00    +0.126 A 
ATOM     10  C   UNL     1      28.760  20.630  17.589  0.00  0.00    +0.046 A 
ATOM     11  C   UNL     1      28.098  21.845  17.402  0.00  0.00    +0.004 A 
ATOM     12  C   UNL     1      28.749  22.902  16.770  0.00  0.00    +0.001 A 
ATOM     13  C   UNL     1      30.064  22.744  16.332  0.00  0.00    +0.009 A 
ATOM     14  C   UNL     1      30.732  21.521  16.504  0.00  0.00    +0.015 A 
ENDROOT
BRANCH   1  21
ATOM     15  N   UNL     1      35.100  25.753  19.522  0.00  0.00    -0.299 N 
ATOM     16  C   UNL     1      34.835  26.114  18.130  0.00  0.00    +0.127 C 
ATOM     17  C   UNL     1      35.255  25.004  17.173  0.00  0.00    +0.129 C 
ATOM     18  N   UNL     1      34.531  23.790  17.518  0.00  0.00    -0.275 N 
ATOM     19  C   UNL     1      33.693  23.225  16.582  0.00  0.00    +0.303 C 
ATOM     20  O   UNL     1      33.530  23.710  15.463  0.00  0.00    -0.253 OA
ATOM     21  N   UNL     1      33.024  22.105  16.977  0.00  0.00    -0.292 N 
ATOM     22  C   UNL     1      34.729  23.340  18.899  0.00  0.00    +0.205 C 
ATOM     23  C   UNL     1      34.983  24.434  19.958  0.00  0.00    +0.233 C 
ATOM     24  O   UNL     1      35.107  24.121  21.145  0.00  0.00    -0.274 OA
ATOM     25  H   UNL     1      33.425  21.548  17.715  0.00  0.00    +0.151 HD
BRANCH  15  27
ATOM     26  C   UNL     1      35.986  28.005  20.058  0.00  0.00    +0.024 C 
ATOM     27  C   UNL     1      35.145  26.822  20.514  0.00  0.00    +0.104 C 
ENDBRANCH  15  27
ENDBRANCH   1  21
TORSDOF 2
ENDMDL
MODEL 2
REMARK VINA RESULT:      -6.6      5.362      8.680
REMARK  Name = ZINC000329563636
REMARK  3 active torsions:
REMARK  status: ('A' for Active; 'I' for Inactive)
REMARK    1  A    between atoms: C_1  and  C_2
REMARK    2  A    between atoms: C_2  and  N_3
REMARK    3  A    between atoms: N_9  and  C_10
REMARK                            x       y       z     vdW  Elec       q    Type
REMARK                         _______ _______ _______ _____ _____    ______ ____
ROOT
ATOM      1  C   UNL     1      26.197  24.380  20.028  0.00  0.00    +0.112 C 
ATOM      2  C   UNL     1      26.421  25.313  21.223  0.00  0.00    +0.075 C 
ATOM      3  C   UNL     1      25.527  26.561  21.245  0.00  0.00    +0.113 C 
ATOM      4  C   UNL     1      24.120  26.343  21.860  0.00  0.00    +0.048 C 
ATOM      5  C   UNL     1      24.100  27.122  23.170  0.00  0.00    +0.004 C 
ATOM      6  C   UNL     1      25.048  28.279  22.921  0.00  0.00    +0.004 C 
ATOM      7  C   UNL     1      26.189  27.623  22.162  0.00  0.00    +0.048 C 
ATOM      8  O   UNL     1      25.401  27.155  19.938  0.00  0.00    -0.485 OA
ATOM      9  C   UNL     1      24.915  26.282  18.999  0.00  0.00    +0.126 A 
ATOM     10  C   UNL     1      24.075  26.802  18.016  0.00  0.00    +0.046 A 
ATOM     11  C   UNL     1      23.516  25.955  17.056  0.00  0.00    +0.004 A 
ATOM     12  C   UNL     1      23.819  24.595  17.067  0.00  0.00    +0.001 A 
ATOM     13  C   UNL     1      24.687  24.086  18.034  0.00  0.00    +0.009 A 
ATOM     14  C   UNL     1      25.242  24.928  19.010  0.00  0.00    +0.015 A 
ENDROOT
BRANCH   1  21
ATOM     15  N   UNL     1      30.823  22.811  16.022  0.00  0.00    -0.299 N 
ATOM     16  C   UNL     1      29.660  21.924  16.030  0.00  0.00    +0.127 C 
ATOM     17  C   UNL     1      29.257  21.540  17.449  0.00  0.00    +0.129 C 
ATOM     18  N   UNL     1      28.962  22.753  18.197  0.00  0.00    -0.275 N 
ATOM     19  C   UNL     1      27.696  22.928  18.710  0.00  0.00    +0.303 C 
ATOM     20  O   UNL     1      26.801  22.098  18.558  0.00  0.00    -0.253 OA
ATOM     21  N   UNL     1      27.477  24.098  19.376  0.00  0.00    -0.292 N 
ATOM     22  C   UNL     1      30.068  23.714  18.249  0.00  0.00    +0.205 C 
ATOM     23  C   UNL     1      31.019  23.749  17.033  0.00  0.00    +0.233 C 
ATOM     24  O   UNL     1      31.938  24.571  16.998  0.00  0.00    -0.274 OA
ATOM     25  H   UNL     1      28.270  24.567  19.783  0.00  0.00    +0.151 HD
BRANCH  15  27
ATOM     26  C   UNL     1      31.024  22.071  13.664  0.00  0.00    +0.024 C 
ATOM     27  C   UNL     1      31.578  22.944  14.780  0.00  0.00    +0.104 C 
ENDBRANCH  15  27
ENDBRANCH   1  21
TORSDOF 2
ENDMDL
MODEL 3
REMARK VINA RESULT:      -6.5      3.242      8.490
REMARK  Name = ZINC000329563636
REMARK  3 active torsions:
REMARK  status: ('A' for Active; 'I' for Inactive)
REMARK    1  A    between atoms: C_1  and  C_2
REMARK    2  A    between atoms: C_2  and  N_3
REMARK    3  A    between atoms: N_9  and  C_10
REMARK                            x       y       z     vdW  Elec       q    Type
REMARK                         _______ _______ _______ _____ _____    ______ ____
ROOT
ATOM      1  C   UNL     1      31.470  21.021  15.579  0.00  0.00    +0.112 C 
ATOM      2  C   UNL     1      32.233  21.207  16.895  0.00  0.00    +0.075 C 
ATOM      3  C   UNL     1      33.123  22.456  16.957  0.00  0.00    +0.113 C 
ATOM      4  C   UNL     1      32.388  23.760  17.363  0.00  0.00    +0.048 C 
ATOM      5  C   UNL     1      32.913  24.133  18.745  0.00  0.00    +0.004 C 
ATOM      6  C   UNL     1      34.331  23.596  18.755  0.00  0.00    +0.004 C 
ATOM      7  C   UNL     1      34.185  22.247  18.069  0.00  0.00    +0.048 C 
ATOM      8  O   UNL     1      33.841  22.665  15.724  0.00  0.00    -0.485 OA
ATOM      9  C   UNL     1      33.016  22.766  14.635  0.00  0.00    +0.126 A 
ATOM     10  C   UNL     1      33.393  23.650  13.626  0.00  0.00    +0.046 A 
ATOM     11  C   UNL     1      32.572  23.827  12.510  0.00  0.00    +0.004 A 
ATOM     12  C   UNL     1      31.388  23.101  12.396  0.00  0.00    +0.001 A 
ATOM     13  C   UNL     1      31.031  22.194  13.393  0.00  0.00    +0.009 A 
ATOM     14  C   UNL     1      31.845  22.020  14.524  0.00  0.00    +0.015 A 
ENDROOT
BRANCH   1  21
ATOM     15  N   UNL     1      30.954  15.228  13.114  0.00  0.00    -0.299 N 
ATOM     16  C   UNL     1      29.928  15.599  14.087  0.00  0.00    +0.127 C 
ATOM     17  C   UNL     1      30.539  16.210  15.343  0.00  0.00    +0.129 C 
ATOM     18  N   UNL     1      31.313  17.383  14.965  0.00  0.00    -0.275 N 
ATOM     19  C   UNL     1      30.954  18.610  15.475  0.00  0.00    +0.303 C 
ATOM     20  O   UNL     1      30.000  18.755  16.238  0.00  0.00    -0.253 OA
ATOM     21  N   UNL     1      31.702  19.672  15.060  0.00  0.00    -0.292 N 
ATOM     22  C   UNL     1      32.374  17.117  13.988  0.00  0.00    +0.205 C 
ATOM     23  C   UNL     1      32.119  15.981  12.975  0.00  0.00    +0.233 C 
ATOM     24  O   UNL     1      32.953  15.743  12.098  0.00  0.00    -0.274 OA
ATOM     25  H   UNL     1      32.644  19.496  14.750  0.00  0.00    +0.151 HD
BRANCH  15  27
ATOM     26  C   UNL     1      29.101  14.000  12.017  0.00  0.00    +0.024 C 
ATOM     27  C   UNL     1      30.596  14.282  12.063  0.00  0.00    +0.104 C 
ENDBRANCH  15  27
ENDBRANCH   1  21
TORSDOF 2
ENDMDL
MODEL 4
REMARK VINA RESULT:      -6.4      5.235      7.385
REMARK  Name = ZINC000329563636
REMARK  3 active torsions:
REMARK  status: ('A' for Active; 'I' for Inactive)
REMARK    1  A    between atoms: C_1  and  C_2
REMARK    2  A    between atoms: C_2  and  N_3
REMARK    3  A    between atoms: N_9  and  C_10
REMARK                            x       y       z     vdW  Elec       q    Type
REMARK                         _______ _______ _______ _____ _____    ______ ____
ROOT
ATOM      1  C   UNL     1      31.659  22.363  13.594  0.00  0.00    +0.112 C 
ATOM      2  C   UNL     1      30.797  21.135  13.910  0.00  0.00    +0.075 C 
ATOM      3  C   UNL     1      31.141  20.426  15.228  0.00  0.00    +0.113 C 
ATOM      4  C   UNL     1      30.478  21.040  16.489  0.00  0.00    +0.048 C 
ATOM      5  C   UNL     1      29.459  20.017  16.978  0.00  0.00    +0.004 C 
ATOM      6  C   UNL     1      30.048  18.685  16.557  0.00  0.00    +0.004 C 
ATOM      7  C   UNL     1      30.586  18.979  15.166  0.00  0.00    +0.048 C 
ATOM      8  O   UNL     1      32.565  20.323  15.427  0.00  0.00    -0.485 OA
ATOM      9  C   UNL     1      33.198  21.538  15.403  0.00  0.00    +0.126 A 
ATOM     10  C   UNL     1      34.285  21.711  16.258  0.00  0.00    +0.046 A 
ATOM     11  C   UNL     1      34.945  22.941  16.309  0.00  0.00    +0.004 A 
ATOM     12  C   UNL     1      34.532  23.986  15.486  0.00  0.00    +0.001 A 
ATOM     13  C   UNL     1      33.464  23.797  14.607  0.00  0.00    +0.009 A 
ATOM     14  C   UNL     1      32.787  22.568  14.561  0.00  0.00    +0.015 A 
ENDROOT
BRANCH   1  21
ATOM     15  N   UNL     1      34.616  23.233   8.080  0.00  0.00    -0.299 N 
ATOM     16  C   UNL     1      33.901  24.394   8.609  0.00  0.00    +0.127 C 
ATOM     17  C   UNL     1      32.490  24.029   9.054  0.00  0.00    +0.129 C 
ATOM     18  N   UNL     1      32.573  22.991  10.071  0.00  0.00    -0.275 N 
ATOM     19  C   UNL     1      32.073  23.249  11.328  0.00  0.00    +0.303 C 
ATOM     20  O   UNL     1      31.561  24.326  11.627  0.00  0.00    -0.253 OA
ATOM     21  N   UNL     1      32.207  22.245  12.241  0.00  0.00    -0.292 N 
ATOM     22  C   UNL     1      33.274  21.778   9.639  0.00  0.00    +0.205 C 
ATOM     23  C   UNL     1      34.404  21.959   8.603  0.00  0.00    +0.233 C 
ATOM     24  O   UNL     1      35.063  20.981   8.239  0.00  0.00    -0.274 OA
ATOM     25  H   UNL     1      32.287  21.301  11.900  0.00  0.00    +0.151 HD
BRANCH  15  27
ATOM     26  C   UNL     1      36.583  24.692   7.694  0.00  0.00    +0.024 C 
ATOM     27  C   UNL     1      35.793  23.469   7.251  0.00  0.00    +0.104 C 
ENDBRANCH  15  27
ENDBRANCH   1  21
TORSDOF 2
ENDMDL
MODEL 5
REMARK VINA RESULT:      -6.4      5.714      8.376
REMARK  Name = ZINC000329563636
REMARK  3 active torsions:
REMARK  status: ('A' for Active; 'I' for Inactive)
REMARK    1  A    between atoms: C_1  and  C_2
REMARK    2  A    between atoms: C_2  and  N_3
REMARK    3  A    between atoms: N_9  and  C_10
REMARK                            x       y       z     vdW  Elec       q    Type
REMARK                         _______ _______ _______ _____ _____    ______ ____
ROOT
ATOM      1  C   UNL     1      31.944  23.034  12.884  0.00  0.00    +0.112 C 
ATOM      2  C   UNL     1      30.778  22.243  13.487  0.00  0.00    +0.075 C 
ATOM      3  C   UNL     1      30.918  21.923  14.982  0.00  0.00    +0.113 C 
ATOM      4  C   UNL     1      30.456  23.056  15.935  0.00  0.00    +0.048 C 
ATOM      5  C   UNL     1      29.196  22.547  16.626  0.00  0.00    +0.004 C 
ATOM      6  C   UNL     1      29.392  21.045  16.682  0.00  0.00    +0.004 C 
ATOM      7  C   UNL     1      29.984  20.731  15.318  0.00  0.00    +0.048 C 
ATOM      8  O   UNL     1      32.258  21.517  15.322  0.00  0.00    -0.485 OA
ATOM      9  C   UNL     1      33.203  22.449  14.981  0.00  0.00    +0.126 A 
ATOM     10  C   UNL     1      34.298  22.592  15.830  0.00  0.00    +0.046 A 
ATOM     11  C   UNL     1      35.273  23.554  15.558  0.00  0.00    +0.004 A 
ATOM     12  C   UNL     1      35.161  24.355  14.424  0.00  0.00    +0.001 A 
ATOM     13  C   UNL     1      34.080  24.187  13.559  0.00  0.00    +0.009 A 
ATOM     14  C   UNL     1      33.089  23.230  13.833  0.00  0.00    +0.015 A 
ENDROOT
BRANCH   1  21
ATOM     15  N   UNL     1      34.877  21.385   7.537  0.00  0.00    -0.299 N 
ATOM     16  C   UNL     1      34.381  22.759   7.593  0.00  0.00    +0.127 C 
ATOM     17  C   UNL     1      32.939  22.817   8.084  0.00  0.00    +0.129 C 
ATOM     18  N   UNL     1      32.869  22.209   9.405  0.00  0.00    -0.275 N 
ATOM     19  C   UNL     1      32.450  22.975  10.469  0.00  0.00    +0.303 C 
ATOM     20  O   UNL     1      32.133  24.157  10.347  0.00  0.00    -0.253 OA
ATOM     21  N   UNL     1      32.433  22.354  11.683  0.00  0.00    -0.292 N 
ATOM     22  C   UNL     1      33.346  20.823   9.458  0.00  0.00    +0.205 C 
ATOM     23  C   UNL     1      34.465  20.434   8.469  0.00  0.00    +0.233 C 
ATOM     24  O   UNL     1      34.942  19.296   8.500  0.00  0.00    -0.274 OA
ATOM     25  H   UNL     1      32.345  21.351  11.701  0.00  0.00    +0.151 HD
BRANCH  15  27
ATOM     26  C   UNL     1      35.708  20.767   5.285  0.00  0.00    +0.024 C 
ATOM     27  C   UNL     1      36.058  21.112   6.725  0.00  0.00    +0.104 C 
ENDBRANCH  15  27
ENDBRANCH   1  21
TORSDOF 2
ENDMDL
MODEL 6
REMARK VINA RESULT:      -6.4      2.768      4.333
REMARK  Name = ZINC000329563636
REMARK  3 active torsions:
REMARK  status: ('A' for Active; 'I' for Inactive)
REMARK    1  A    between atoms: C_1  and  C_2
REMARK    2  A    between atoms: C_2  and  N_3
REMARK    3  A    between atoms: N_9  and  C_10
REMARK                            x       y       z     vdW  Elec       q    Type
REMARK                         _______ _______ _______ _____ _____    ______ ____
ROOT
ATOM      1  C   UNL     1      33.249  23.235  16.379  0.00  0.00    +0.112 C 
ATOM      2  C   UNL     1      32.088  22.743  17.251  0.00  0.00    +0.075 C 
ATOM      3  C   UNL     1      30.924  22.107  16.478  0.00  0.00    +0.113 C 
ATOM      4  C   UNL     1      31.114  20.607  16.133  0.00  0.00    +0.048 C 
ATOM      5  C   UNL     1      30.099  19.842  16.974  0.00  0.00    +0.004 C 
ATOM      6  C   UNL     1      28.950  20.817  17.136  0.00  0.00    +0.004 C 
ATOM      7  C   UNL     1      29.661  22.138  17.379  0.00  0.00    +0.048 C 
ATOM      8  O   UNL     1      30.605  22.845  15.282  0.00  0.00    -0.485 OA
ATOM      9  C   UNL     1      31.674  22.979  14.436  0.00  0.00    +0.126 A 
ATOM     10  C   UNL     1      31.415  22.952  13.067  0.00  0.00    +0.046 A 
ATOM     11  C   UNL     1      32.468  23.042  12.154  0.00  0.00    +0.004 A 
ATOM     12  C   UNL     1      33.775  23.184  12.613  0.00  0.00    +0.001 A 
ATOM     13  C   UNL     1      34.027  23.244  13.984  0.00  0.00    +0.009 A 
ATOM     14  C   UNL     1      32.975  23.141  14.908  0.00  0.00    +0.015 A 
ENDROOT
BRANCH   1  21
ATOM     15  N   UNL     1      36.021  28.817  17.413  0.00  0.00    -0.299 N 
ATOM     16  C   UNL     1      36.765  27.643  17.869  0.00  0.00    +0.127 C 
ATOM     17  C   UNL     1      35.878  26.691  18.664  0.00  0.00    +0.129 C 
ATOM     18  N   UNL     1      34.763  26.278  17.825  0.00  0.00    -0.275 N 
ATOM     19  C   UNL     1      34.611  24.942  17.529  0.00  0.00    +0.303 C 
ATOM     20  O   UNL     1      35.385  24.082  17.946  0.00  0.00    -0.253 OA
ATOM     21  N   UNL     1      33.563  24.625  16.716  0.00  0.00    -0.292 N 
ATOM     22  C   UNL     1      33.950  27.386  17.313  0.00  0.00    +0.205 C 
ATOM     23  C   UNL     1      34.678  28.723  17.055  0.00  0.00    +0.233 C 
ATOM     24  O   UNL     1      34.057  29.676  16.578  0.00  0.00    -0.274 OA
ATOM     25  H   UNL     1      32.776  25.254  16.690  0.00  0.00    +0.151 HD
BRANCH  15  27
ATOM     26  C   UNL     1      38.073  29.637  16.288  0.00  0.00    +0.024 C 
ATOM     27  C   UNL     1      36.779  29.995  17.005  0.00  0.00    +0.104 C 
ENDBRANCH  15  27
ENDBRANCH   1  21
TORSDOF 2
ENDMDL
MODEL 7
REMARK VINA RESULT:      -6.3      3.779      5.417
REMARK  Name = ZINC000329563636
REMARK  3 active torsions:
REMARK  status: ('A' for Active; 'I' for Inactive)
REMARK    1  A    between atoms: C_1  and  C_2
REMARK    2  A    between atoms: C_2  and  N_3
REMARK    3  A    between atoms: N_9  and  C_10
REMARK                            x       y       z     vdW  Elec       q    Type
REMARK                         _______ _______ _______ _____ _____    ______ ____
ROOT
ATOM      1  C   UNL     1      31.321  18.658  15.638  0.00  0.00    +0.112 C 
ATOM      2  C   UNL     1      30.390  17.814  14.759  0.00  0.00    +0.075 C 
ATOM      3  C   UNL     1      30.589  16.297  14.878  0.00  0.00    +0.113 C 
ATOM      4  C   UNL     1      29.838  15.633  16.062  0.00  0.00    +0.048 C 
ATOM      5  C   UNL     1      28.743  14.771  15.445  0.00  0.00    +0.004 C 
ATOM      6  C   UNL     1      29.319  14.351  14.107  0.00  0.00    +0.004 C 
ATOM      7  C   UNL     1      29.990  15.623  13.615  0.00  0.00    +0.048 C 
ATOM      8  O   UNL     1      31.984  15.939  14.923  0.00  0.00    -0.485 OA
ATOM      9  C   UNL     1      32.660  16.552  15.945  0.00  0.00    +0.126 A 
ATOM     10  C   UNL     1      33.671  15.826  16.571  0.00  0.00    +0.046 A 
ATOM     11  C   UNL     1      34.368  16.382  17.646  0.00  0.00    +0.004 A 
ATOM     12  C   UNL     1      34.069  17.672  18.076  0.00  0.00    +0.001 A 
ATOM     13  C   UNL     1      33.078  18.408  17.425  0.00  0.00    +0.009 A 
ATOM     14  C   UNL     1      32.364  17.851  16.352  0.00  0.00    +0.015 A 
ENDROOT
BRANCH   1  21
ATOM     15  N   UNL     1      34.766  23.484  13.459  0.00  0.00    -0.299 N 
ATOM     16  C   UNL     1      34.028  23.736  14.696  0.00  0.00    +0.127 C 
ATOM     17  C   UNL     1      32.576  23.283  14.587  0.00  0.00    +0.129 C 
ATOM     18  N   UNL     1      32.552  21.862  14.274  0.00  0.00    -0.275 N 
ATOM     19  C   UNL     1      31.948  20.996  15.158  0.00  0.00    +0.303 C 
ATOM     20  O   UNL     1      31.431  21.377  16.207  0.00  0.00    -0.253 OA
ATOM     21  N   UNL     1      31.983  19.675  14.820  0.00  0.00    -0.292 N 
ATOM     22  C   UNL     1      33.267  21.501  13.046  0.00  0.00    +0.205 C 
ATOM     23  C   UNL     1      34.486  22.370  12.669  0.00  0.00    +0.233 C 
ATOM     24  O   UNL     1      35.157  22.085  11.674  0.00  0.00    -0.274 OA
ATOM     25  H   UNL     1      32.077  19.438  13.846  0.00  0.00    +0.151 HD
BRANCH  15  27
ATOM     26  C   UNL     1      36.762  24.479  14.541  0.00  0.00    +0.024 C 
ATOM     27  C   UNL     1      36.015  24.205  13.244  0.00  0.00    +0.104 C 
ENDBRANCH  15  27
ENDBRANCH   1  21
TORSDOF 2
ENDMDL
MODEL 8
REMARK VINA RESULT:      -6.2      3.011      8.236
REMARK  Name = ZINC000329563636
REMARK  3 active torsions:
REMARK  status: ('A' for Active; 'I' for Inactive)
REMARK    1  A    between atoms: C_1  and  C_2
REMARK    2  A    between atoms: C_2  and  N_3
REMARK    3  A    between atoms: N_9  and  C_10
REMARK                            x       y       z     vdW  Elec       q    Type
REMARK                         _______ _______ _______ _____ _____    ______ ____
ROOT
ATOM      1  C   UNL     1      32.765  20.107  16.611  0.00  0.00    +0.112 C 
ATOM      2  C   UNL     1      33.832  21.171  16.331  0.00  0.00    +0.075 C 
ATOM      3  C   UNL     1      33.307  22.613  16.272  0.00  0.00    +0.113 C 
ATOM      4  C   UNL     1      33.174  23.313  17.650  0.00  0.00    +0.048 C 
ATOM      5  C   UNL     1      34.236  24.407  17.678  0.00  0.00    +0.004 C 
ATOM      6  C   UNL     1      34.382  24.811  16.224  0.00  0.00    +0.004 C 
ATOM      7  C   UNL     1      34.336  23.478  15.497  0.00  0.00    +0.048 C 
ATOM      8  O   UNL     1      32.059  22.702  15.558  0.00  0.00    -0.485 OA
ATOM      9  C   UNL     1      31.082  21.899  16.086  0.00  0.00    +0.126 A 
ATOM     10  C   UNL     1      29.773  22.377  16.053  0.00  0.00    +0.046 A 
ATOM     11  C   UNL     1      28.740  21.623  16.613  0.00  0.00    +0.004 A 
ATOM     12  C   UNL     1      29.015  20.382  17.182  0.00  0.00    +0.001 A 
ATOM     13  C   UNL     1      30.322  19.892  17.183  0.00  0.00    +0.009 A 
ATOM     14  C   UNL     1      31.368  20.651  16.634  0.00  0.00    +0.015 A 
ENDROOT
BRANCH   1  21
ATOM     15  N   UNL     1      31.895  14.993  13.006  0.00  0.00    -0.299 N 
ATOM     16  C   UNL     1      31.763  14.785  14.447  0.00  0.00    +0.127 C 
ATOM     17  C   UNL     1      32.926  15.406  15.213  0.00  0.00    +0.129 C 
ATOM     18  N   UNL     1      32.973  16.831  14.918  0.00  0.00    -0.275 N 
ATOM     19  C   UNL     1      32.821  17.730  15.950  0.00  0.00    +0.303 C 
ATOM     20  O   UNL     1      32.643  17.374  17.114  0.00  0.00    -0.253 OA
ATOM     21  N   UNL     1      32.847  19.048  15.603  0.00  0.00    -0.292 N 
ATOM     22  C   UNL     1      33.105  17.149  13.493  0.00  0.00    +0.205 C 
ATOM     23  C   UNL     1      32.465  16.158  12.496  0.00  0.00    +0.233 C 
ATOM     24  O   UNL     1      32.500  16.398  11.287  0.00  0.00    -0.274 OA
ATOM     25  H   UNL     1      33.333  19.307  14.759  0.00  0.00    +0.151 HD
BRANCH  15  27
ATOM     26  C   UNL     1      29.617  14.340  12.276  0.00  0.00    +0.024 C 
ATOM     27  C   UNL     1      31.117  14.140  12.114  0.00  0.00    +0.104 C 
ENDBRANCH  15  27
ENDBRANCH   1  21
TORSDOF 2
ENDMDL
MODEL 9
REMARK VINA RESULT:      -6.2      5.965      8.962
REMARK  Name = ZINC000329563636
REMARK  3 active torsions:
REMARK  status: ('A' for Active; 'I' for Inactive)
REMARK    1  A    between atoms: C_1  and  C_2
REMARK    2  A    between atoms: C_2  and  N_3
REMARK    3  A    between atoms: N_9  and  C_10
REMARK                            x       y       z     vdW  Elec       q    Type
REMARK                         _______ _______ _______ _____ _____    ______ ____
ROOT
ATOM      1  C   UNL     1      26.210  25.276  20.476  0.00  0.00    +0.112 C 
ATOM      2  C   UNL     1      26.054  24.606  21.845  0.00  0.00    +0.075 C 
ATOM      3  C   UNL     1      25.827  25.573  23.016  0.00  0.00    +0.113 C 
ATOM      4  C   UNL     1      24.353  26.011  23.221  0.00  0.00    +0.048 C 
ATOM      5  C   UNL     1      23.896  25.374  24.529  0.00  0.00    +0.004 C 
ATOM      6  C   UNL     1      25.164  25.285  25.355  0.00  0.00    +0.004 C 
ATOM      7  C   UNL     1      26.200  24.844  24.334  0.00  0.00    +0.048 C 
ATOM      8  O   UNL     1      26.673  26.736  22.924  0.00  0.00    -0.485 OA
ATOM      9  C   UNL     1      26.512  27.422  21.749  0.00  0.00    +0.126 A 
ATOM     10  C   UNL     1      26.617  28.811  21.799  0.00  0.00    +0.046 A 
ATOM     11  C   UNL     1      26.422  29.568  20.642  0.00  0.00    +0.004 A 
ATOM     12  C   UNL     1      26.148  28.933  19.433  0.00  0.00    +0.001 A 
ATOM     13  C   UNL     1      26.077  27.540  19.381  0.00  0.00    +0.009 A 
ATOM     14  C   UNL     1      26.258  26.773  20.543  0.00  0.00    +0.015 A 
ENDROOT
BRANCH   1  21
ATOM     15  N   UNL     1      30.552  23.113  16.430  0.00  0.00    -0.299 N 
ATOM     16  C   UNL     1      29.233  22.487  16.342  0.00  0.00    +0.127 C 
ATOM     17  C   UNL     1      28.712  22.082  17.716  0.00  0.00    +0.129 C 
ATOM     18  N   UNL     1      28.645  23.266  18.560  0.00  0.00    -0.275 N 
ATOM     19  C   UNL     1      27.425  23.657  19.064  0.00  0.00    +0.303 C 
ATOM     20  O   UNL     1      26.385  23.044  18.826  0.00  0.00    -0.253 OA
ATOM     21  N   UNL     1      27.427  24.789  19.824  0.00  0.00    -0.292 N 
ATOM     22  C   UNL     1      29.922  23.970  18.713  0.00  0.00    +0.205 C 
ATOM     23  C   UNL     1      30.901  23.906  17.521  0.00  0.00    +0.233 C 
ATOM     24  O   UNL     1      31.969  24.520  17.572  0.00  0.00    -0.274 OA
ATOM     25  H   UNL     1      28.284  25.050  20.284  0.00  0.00    +0.151 HD
BRANCH  15  27
ATOM     26  C   UNL     1      30.966  22.137  14.188  0.00  0.00    +0.024 C 
ATOM     27  C   UNL     1      31.360  23.186  15.218  0.00  0.00    +0.104 C 
ENDBRANCH  15  27
ENDBRANCH   1  21
TORSDOF 2
ENDMDL
