MODEL 1
REMARK VINA RESULT:      -6.9      0.000      0.000
REMARK  Name = ZINC000826139982
REMARK  4 active torsions:
REMARK  status: ('A' for Active; 'I' for Inactive)
REMARK    1  A    between atoms: C_2  and  C_4
REMARK    2  A    between atoms: C_8  and  C_10
REMARK    3  A    between atoms: C_14  and  S_15
REMARK    4  A    between atoms: S_15  and  C_16
REMARK                            x       y       z     vdW  Elec       q    Type
REMARK                         _______ _______ _______ _____ _____    ______ ____
ROOT
ATOM      1  C   UNL     1      32.094  14.048  12.700  0.00  0.00    +0.093 C 
ATOM      2  C   UNL     1      31.737  14.062  14.186  0.00  0.00    +0.033 C 
ATOM      3  C   UNL     1      31.775  15.549  14.507  0.00  0.00    +0.109 C 
ATOM      4  N   UNL     1      32.971  15.986  13.802  0.00  0.00    -0.297 N 
ATOM      5  C   UNL     1      33.850  17.034  14.047  0.00  0.00    +0.247 C 
ATOM      6  O   UNL     1      34.740  17.313  13.239  0.00  0.00    -0.270 OA
ATOM      7  C   UNL     1      33.105  15.198  12.574  0.00  0.00    +0.120 C 
ENDROOT
BRANCH   5   8
ATOM      8  C   UNL     1      33.747  17.882  15.274  0.00  0.00    +0.038 A 
ATOM      9  C   UNL     1      34.171  17.468  16.536  0.00  0.00    +0.013 A 
ATOM     10  C   UNL     1      33.964  18.270  17.661  0.00  0.00    +0.002 A 
ATOM     11  C   UNL     1      33.458  19.557  17.513  0.00  0.00    +0.015 A 
ATOM     12  C   UNL     1      33.195  20.061  16.236  0.00  0.00    +0.017 A 
ATOM     13  C   UNL     1      33.298  19.209  15.127  0.00  0.00    +0.028 A 
BRANCH  12  14
ATOM     14  S   UNL     1      32.713  21.760  16.007  0.00  0.00    -0.016 S 
BRANCH  14  15
ATOM     15  C   UNL     1      30.917  21.640  16.149  0.00  0.00    +0.448 C 
ATOM     16  F   UNL     1      30.484  20.494  16.728  0.00  0.00    -0.160 F 
ATOM     17  F   UNL     1      30.419  22.665  16.880  0.00  0.00    -0.160 F 
ATOM     18  F   UNL     1      30.336  21.704  14.925  0.00  0.00    -0.160 F 
ENDBRANCH  14  15
ENDBRANCH  12  14
ENDBRANCH   5   8
BRANCH   1  20
ATOM     19  N   UNL     1      29.904  13.265  11.934  0.00  0.00    -0.329 N 
ATOM     20  C   UNL     1      30.846  14.244  11.853  0.00  0.00    +0.215 C 
ATOM     21  O   UNL     1      30.637  15.233  11.156  0.00  0.00    -0.276 OA
ATOM     22  H   UNL     1      29.036  13.434  11.444  0.00  0.00    +0.145 HD
ATOM     23  H   UNL     1      29.941  12.510  12.605  0.00  0.00    +0.145 HD
ENDBRANCH   1  20
TORSDOF 4
ENDMDL
MODEL 2
REMARK VINA RESULT:      -6.6      4.373      6.761
REMARK  Name = ZINC000826139982
REMARK  4 active torsions:
REMARK  status: ('A' for Active; 'I' for Inactive)
REMARK    1  A    between atoms: C_2  and  C_4
REMARK    2  A    between atoms: C_8  and  C_10
REMARK    3  A    between atoms: C_14  and  S_15
REMARK    4  A    between atoms: S_15  and  C_16
REMARK                            x       y       z     vdW  Elec       q    Type
REMARK                         _______ _______ _______ _____ _____    ______ ____
ROOT
ATOM      1  C   UNL     1      32.504  21.035  16.363  0.00  0.00    +0.093 C 
ATOM      2  C   UNL     1      32.830  21.257  14.886  0.00  0.00    +0.033 C 
ATOM      3  C   UNL     1      32.486  19.906  14.278  0.00  0.00    +0.109 C 
ATOM      4  N   UNL     1      33.039  18.979  15.255  0.00  0.00    -0.297 N 
ATOM      5  C   UNL     1      33.518  17.682  15.121  0.00  0.00    +0.247 C 
ATOM      6  O   UNL     1      33.826  17.017  16.114  0.00  0.00    -0.270 OA
ATOM      7  C   UNL     1      32.902  19.569  16.589  0.00  0.00    +0.120 C 
ENDROOT
BRANCH   5   8
ATOM      8  C   UNL     1      33.659  17.025  13.786  0.00  0.00    +0.038 A 
ATOM      9  C   UNL     1      34.533  17.472  12.794  0.00  0.00    +0.013 A 
ATOM     10  C   UNL     1      34.554  16.872  11.534  0.00  0.00    +0.002 A 
ATOM     11  C   UNL     1      33.801  15.726  11.296  0.00  0.00    +0.015 A 
ATOM     12  C   UNL     1      33.055  15.154  12.331  0.00  0.00    +0.017 A 
ATOM     13  C   UNL     1      32.953  15.829  13.557  0.00  0.00    +0.028 A 
BRANCH  12  14
ATOM     14  S   UNL     1      32.224  13.596  12.103  0.00  0.00    -0.016 S 
BRANCH  14  15
ATOM     15  C   UNL     1      30.496  14.119  12.074  0.00  0.00    +0.448 C 
ATOM     16  F   UNL     1      29.946  14.277  13.302  0.00  0.00    -0.160 F 
ATOM     17  F   UNL     1      30.358  15.300  11.424  0.00  0.00    -0.160 F 
ATOM     18  F   UNL     1      29.733  13.211  11.416  0.00  0.00    -0.160 F 
ENDBRANCH  14  15
ENDBRANCH  12  14
ENDBRANCH   5   8
BRANCH   1  20
ATOM     19  N   UNL     1      30.312  20.282  17.153  0.00  0.00    -0.329 N 
ATOM     20  C   UNL     1      31.032  21.311  16.629  0.00  0.00    +0.215 C 
ATOM     21  O   UNL     1      30.492  22.397  16.439  0.00  0.00    -0.276 OA
ATOM     22  H   UNL     1      29.357  20.488  17.415  0.00  0.00    +0.145 HD
ATOM     23  H   UNL     1      30.727  19.421  17.480  0.00  0.00    +0.145 HD
ENDBRANCH   1  20
TORSDOF 4
ENDMDL
MODEL 3
REMARK VINA RESULT:      -6.2      2.760      3.317
REMARK  Name = ZINC000826139982
REMARK  4 active torsions:
REMARK  status: ('A' for Active; 'I' for Inactive)
REMARK    1  A    between atoms: C_2  and  C_4
REMARK    2  A    between atoms: C_8  and  C_10
REMARK    3  A    between atoms: C_14  and  S_15
REMARK    4  A    between atoms: S_15  and  C_16
REMARK                            x       y       z     vdW  Elec       q    Type
REMARK                         _______ _______ _______ _____ _____    ______ ____
ROOT
ATOM      1  C   UNL     1      32.181  14.149  12.710  0.00  0.00    +0.093 C 
ATOM      2  C   UNL     1      31.791  14.178  14.187  0.00  0.00    +0.033 C 
ATOM      3  C   UNL     1      31.639  15.669  14.446  0.00  0.00    +0.109 C 
ATOM      4  N   UNL     1      32.788  16.222  13.744  0.00  0.00    -0.297 N 
ATOM      5  C   UNL     1      33.525  17.380  13.960  0.00  0.00    +0.247 C 
ATOM      6  O   UNL     1      34.393  17.734  13.158  0.00  0.00    -0.270 OA
ATOM      7  C   UNL     1      33.046  15.408  12.554  0.00  0.00    +0.120 C 
ENDROOT
BRANCH   5   8
ATOM      8  C   UNL     1      33.290  18.257  15.148  0.00  0.00    +0.038 A 
ATOM      9  C   UNL     1      32.257  19.190  15.226  0.00  0.00    +0.013 A 
ATOM     10  C   UNL     1      32.143  20.044  16.325  0.00  0.00    +0.002 A 
ATOM     11  C   UNL     1      32.980  19.877  17.424  0.00  0.00    +0.015 A 
ATOM     12  C   UNL     1      33.906  18.831  17.444  0.00  0.00    +0.017 A 
ATOM     13  C   UNL     1      34.088  18.053  16.291  0.00  0.00    +0.028 A 
BRANCH  12  14
ATOM     14  S   UNL     1      34.866  18.490  18.905  0.00  0.00    -0.016 S 
BRANCH  14  15
ATOM     15  C   UNL     1      36.078  19.828  18.851  0.00  0.00    +0.448 C 
ATOM     16  F   UNL     1      37.272  19.513  19.407  0.00  0.00    -0.160 F 
ATOM     17  F   UNL     1      36.324  20.208  17.574  0.00  0.00    -0.160 F 
ATOM     18  F   UNL     1      35.614  20.919  19.509  0.00  0.00    -0.160 F 
ENDBRANCH  14  15
ENDBRANCH  12  14
ENDBRANCH   5   8
BRANCH   1  20
ATOM     19  N   UNL     1      30.108  13.083  11.959  0.00  0.00    -0.329 N 
ATOM     20  C   UNL     1      30.938  14.154  11.833  0.00  0.00    +0.215 C 
ATOM     21  O   UNL     1      30.637  15.071  11.075  0.00  0.00    -0.276 OA
ATOM     22  H   UNL     1      29.238  13.125  11.446  0.00  0.00    +0.145 HD
ATOM     23  H   UNL     1      30.214  12.378  12.674  0.00  0.00    +0.145 HD
ENDBRANCH   1  20
TORSDOF 4
ENDMDL
MODEL 4
REMARK VINA RESULT:      -6.2      2.003      2.811
REMARK  Name = ZINC000826139982
REMARK  4 active torsions:
REMARK  status: ('A' for Active; 'I' for Inactive)
REMARK    1  A    between atoms: C_2  and  C_4
REMARK    2  A    between atoms: C_8  and  C_10
REMARK    3  A    between atoms: C_14  and  S_15
REMARK    4  A    between atoms: S_15  and  C_16
REMARK                            x       y       z     vdW  Elec       q    Type
REMARK                         _______ _______ _______ _____ _____    ______ ____
ROOT
ATOM      1  C   UNL     1      30.567  13.636  13.256  0.00  0.00    +0.093 C 
ATOM      2  C   UNL     1      30.389  14.782  12.261  0.00  0.00    +0.033 C 
ATOM      3  C   UNL     1      31.737  15.482  12.336  0.00  0.00    +0.109 C 
ATOM      4  N   UNL     1      32.003  15.485  13.768  0.00  0.00    -0.297 N 
ATOM      5  C   UNL     1      32.749  16.347  14.561  0.00  0.00    +0.247 C 
ATOM      6  O   UNL     1      32.954  16.092  15.751  0.00  0.00    -0.270 OA
ATOM      7  C   UNL     1      31.448  14.260  14.349  0.00  0.00    +0.120 C 
ENDROOT
BRANCH   5   8
ATOM      8  C   UNL     1      33.353  17.600  14.015  0.00  0.00    +0.038 A 
ATOM      9  C   UNL     1      34.145  17.639  12.867  0.00  0.00    +0.013 A 
ATOM     10  C   UNL     1      34.757  18.825  12.457  0.00  0.00    +0.002 A 
ATOM     11  C   UNL     1      34.468  20.018  13.112  0.00  0.00    +0.015 A 
ATOM     12  C   UNL     1      33.537  20.035  14.153  0.00  0.00    +0.017 A 
ATOM     13  C   UNL     1      33.016  18.822  14.629  0.00  0.00    +0.028 A 
BRANCH  12  14
ATOM     14  S   UNL     1      33.020  21.571  14.891  0.00  0.00    -0.016 S 
BRANCH  14  15
ATOM     15  C   UNL     1      31.444  21.851  14.056  0.00  0.00    +0.448 C 
ATOM     16  F   UNL     1      31.379  23.023  13.378  0.00  0.00    -0.160 F 
ATOM     17  F   UNL     1      31.186  20.864  13.165  0.00  0.00    -0.160 F 
ATOM     18  F   UNL     1      30.424  21.858  14.950  0.00  0.00    -0.160 F 
ENDBRANCH  14  15
ENDBRANCH  12  14
ENDBRANCH   5   8
BRANCH   1  20
ATOM     19  N   UNL     1      30.355  11.469  12.136  0.00  0.00    -0.329 N 
ATOM     20  C   UNL     1      31.207  12.436  12.574  0.00  0.00    +0.215 C 
ATOM     21  O   UNL     1      32.411  12.325  12.369  0.00  0.00    -0.276 OA
ATOM     22  H   UNL     1      30.767  10.714  11.604  0.00  0.00    +0.145 HD
ATOM     23  H   UNL     1      29.350  11.572  12.130  0.00  0.00    +0.145 HD
ENDBRANCH   1  20
TORSDOF 4
ENDMDL
MODEL 5
REMARK VINA RESULT:      -5.8      4.503      6.878
REMARK  Name = ZINC000826139982
REMARK  4 active torsions:
REMARK  status: ('A' for Active; 'I' for Inactive)
REMARK    1  A    between atoms: C_2  and  C_4
REMARK    2  A    between atoms: C_8  and  C_10
REMARK    3  A    between atoms: C_14  and  S_15
REMARK    4  A    between atoms: S_15  and  C_16
REMARK                            x       y       z     vdW  Elec       q    Type
REMARK                         _______ _______ _______ _____ _____    ______ ____
ROOT
ATOM      1  C   UNL     1      32.753  20.789  16.083  0.00  0.00    +0.093 C 
ATOM      2  C   UNL     1      32.957  20.787  14.568  0.00  0.00    +0.033 C 
ATOM      3  C   UNL     1      32.388  19.433  14.173  0.00  0.00    +0.109 C 
ATOM      4  N   UNL     1      32.914  18.562  15.215  0.00  0.00    -0.297 N 
ATOM      5  C   UNL     1      33.212  17.205  15.214  0.00  0.00    +0.247 C 
ATOM      6  O   UNL     1      33.531  16.628  16.257  0.00  0.00    -0.270 OA
ATOM      7  C   UNL     1      32.985  19.321  16.467  0.00  0.00    +0.120 C 
ENDROOT
BRANCH   5   8
ATOM      8  C   UNL     1      33.137  16.381  13.969  0.00  0.00    +0.038 A 
ATOM      9  C   UNL     1      31.978  15.734  13.540  0.00  0.00    +0.013 A 
ATOM     10  C   UNL     1      31.994  14.903  12.418  0.00  0.00    +0.002 A 
ATOM     11  C   UNL     1      33.137  14.823  11.629  0.00  0.00    +0.015 A 
ATOM     12  C   UNL     1      34.254  15.604  11.937  0.00  0.00    +0.017 A 
ATOM     13  C   UNL     1      34.266  16.345  13.128  0.00  0.00    +0.028 A 
BRANCH  12  14
ATOM     14  S   UNL     1      35.662  15.653  10.848  0.00  0.00    -0.016 S 
BRANCH  14  15
ATOM     15  C   UNL     1      35.231  17.040   9.775  0.00  0.00    +0.448 C 
ATOM     16  F   UNL     1      35.461  18.256  10.325  0.00  0.00    -0.160 F 
ATOM     17  F   UNL     1      35.930  16.991   8.616  0.00  0.00    -0.160 F 
ATOM     18  F   UNL     1      33.915  17.000   9.449  0.00  0.00    -0.160 F 
ENDBRANCH  14  15
ENDBRANCH  12  14
ENDBRANCH   5   8
BRANCH   1  20
ATOM     19  N   UNL     1      30.598  20.472  17.202  0.00  0.00    -0.329 N 
ATOM     20  C   UNL     1      31.361  21.294  16.431  0.00  0.00    +0.215 C 
ATOM     21  O   UNL     1      30.925  22.391  16.095  0.00  0.00    -0.276 OA
ATOM     22  H   UNL     1      29.708  20.842  17.510  0.00  0.00    +0.145 HD
ATOM     23  H   UNL     1      30.952  19.635  17.643  0.00  0.00    +0.145 HD
ENDBRANCH   1  20
TORSDOF 4
ENDMDL
MODEL 6
REMARK VINA RESULT:      -5.8      1.906      2.630
REMARK  Name = ZINC000826139982
REMARK  4 active torsions:
REMARK  status: ('A' for Active; 'I' for Inactive)
REMARK    1  A    between atoms: C_2  and  C_4
REMARK    2  A    between atoms: C_8  and  C_10
REMARK    3  A    between atoms: C_14  and  S_15
REMARK    4  A    between atoms: S_15  and  C_16
REMARK                            x       y       z     vdW  Elec       q    Type
REMARK                         _______ _______ _______ _____ _____    ______ ____
ROOT
ATOM      1  C   UNL     1      34.154  15.575  11.165  0.00  0.00    +0.093 C 
ATOM      2  C   UNL     1      34.727  16.976  11.377  0.00  0.00    +0.033 C 
ATOM      3  C   UNL     1      34.855  17.041  12.892  0.00  0.00    +0.109 C 
ATOM      4  N   UNL     1      33.606  16.437  13.332  0.00  0.00    -0.297 N 
ATOM      5  C   UNL     1      32.859  16.615  14.490  0.00  0.00    +0.247 C 
ATOM      6  O   UNL     1      31.883  15.897  14.728  0.00  0.00    -0.270 OA
ATOM      7  C   UNL     1      33.230  15.391  12.378  0.00  0.00    +0.120 C 
ENDROOT
BRANCH   5   8
ATOM      8  C   UNL     1      33.209  17.654  15.506  0.00  0.00    +0.038 A 
ATOM      9  C   UNL     1      33.999  17.402  16.627  0.00  0.00    +0.013 A 
ATOM     10  C   UNL     1      34.216  18.391  17.589  0.00  0.00    +0.002 A 
ATOM     11  C   UNL     1      33.762  19.687  17.366  0.00  0.00    +0.015 A 
ATOM     12  C   UNL     1      33.125  20.007  16.165  0.00  0.00    +0.017 A 
ATOM     13  C   UNL     1      32.812  18.982  15.260  0.00  0.00    +0.028 A 
BRANCH  12  14
ATOM     14  S   UNL     1      32.690  21.692  15.783  0.00  0.00    -0.016 S 
BRANCH  14  15
ATOM     15  C   UNL     1      30.925  21.695  16.160  0.00  0.00    +0.448 C 
ATOM     16  F   UNL     1      30.504  20.604  16.845  0.00  0.00    -0.160 F 
ATOM     17  F   UNL     1      30.589  22.779  16.899  0.00  0.00    -0.160 F 
ATOM     18  F   UNL     1      30.193  21.748  15.020  0.00  0.00    -0.160 F 
ENDBRANCH  14  15
ENDBRANCH  12  14
ENDBRANCH   5   8
BRANCH   1  20
ATOM     19  N   UNL     1      35.309  13.627  12.098  0.00  0.00    -0.329 N 
ATOM     20  C   UNL     1      35.275  14.549  11.096  0.00  0.00    +0.215 C 
ATOM     21  O   UNL     1      36.095  14.489  10.185  0.00  0.00    -0.276 OA
ATOM     22  H   UNL     1      35.996  12.890  12.007  0.00  0.00    +0.145 HD
ATOM     23  H   UNL     1      34.576  13.523  12.784  0.00  0.00    +0.145 HD
ENDBRANCH   1  20
TORSDOF 4
ENDMDL
MODEL 7
REMARK VINA RESULT:      -5.7      5.740      6.984
REMARK  Name = ZINC000826139982
REMARK  4 active torsions:
REMARK  status: ('A' for Active; 'I' for Inactive)
REMARK    1  A    between atoms: C_2  and  C_4
REMARK    2  A    between atoms: C_8  and  C_10
REMARK    3  A    between atoms: C_14  and  S_15
REMARK    4  A    between atoms: S_15  and  C_16
REMARK                            x       y       z     vdW  Elec       q    Type
REMARK                         _______ _______ _______ _____ _____    ______ ____
ROOT
ATOM      1  C   UNL     1      33.859  22.356   7.586  0.00  0.00    +0.093 C 
ATOM      2  C   UNL     1      33.076  23.407   8.371  0.00  0.00    +0.033 C 
ATOM      3  C   UNL     1      33.832  23.446   9.691  0.00  0.00    +0.109 C 
ATOM      4  N   UNL     1      34.071  22.034   9.950  0.00  0.00    -0.297 N 
ATOM      5  C   UNL     1      34.241  21.335  11.139  0.00  0.00    +0.247 C 
ATOM      6  O   UNL     1      34.567  20.145  11.130  0.00  0.00    -0.270 OA
ATOM      7  C   UNL     1      34.275  21.351   8.670  0.00  0.00    +0.120 C 
ENDROOT
BRANCH   5   8
ATOM      8  C   UNL     1      34.065  21.987  12.472  0.00  0.00    +0.038 A 
ATOM      9  C   UNL     1      34.915  22.976  12.966  0.00  0.00    +0.013 A 
ATOM     10  C   UNL     1      34.752  23.483  14.257  0.00  0.00    +0.002 A 
ATOM     11  C   UNL     1      33.648  23.108  15.016  0.00  0.00    +0.015 A 
ATOM     12  C   UNL     1      32.684  22.256  14.472  0.00  0.00    +0.017 A 
ATOM     13  C   UNL     1      32.917  21.665  13.221  0.00  0.00    +0.028 A 
BRANCH  12  14
ATOM     14  S   UNL     1      31.179  21.899  15.355  0.00  0.00    -0.016 S 
BRANCH  14  15
ATOM     15  C   UNL     1      31.648  20.413  16.267  0.00  0.00    +0.448 C 
ATOM     16  F   UNL     1      32.019  19.375  15.479  0.00  0.00    -0.160 F 
ATOM     17  F   UNL     1      32.685  20.665  17.102  0.00  0.00    -0.160 F 
ATOM     18  F   UNL     1      30.617  19.976  17.032  0.00  0.00    -0.160 F 
ENDBRANCH  14  15
ENDBRANCH  12  14
ENDBRANCH   5   8
BRANCH   1  20
ATOM     19  N   UNL     1      34.742  23.726   5.759  0.00  0.00    -0.329 N 
ATOM     20  C   UNL     1      35.037  22.997   6.870  0.00  0.00    +0.215 C 
ATOM     21  O   UNL     1      36.199  22.926   7.260  0.00  0.00    -0.276 OA
ATOM     22  H   UNL     1      35.510  24.228   5.332  0.00  0.00    +0.145 HD
ATOM     23  H   UNL     1      33.799  23.956   5.478  0.00  0.00    +0.145 HD
ENDBRANCH   1  20
TORSDOF 4
ENDMDL
MODEL 8
REMARK VINA RESULT:      -5.7      4.119      5.026
REMARK  Name = ZINC000826139982
REMARK  4 active torsions:
REMARK  status: ('A' for Active; 'I' for Inactive)
REMARK    1  A    between atoms: C_2  and  C_4
REMARK    2  A    between atoms: C_8  and  C_10
REMARK    3  A    between atoms: C_14  and  S_15
REMARK    4  A    between atoms: S_15  and  C_16
REMARK                            x       y       z     vdW  Elec       q    Type
REMARK                         _______ _______ _______ _____ _____    ______ ____
ROOT
ATOM      1  C   UNL     1      30.541  13.636  13.256  0.00  0.00    +0.093 C 
ATOM      2  C   UNL     1      30.326  14.730  12.211  0.00  0.00    +0.033 C 
ATOM      3  C   UNL     1      31.664  15.453  12.229  0.00  0.00    +0.109 C 
ATOM      4  N   UNL     1      31.953  15.529  13.654  0.00  0.00    -0.297 N 
ATOM      5  C   UNL     1      32.698  16.440  14.393  0.00  0.00    +0.247 C 
ATOM      6  O   UNL     1      32.928  16.245  15.589  0.00  0.00    -0.270 OA
ATOM      7  C   UNL     1      31.429  14.325  14.303  0.00  0.00    +0.120 C 
ENDROOT
BRANCH   5   8
ATOM      8  C   UNL     1      33.272  17.675  13.777  0.00  0.00    +0.038 A 
ATOM      9  C   UNL     1      32.982  18.966  14.219  0.00  0.00    +0.013 A 
ATOM     10  C   UNL     1      33.478  20.084  13.546  0.00  0.00    +0.002 A 
ATOM     11  C   UNL     1      34.387  19.921  12.505  0.00  0.00    +0.015 A 
ATOM     12  C   UNL     1      34.833  18.642  12.161  0.00  0.00    +0.017 A 
ATOM     13  C   UNL     1      34.242  17.523  12.767  0.00  0.00    +0.028 A 
BRANCH  12  14
ATOM     14  S   UNL     1      36.123  18.419  10.953  0.00  0.00    -0.016 S 
BRANCH  14  15
ATOM     15  C   UNL     1      35.160  18.277   9.432  0.00  0.00    +0.448 C 
ATOM     16  F   UNL     1      34.391  19.359   9.162  0.00  0.00    -0.160 F 
ATOM     17  F   UNL     1      35.970  18.090   8.362  0.00  0.00    -0.160 F 
ATOM     18  F   UNL     1      34.327  17.209   9.492  0.00  0.00    -0.160 F 
ENDBRANCH  14  15
ENDBRANCH  12  14
ENDBRANCH   5   8
BRANCH   1  20
ATOM     19  N   UNL     1      30.340  11.472  12.128  0.00  0.00    -0.329 N 
ATOM     20  C   UNL     1      31.189  12.415  12.621  0.00  0.00    +0.215 C 
ATOM     21  O   UNL     1      32.401  12.267  12.498  0.00  0.00    -0.276 OA
ATOM     22  H   UNL     1      30.765  10.703  11.625  0.00  0.00    +0.145 HD
ATOM     23  H   UNL     1      29.342  11.605  12.053  0.00  0.00    +0.145 HD
ENDBRANCH   1  20
TORSDOF 4
ENDMDL
MODEL 9
REMARK VINA RESULT:      -5.6      5.971      9.319
REMARK  Name = ZINC000826139982
REMARK  4 active torsions:
REMARK  status: ('A' for Active; 'I' for Inactive)
REMARK    1  A    between atoms: C_2  and  C_4
REMARK    2  A    between atoms: C_8  and  C_10
REMARK    3  A    between atoms: C_14  and  S_15
REMARK    4  A    between atoms: S_15  and  C_16
REMARK                            x       y       z     vdW  Elec       q    Type
REMARK                         _______ _______ _______ _____ _____    ______ ____
ROOT
ATOM      1  C   UNL     1      34.503  27.208  17.910  0.00  0.00    +0.093 C 
ATOM      2  C   UNL     1      33.164  26.710  18.453  0.00  0.00    +0.033 C 
ATOM      3  C   UNL     1      33.289  25.205  18.276  0.00  0.00    +0.109 C 
ATOM      4  N   UNL     1      33.888  25.099  16.953  0.00  0.00    -0.297 N 
ATOM      5  C   UNL     1      33.821  24.098  15.992  0.00  0.00    +0.247 C 
ATOM      6  O   UNL     1      34.520  24.150  14.977  0.00  0.00    -0.270 OA
ATOM      7  C   UNL     1      34.793  26.235  16.758  0.00  0.00    +0.120 C 
ENDROOT
BRANCH   5   8
ATOM      8  C   UNL     1      32.929  22.909  16.151  0.00  0.00    +0.038 A 
ATOM      9  C   UNL     1      31.537  22.975  16.092  0.00  0.00    +0.013 A 
ATOM     10  C   UNL     1      30.755  21.845  16.338  0.00  0.00    +0.002 A 
ATOM     11  C   UNL     1      31.360  20.603  16.506  0.00  0.00    +0.015 A 
ATOM     12  C   UNL     1      32.748  20.482  16.388  0.00  0.00    +0.017 A 
ATOM     13  C   UNL     1      33.529  21.639  16.255  0.00  0.00    +0.028 A 
BRANCH  12  14
ATOM     14  S   UNL     1      33.530  18.882  16.425  0.00  0.00    -0.016 S 
BRANCH  14  15
ATOM     15  C   UNL     1      33.157  18.269  14.768  0.00  0.00    +0.448 C 
ATOM     16  F   UNL     1      32.584  19.189  13.955  0.00  0.00    -0.160 F 
ATOM     17  F   UNL     1      34.280  17.837  14.147  0.00  0.00    -0.160 F 
ATOM     18  F   UNL     1      32.304  17.216  14.829  0.00  0.00    -0.160 F 
ENDBRANCH  14  15
ENDBRANCH  12  14
ENDBRANCH   5   8
BRANCH   1  20
ATOM     19  N   UNL     1      35.224  27.786  20.177  0.00  0.00    -0.329 N 
ATOM     20  C   UNL     1      35.560  27.186  19.003  0.00  0.00    +0.215 C 
ATOM     21  O   UNL     1      36.650  26.632  18.893  0.00  0.00    -0.276 OA
ATOM     22  H   UNL     1      35.887  27.695  20.935  0.00  0.00    +0.145 HD
ATOM     23  H   UNL     1      34.293  28.116  20.388  0.00  0.00    +0.145 HD
ENDBRANCH   1  20
TORSDOF 4
ENDMDL
