MODEL 1
REMARK VINA RESULT:      -6.1      0.000      0.000
REMARK  Name = ZINC001228612316
REMARK  5 active torsions:
REMARK  status: ('A' for Active; 'I' for Inactive)
REMARK    1  A    between atoms: C_2  and  C_4
REMARK    2  A    between atoms: C_8  and  O_9
REMARK    3  A    between atoms: O_9  and  C_10
REMARK    4  A    between atoms: C_10  and  C_11
REMARK    5  A    between atoms: C_10  and  C_17
REMARK                            x       y       z     vdW  Elec       q    Type
REMARK                         _______ _______ _______ _____ _____    ______ ____
ROOT
ATOM      1  C   UNL     1      33.386  21.859  10.859  0.00  0.00    +0.040 A 
ATOM      2  C   UNL     1      32.845  23.025  10.304  0.00  0.00    +0.013 A 
ATOM      3  C   UNL     1      32.463  24.081  11.131  0.00  0.00    +0.004 A 
ATOM      4  C   UNL     1      32.617  23.982  12.516  0.00  0.00    +0.046 A 
ATOM      5  C   UNL     1      33.151  22.824  13.082  0.00  0.00    +0.122 A 
ATOM      6  C   UNL     1      33.536  21.766  12.249  0.00  0.00    +0.058 A 
ENDROOT
BRANCH   1   8
ATOM      7  N   UNL     1      32.878  20.349   9.008  0.00  0.00    -0.325 N 
ATOM      8  C   UNL     1      33.794  20.768   9.935  0.00  0.00    +0.242 C 
ATOM      9  O   UNL     1      34.919  20.283   9.967  0.00  0.00    -0.270 OA
ATOM     10  H   UNL     1      33.212  19.683   8.323  0.00  0.00    +0.145 HD
ATOM     11  H   UNL     1      32.045  20.871   8.788  0.00  0.00    +0.145 HD
ENDBRANCH   1   8
BRANCH   5  12
ATOM     12  O   UNL     1      33.284  22.580  14.422  0.00  0.00    -0.484 OA
BRANCH  12  13
ATOM     13  C   UNL     1      32.484  21.547  15.021  0.00  0.00    +0.208 C 
BRANCH  13  14
ATOM     14  C   UNL     1      33.223  20.756  16.083  0.00  0.00    +0.011 A 
ATOM     15  C   UNL     1      33.197  21.085  17.441  0.00  0.00    +0.010 A 
ATOM     16  C   UNL     1      33.830  20.254  18.363  0.00  0.00    +0.020 A 
ATOM     17  C   UNL     1      34.470  19.117  17.897  0.00  0.00    +0.111 A 
ATOM     18  N   UNL     1      34.527  18.771  16.596  0.00  0.00    -0.263 NA
ATOM     19  C   UNL     1      33.903  19.592  15.724  0.00  0.00    +0.118 A 
ENDBRANCH  13  14
BRANCH  13  20
ATOM     20  C   UNL     1      31.266  22.176  15.690  0.00  0.00    +0.034 C 
ATOM     21  C   UNL     1      30.012  21.367  15.918  0.00  0.00    +0.008 C 
ATOM     22  C   UNL     1      29.994  22.512  14.943  0.00  0.00    +0.008 C 
ENDBRANCH  13  20
ENDBRANCH  12  13
ENDBRANCH   5  12
TORSDOF 5
ENDMDL
MODEL 2
REMARK VINA RESULT:      -6.0      2.352      6.506
REMARK  Name = ZINC001228612316
REMARK  5 active torsions:
REMARK  status: ('A' for Active; 'I' for Inactive)
REMARK    1  A    between atoms: C_2  and  C_4
REMARK    2  A    between atoms: C_8  and  O_9
REMARK    3  A    between atoms: O_9  and  C_10
REMARK    4  A    between atoms: C_10  and  C_11
REMARK    5  A    between atoms: C_10  and  C_17
REMARK                            x       y       z     vdW  Elec       q    Type
REMARK                         _______ _______ _______ _____ _____    ______ ____
ROOT
ATOM      1  C   UNL     1      31.248  21.433  15.631  0.00  0.00    +0.040 A 
ATOM      2  C   UNL     1      32.189  21.002  16.572  0.00  0.00    +0.013 A 
ATOM      3  C   UNL     1      33.404  20.460  16.150  0.00  0.00    +0.004 A 
ATOM      4  C   UNL     1      33.687  20.346  14.786  0.00  0.00    +0.046 A 
ATOM      5  C   UNL     1      32.755  20.768  13.838  0.00  0.00    +0.122 A 
ATOM      6  C   UNL     1      31.537  21.314  14.266  0.00  0.00    +0.058 A 
ENDROOT
BRANCH   1   8
ATOM      7  N   UNL     1      29.725  23.332  15.835  0.00  0.00    -0.325 N 
ATOM      8  C   UNL     1      29.976  22.019  16.132  0.00  0.00    +0.242 C 
ATOM      9  O   UNL     1      29.159  21.351  16.755  0.00  0.00    -0.270 OA
ATOM     10  H   UNL     1      28.810  23.679  16.092  0.00  0.00    +0.145 HD
ATOM     11  H   UNL     1      30.241  23.842  15.135  0.00  0.00    +0.145 HD
ENDBRANCH   1   8
BRANCH   5  12
ATOM     12  O   UNL     1      32.884  20.642  12.482  0.00  0.00    -0.484 OA
BRANCH  12  13
ATOM     13  C   UNL     1      33.469  21.724  11.738  0.00  0.00    +0.208 C 
BRANCH  13  14
ATOM     14  C   UNL     1      34.086  21.284  10.425  0.00  0.00    +0.011 A 
ATOM     15  C   UNL     1      33.358  20.669   9.403  0.00  0.00    +0.010 A 
ATOM     16  C   UNL     1      33.982  20.376   8.192  0.00  0.00    +0.020 A 
ATOM     17  C   UNL     1      35.318  20.712   8.039  0.00  0.00    +0.111 A 
ATOM     18  N   UNL     1      36.057  21.297   9.003  0.00  0.00    -0.263 NA
ATOM     19  C   UNL     1      35.427  21.571  10.166  0.00  0.00    +0.118 A 
ENDBRANCH  13  14
BRANCH  13  20
ATOM     20  C   UNL     1      32.390  22.751  11.410  0.00  0.00    +0.034 C 
ATOM     21  C   UNL     1      32.734  24.007  10.646  0.00  0.00    +0.008 C 
ATOM     22  C   UNL     1      32.304  24.102  12.085  0.00  0.00    +0.008 C 
ENDBRANCH  13  20
ENDBRANCH  12  13
ENDBRANCH   5  12
TORSDOF 5
ENDMDL
MODEL 3
REMARK VINA RESULT:      -6.0      1.923      2.463
REMARK  Name = ZINC001228612316
REMARK  5 active torsions:
REMARK  status: ('A' for Active; 'I' for Inactive)
REMARK    1  A    between atoms: C_2  and  C_4
REMARK    2  A    between atoms: C_8  and  O_9
REMARK    3  A    between atoms: O_9  and  C_10
REMARK    4  A    between atoms: C_10  and  C_11
REMARK    5  A    between atoms: C_10  and  C_17
REMARK                            x       y       z     vdW  Elec       q    Type
REMARK                         _______ _______ _______ _____ _____    ______ ____
ROOT
ATOM      1  C   UNL     1      33.427  23.387  10.770  0.00  0.00    +0.040 A 
ATOM      2  C   UNL     1      33.610  22.125  10.195  0.00  0.00    +0.013 A 
ATOM      3  C   UNL     1      33.657  20.989  11.004  0.00  0.00    +0.004 A 
ATOM      4  C   UNL     1      33.521  21.104  12.390  0.00  0.00    +0.046 A 
ATOM      5  C   UNL     1      33.342  22.358  12.974  0.00  0.00    +0.122 A 
ATOM      6  C   UNL     1      33.292  23.497  12.160  0.00  0.00    +0.058 A 
ENDROOT
BRANCH   1   8
ATOM      7  N   UNL     1      32.329  24.625   8.973  0.00  0.00    -0.325 N 
ATOM      8  C   UNL     1      33.366  24.566   9.864  0.00  0.00    +0.242 C 
ATOM      9  O   UNL     1      34.186  25.473   9.932  0.00  0.00    -0.270 OA
ATOM     10  H   UNL     1      32.247  25.483   8.442  0.00  0.00    +0.145 HD
ATOM     11  H   UNL     1      31.513  24.037   9.043  0.00  0.00    +0.145 HD
ENDBRANCH   1   8
BRANCH   5  12
ATOM     12  O   UNL     1      33.269  22.607  14.318  0.00  0.00    -0.484 OA
BRANCH  12  13
ATOM     13  C   UNL     1      32.494  21.724  15.146  0.00  0.00    +0.208 C 
BRANCH  13  14
ATOM     14  C   UNL     1      33.156  21.413  16.474  0.00  0.00    +0.011 A 
ATOM     15  C   UNL     1      33.382  20.112  16.933  0.00  0.00    +0.010 A 
ATOM     16  C   UNL     1      34.076  19.912  18.124  0.00  0.00    +0.020 A 
ATOM     17  C   UNL     1      34.527  21.022  18.820  0.00  0.00    +0.111 A 
ATOM     18  N   UNL     1      34.321  22.292  18.417  0.00  0.00    -0.263 NA
ATOM     19  C   UNL     1      33.647  22.457  17.258  0.00  0.00    +0.118 A 
ENDBRANCH  13  14
BRANCH  13  20
ATOM     20  C   UNL     1      31.147  22.372  15.451  0.00  0.00    +0.034 C 
ATOM     21  C   UNL     1      30.014  21.551  16.019  0.00  0.00    +0.008 C 
ATOM     22  C   UNL     1      29.903  22.118  14.629  0.00  0.00    +0.008 C 
ENDBRANCH  13  20
ENDBRANCH  12  13
ENDBRANCH   5  12
TORSDOF 5
ENDMDL
MODEL 4
REMARK VINA RESULT:      -5.9      2.374      2.696
REMARK  Name = ZINC001228612316
REMARK  5 active torsions:
REMARK  status: ('A' for Active; 'I' for Inactive)
REMARK    1  A    between atoms: C_2  and  C_4
REMARK    2  A    between atoms: C_8  and  O_9
REMARK    3  A    between atoms: O_9  and  C_10
REMARK    4  A    between atoms: C_10  and  C_11
REMARK    5  A    between atoms: C_10  and  C_17
REMARK                            x       y       z     vdW  Elec       q    Type
REMARK                         _______ _______ _______ _____ _____    ______ ____
ROOT
ATOM      1  C   UNL     1      34.134  24.850  11.338  0.00  0.00    +0.040 A 
ATOM      2  C   UNL     1      33.350  24.235  10.356  0.00  0.00    +0.013 A 
ATOM      3  C   UNL     1      32.548  23.142  10.684  0.00  0.00    +0.004 A 
ATOM      4  C   UNL     1      32.522  22.656  11.994  0.00  0.00    +0.046 A 
ATOM      5  C   UNL     1      33.302  23.258  12.981  0.00  0.00    +0.122 A 
ATOM      6  C   UNL     1      34.106  24.357  12.649  0.00  0.00    +0.058 A 
ENDROOT
BRANCH   1   8
ATOM      7  N   UNL     1      35.190  26.983  11.890  0.00  0.00    -0.325 N 
ATOM      8  C   UNL     1      34.959  26.023  10.942  0.00  0.00    +0.242 C 
ATOM      9  O   UNL     1      35.450  26.117   9.823  0.00  0.00    -0.270 OA
ATOM     10  H   UNL     1      35.839  27.716  11.633  0.00  0.00    +0.145 HD
ATOM     11  H   UNL     1      35.015  26.835  12.872  0.00  0.00    +0.145 HD
ENDBRANCH   1   8
BRANCH   5  12
ATOM     12  O   UNL     1      33.418  22.831  14.276  0.00  0.00    -0.484 OA
BRANCH  12  13
ATOM     13  C   UNL     1      32.607  21.730  14.718  0.00  0.00    +0.208 C 
BRANCH  13  14
ATOM     14  C   UNL     1      33.287  20.865  15.760  0.00  0.00    +0.011 A 
ATOM     15  C   UNL     1      33.312  21.179  17.122  0.00  0.00    +0.010 A 
ATOM     16  C   UNL     1      33.882  20.284  18.026  0.00  0.00    +0.020 A 
ATOM     17  C   UNL     1      34.409  19.100  17.538  0.00  0.00    +0.111 A 
ATOM     18  N   UNL     1      34.415  18.764  16.232  0.00  0.00    -0.263 NA
ATOM     19  C   UNL     1      33.854  19.648  15.379  0.00  0.00    +0.118 A 
ENDBRANCH  13  14
BRANCH  13  20
ATOM     20  C   UNL     1      31.324  22.268  15.343  0.00  0.00    +0.034 C 
ATOM     21  C   UNL     1      30.211  21.327  15.739  0.00  0.00    +0.008 C 
ATOM     22  C   UNL     1      30.000  22.302  14.613  0.00  0.00    +0.008 C 
ENDBRANCH  13  20
ENDBRANCH  12  13
ENDBRANCH   5  12
TORSDOF 5
ENDMDL
MODEL 5
REMARK VINA RESULT:      -5.8      2.721      3.397
REMARK  Name = ZINC001228612316
REMARK  5 active torsions:
REMARK  status: ('A' for Active; 'I' for Inactive)
REMARK    1  A    between atoms: C_2  and  C_4
REMARK    2  A    between atoms: C_8  and  O_9
REMARK    3  A    between atoms: O_9  and  C_10
REMARK    4  A    between atoms: C_10  and  C_11
REMARK    5  A    between atoms: C_10  and  C_17
REMARK                            x       y       z     vdW  Elec       q    Type
REMARK                         _______ _______ _______ _____ _____    ______ ____
ROOT
ATOM      1  C   UNL     1      34.244  25.090  11.210  0.00  0.00    +0.040 A 
ATOM      2  C   UNL     1      33.389  24.720  10.166  0.00  0.00    +0.013 A 
ATOM      3  C   UNL     1      32.462  23.693  10.352  0.00  0.00    +0.004 A 
ATOM      4  C   UNL     1      32.382  23.032  11.580  0.00  0.00    +0.046 A 
ATOM      5  C   UNL     1      33.232  23.389  12.627  0.00  0.00    +0.122 A 
ATOM      6  C   UNL     1      34.160  24.421  12.438  0.00  0.00    +0.058 A 
ENDROOT
BRANCH   1   8
ATOM      7  N   UNL     1      35.457  27.055  12.008  0.00  0.00    -0.325 N 
ATOM      8  C   UNL     1      35.203  26.202  10.968  0.00  0.00    +0.242 C 
ATOM      9  O   UNL     1      35.778  26.335   9.894  0.00  0.00    -0.270 OA
ATOM     10  H   UNL     1      36.189  27.737  11.855  0.00  0.00    +0.145 HD
ATOM     11  H   UNL     1      35.199  26.848  12.961  0.00  0.00    +0.145 HD
ENDBRANCH   1   8
BRANCH   5  12
ATOM     12  O   UNL     1      33.298  22.771  13.846  0.00  0.00    -0.484 OA
BRANCH  12  13
ATOM     13  C   UNL     1      32.360  21.724  14.144  0.00  0.00    +0.208 C 
BRANCH  13  14
ATOM     14  C   UNL     1      32.990  20.345  14.175  0.00  0.00    +0.011 A 
ATOM     15  C   UNL     1      32.910  19.440  13.114  0.00  0.00    +0.010 A 
ATOM     16  C   UNL     1      33.592  18.227  13.188  0.00  0.00    +0.020 A 
ATOM     17  C   UNL     1      34.337  17.958  14.324  0.00  0.00    +0.111 A 
ATOM     18  N   UNL     1      34.433  18.799  15.373  0.00  0.00    -0.263 NA
ATOM     19  C   UNL     1      33.763  19.968  15.274  0.00  0.00    +0.118 A 
ENDBRANCH  13  14
BRANCH  13  20
ATOM     20  C   UNL     1      31.747  21.973  15.518  0.00  0.00    +0.034 C 
ATOM     21  C   UNL     1      30.378  21.433  15.856  0.00  0.00    +0.008 C 
ATOM     22  C   UNL     1      30.588  22.918  15.746  0.00  0.00    +0.008 C 
ENDBRANCH  13  20
ENDBRANCH  12  13
ENDBRANCH   5  12
TORSDOF 5
ENDMDL
MODEL 6
REMARK VINA RESULT:      -5.8      1.974      6.207
REMARK  Name = ZINC001228612316
REMARK  5 active torsions:
REMARK  status: ('A' for Active; 'I' for Inactive)
REMARK    1  A    between atoms: C_2  and  C_4
REMARK    2  A    between atoms: C_8  and  O_9
REMARK    3  A    between atoms: O_9  and  C_10
REMARK    4  A    between atoms: C_10  and  C_11
REMARK    5  A    between atoms: C_10  and  C_17
REMARK                            x       y       z     vdW  Elec       q    Type
REMARK                         _______ _______ _______ _____ _____    ______ ____
ROOT
ATOM      1  C   UNL     1      34.654  18.867  17.365  0.00  0.00    +0.040 A 
ATOM      2  C   UNL     1      34.546  19.832  18.373  0.00  0.00    +0.013 A 
ATOM      3  C   UNL     1      33.922  21.052  18.108  0.00  0.00    +0.004 A 
ATOM      4  C   UNL     1      33.402  21.316  16.838  0.00  0.00    +0.046 A 
ATOM      5  C   UNL     1      33.507  20.363  15.825  0.00  0.00    +0.122 A 
ATOM      6  C   UNL     1      34.132  19.139  16.094  0.00  0.00    +0.058 A 
ENDROOT
BRANCH   1   8
ATOM      7  N   UNL     1      36.408  17.619  18.520  0.00  0.00    -0.325 N 
ATOM      8  C   UNL     1      35.312  17.576  17.702  0.00  0.00    +0.242 C 
ATOM      9  O   UNL     1      34.875  16.505  17.298  0.00  0.00    -0.270 OA
ATOM     10  H   UNL     1      36.774  16.725  18.821  0.00  0.00    +0.145 HD
ATOM     11  H   UNL     1      36.654  18.434  19.062  0.00  0.00    +0.145 HD
ENDBRANCH   1   8
BRANCH   5  12
ATOM     12  O   UNL     1      33.105  20.531  14.528  0.00  0.00    -0.484 OA
BRANCH  12  13
ATOM     13  C   UNL     1      32.341  21.700  14.186  0.00  0.00    +0.208 C 
BRANCH  13  14
ATOM     14  C   UNL     1      32.590  22.185  12.771  0.00  0.00    +0.011 A 
ATOM     15  C   UNL     1      32.062  23.375  12.264  0.00  0.00    +0.010 A 
ATOM     16  C   UNL     1      32.411  23.794  10.981  0.00  0.00    +0.020 A 
ATOM     17  C   UNL     1      33.283  23.008  10.245  0.00  0.00    +0.111 A 
ATOM     18  N   UNL     1      33.806  21.849  10.694  0.00  0.00    -0.263 NA
ATOM     19  C   UNL     1      33.452  21.468  11.940  0.00  0.00    +0.118 A 
ENDBRANCH  13  14
BRANCH  13  20
ATOM     20  C   UNL     1      30.854  21.382  14.300  0.00  0.00    +0.034 C 
ATOM     21  C   UNL     1      29.874  22.445  14.736  0.00  0.00    +0.008 C 
ATOM     22  C   UNL     1      30.135  21.260  15.625  0.00  0.00    +0.008 C 
ENDBRANCH  13  20
ENDBRANCH  12  13
ENDBRANCH   5  12
TORSDOF 5
ENDMDL
MODEL 7
REMARK VINA RESULT:      -5.7      3.524      6.277
REMARK  Name = ZINC001228612316
REMARK  5 active torsions:
REMARK  status: ('A' for Active; 'I' for Inactive)
REMARK    1  A    between atoms: C_2  and  C_4
REMARK    2  A    between atoms: C_8  and  O_9
REMARK    3  A    between atoms: O_9  and  C_10
REMARK    4  A    between atoms: C_10  and  C_11
REMARK    5  A    between atoms: C_10  and  C_17
REMARK                            x       y       z     vdW  Elec       q    Type
REMARK                         _______ _______ _______ _____ _____    ______ ____
ROOT
ATOM      1  C   UNL     1      31.166  21.192  15.784  0.00  0.00    +0.040 A 
ATOM      2  C   UNL     1      32.198  21.208  16.729  0.00  0.00    +0.013 A 
ATOM      3  C   UNL     1      33.382  20.512  16.483  0.00  0.00    +0.004 A 
ATOM      4  C   UNL     1      33.543  19.796  15.294  0.00  0.00    +0.046 A 
ATOM      5  C   UNL     1      32.520  19.769  14.347  0.00  0.00    +0.122 A 
ATOM      6  C   UNL     1      31.333  20.471  14.595  0.00  0.00    +0.058 A 
ENDROOT
BRANCH   1   8
ATOM      7  N   UNL     1      29.840  23.234  15.580  0.00  0.00    -0.325 N 
ATOM      8  C   UNL     1      29.931  21.964  16.085  0.00  0.00    +0.242 C 
ATOM      9  O   UNL     1      29.007  21.479  16.727  0.00  0.00    -0.270 OA
ATOM     10  H   UNL     1      28.951  23.700  15.706  0.00  0.00    +0.145 HD
ATOM     11  H   UNL     1      30.454  23.580  14.859  0.00  0.00    +0.145 HD
ENDBRANCH   1   8
BRANCH   5  12
ATOM     12  O   UNL     1      32.530  19.049  13.183  0.00  0.00    -0.484 OA
BRANCH  12  13
ATOM     13  C   UNL     1      33.781  18.839  12.509  0.00  0.00    +0.208 C 
BRANCH  13  14
ATOM     14  C   UNL     1      33.978  17.409  12.042  0.00  0.00    +0.011 A 
ATOM     15  C   UNL     1      34.152  17.057  10.701  0.00  0.00    +0.010 A 
ATOM     16  C   UNL     1      34.416  15.731  10.365  0.00  0.00    +0.020 A 
ATOM     17  C   UNL     1      34.500  14.796  11.384  0.00  0.00    +0.111 A 
ATOM     18  N   UNL     1      34.330  15.093  12.688  0.00  0.00    -0.263 NA
ATOM     19  C   UNL     1      34.077  16.386  12.985  0.00  0.00    +0.118 A 
ENDBRANCH  13  14
BRANCH  13  20
ATOM     20  C   UNL     1      33.846  19.731  11.274  0.00  0.00    +0.034 C 
ATOM     21  C   UNL     1      35.075  20.560  10.990  0.00  0.00    +0.008 C 
ATOM     22  C   UNL     1      33.781  21.241  11.342  0.00  0.00    +0.008 C 
ENDBRANCH  13  20
ENDBRANCH  12  13
ENDBRANCH   5  12
TORSDOF 5
ENDMDL
MODEL 8
REMARK VINA RESULT:      -5.7      1.760      2.412
REMARK  Name = ZINC001228612316
REMARK  5 active torsions:
REMARK  status: ('A' for Active; 'I' for Inactive)
REMARK    1  A    between atoms: C_2  and  C_4
REMARK    2  A    between atoms: C_8  and  O_9
REMARK    3  A    between atoms: O_9  and  C_10
REMARK    4  A    between atoms: C_10  and  C_11
REMARK    5  A    between atoms: C_10  and  C_17
REMARK                            x       y       z     vdW  Elec       q    Type
REMARK                         _______ _______ _______ _____ _____    ______ ____
ROOT
ATOM      1  C   UNL     1      33.454  22.390   9.434  0.00  0.00    +0.040 A 
ATOM      2  C   UNL     1      32.848  23.641   9.276  0.00  0.00    +0.013 A 
ATOM      3  C   UNL     1      32.469  24.381  10.397  0.00  0.00    +0.004 A 
ATOM      4  C   UNL     1      32.693  23.878  11.681  0.00  0.00    +0.046 A 
ATOM      5  C   UNL     1      33.294  22.630  11.851  0.00  0.00    +0.122 A 
ATOM      6  C   UNL     1      33.675  21.891  10.724  0.00  0.00    +0.058 A 
ENDROOT
BRANCH   1   8
ATOM      7  N   UNL     1      34.414  22.369   7.188  0.00  0.00    -0.325 N 
ATOM      8  C   UNL     1      33.856  21.648   8.209  0.00  0.00    +0.242 C 
ATOM      9  O   UNL     1      33.731  20.432   8.122  0.00  0.00    -0.270 OA
ATOM     10  H   UNL     1      34.776  21.831   6.410  0.00  0.00    +0.145 HD
ATOM     11  H   UNL     1      34.752  23.311   7.305  0.00  0.00    +0.145 HD
ENDBRANCH   1   8
BRANCH   5  12
ATOM     12  O   UNL     1      33.500  22.002  13.049  0.00  0.00    -0.484 OA
BRANCH  12  13
ATOM     13  C   UNL     1      32.592  20.963  13.451  0.00  0.00    +0.208 C 
BRANCH  13  14
ATOM     14  C   UNL     1      33.291  19.675  13.842  0.00  0.00    +0.011 A 
ATOM     15  C   UNL     1      33.341  18.548  13.017  0.00  0.00    +0.010 A 
ATOM     16  C   UNL     1      34.079  17.435  13.414  0.00  0.00    +0.020 A 
ATOM     17  C   UNL     1      34.747  17.484  14.627  0.00  0.00    +0.111 A 
ATOM     18  N   UNL     1      34.716  18.547  15.456  0.00  0.00    -0.263 NA
ATOM     19  C   UNL     1      33.995  19.613  15.045  0.00  0.00    +0.118 A 
ENDBRANCH  13  14
BRANCH  13  20
ATOM     20  C   UNL     1      31.794  21.431  14.664  0.00  0.00    +0.034 C 
ATOM     21  C   UNL     1      30.551  20.692  15.096  0.00  0.00    +0.008 C 
ATOM     22  C   UNL     1      30.438  22.091  14.555  0.00  0.00    +0.008 C 
ENDBRANCH  13  20
ENDBRANCH  12  13
ENDBRANCH   5  12
TORSDOF 5
ENDMDL
MODEL 9
REMARK VINA RESULT:      -5.7      3.877      5.871
REMARK  Name = ZINC001228612316
REMARK  5 active torsions:
REMARK  status: ('A' for Active; 'I' for Inactive)
REMARK    1  A    between atoms: C_2  and  C_4
REMARK    2  A    between atoms: C_8  and  O_9
REMARK    3  A    between atoms: O_9  and  C_10
REMARK    4  A    between atoms: C_10  and  C_11
REMARK    5  A    between atoms: C_10  and  C_17
REMARK                            x       y       z     vdW  Elec       q    Type
REMARK                         _______ _______ _______ _____ _____    ______ ____
ROOT
ATOM      1  C   UNL     1      31.436  21.378  15.420  0.00  0.00    +0.040 A 
ATOM      2  C   UNL     1      31.929  20.461  14.486  0.00  0.00    +0.013 A 
ATOM      3  C   UNL     1      33.039  19.674  14.797  0.00  0.00    +0.004 A 
ATOM      4  C   UNL     1      33.662  19.797  16.042  0.00  0.00    +0.046 A 
ATOM      5  C   UNL     1      33.182  20.711  16.980  0.00  0.00    +0.122 A 
ATOM      6  C   UNL     1      32.066  21.498  16.665  0.00  0.00    +0.058 A 
ENDROOT
BRANCH   1   8
ATOM      7  N   UNL     1      29.548  22.791  16.059  0.00  0.00    -0.325 N 
ATOM      8  C   UNL     1      30.240  22.181  15.048  0.00  0.00    +0.242 C 
ATOM      9  O   UNL     1      29.900  22.328  13.880  0.00  0.00    -0.270 OA
ATOM     10  H   UNL     1      28.804  23.416  15.775  0.00  0.00    +0.145 HD
ATOM     11  H   UNL     1      29.921  22.897  16.990  0.00  0.00    +0.145 HD
ENDBRANCH   1   8
BRANCH   5  12
ATOM     12  O   UNL     1      33.747  20.974  18.198  0.00  0.00    -0.484 OA
BRANCH  12  13
ATOM     13  C   UNL     1      35.012  21.654  18.243  0.00  0.00    +0.208 C 
BRANCH  13  14
ATOM     14  C   UNL     1      34.942  23.004  18.931  0.00  0.00    +0.011 A 
ATOM     15  C   UNL     1      34.519  24.172  18.289  0.00  0.00    +0.010 A 
ATOM     16  C   UNL     1      34.400  25.354  19.016  0.00  0.00    +0.020 A 
ATOM     17  C   UNL     1      34.706  25.331  20.367  0.00  0.00    +0.111 A 
ATOM     18  N   UNL     1      35.127  24.229  21.021  0.00  0.00    -0.263 NA
ATOM     19  C   UNL     1      35.231  23.097  20.292  0.00  0.00    +0.118 A 
ENDBRANCH  13  14
BRANCH  13  20
ATOM     20  C   UNL     1      36.015  20.804  19.015  0.00  0.00    +0.034 C 
ATOM     21  C   UNL     1      37.463  20.754  18.593  0.00  0.00    +0.008 C 
ATOM     22  C   UNL     1      36.607  19.524  18.468  0.00  0.00    +0.008 C 
ENDBRANCH  13  20
ENDBRANCH  12  13
ENDBRANCH   5  12
TORSDOF 5
ENDMDL
