MODEL 1
REMARK VINA RESULT:      -6.9      0.000      0.000
REMARK  Name = ZINC000543478179
REMARK  8 active torsions:
REMARK  status: ('A' for Active; 'I' for Inactive)
REMARK    1  A    between atoms: C_1  and  C_2
REMARK    2  A    between atoms: C_2  and  N_3
REMARK    3  A    between atoms: N_9  and  C_10
REMARK    4  A    between atoms: C_10  and  C_11
REMARK    5  A    between atoms: C_10  and  C_12
REMARK    6  A    between atoms: C_15  and  O_16
REMARK    7  A    between atoms: O_16  and  C_17
REMARK    8  A    between atoms: C_17  and  C_18
REMARK                            x       y       z     vdW  Elec       q    Type
REMARK                         _______ _______ _______ _____ _____    ______ ____
ROOT
ATOM      1  C   UNL     1      29.860  20.091  15.059  0.00  0.00    +0.102 C 
ATOM      2  C   UNL     1      29.533  20.772  13.728  0.00  0.00    +0.033 C 
ENDROOT
BRANCH   1   9
ATOM      3  N   UNL     1      32.565  15.456  14.170  0.00  0.00    -0.299 N 
ATOM      4  C   UNL     1      33.598  16.148  14.938  0.00  0.00    +0.127 C 
ATOM      5  C   UNL     1      33.728  17.616  14.523  0.00  0.00    +0.129 C 
ATOM      6  N   UNL     1      32.441  18.304  14.670  0.00  0.00    -0.275 N 
ATOM      7  C   UNL     1      32.407  19.533  15.263  0.00  0.00    +0.303 C 
ATOM      8  O   UNL     1      33.432  20.069  15.697  0.00  0.00    -0.253 OA
ATOM      9  N   UNL     1      31.265  20.236  15.431  0.00  0.00    -0.293 N 
ATOM     10  C   UNL     1      31.302  17.578  14.129  0.00  0.00    +0.205 C 
ATOM     11  C   UNL     1      31.479  16.135  13.656  0.00  0.00    +0.233 C 
ATOM     12  O   UNL     1      30.610  15.601  12.961  0.00  0.00    -0.274 OA
ATOM     13  H   UNL     1      31.489  21.099  15.911  0.00  0.00    +0.151 HD
BRANCH   3  15
ATOM     14  C   UNL     1      34.025  13.504  14.378  0.00  0.00    +0.024 C 
ATOM     15  C   UNL     1      32.659  14.022  13.967  0.00  0.00    +0.104 C 
ENDBRANCH   3  15
ENDBRANCH   1   9
BRANCH   1  16
ATOM     16  C   UNL     1      28.971  20.583  16.186  0.00  0.00    -0.024 A 
ATOM     17  C   UNL     1      27.575  20.550  16.089  0.00  0.00    +0.009 A 
ATOM     18  C   UNL     1      26.773  21.027  17.128  0.00  0.00    +0.049 A 
ATOM     19  C   UNL     1      27.354  21.585  18.274  0.00  0.00    +0.156 A 
ATOM     20  C   UNL     1      28.742  21.583  18.387  0.00  0.00    +0.165 A 
ATOM     21  F   UNL     1      29.336  22.071  19.488  0.00  0.00    -0.202 F 
ATOM     22  C   UNL     1      29.548  21.102  17.358  0.00  0.00    +0.047 A 
BRANCH  19  23
ATOM     23  O   UNL     1      26.648  22.147  19.301  0.00  0.00    -0.489 OA
BRANCH  23  24
ATOM     24  C   UNL     1      25.238  22.229  19.089  0.00  0.00    +0.232 C 
BRANCH  24  25
ATOM     25  C   UNL     1      24.849  23.659  18.890  0.00  0.00    +0.027 C 
ATOM     26  C   UNL     1      23.397  24.050  19.005  0.00  0.00    +0.007 C 
ATOM     27  C   UNL     1      24.075  24.073  17.663  0.00  0.00    +0.007 C 
ENDBRANCH  24  25
ENDBRANCH  23  24
ENDBRANCH  19  23
ENDBRANCH   1  16
TORSDOF 6
ENDMDL
MODEL 2
REMARK VINA RESULT:      -6.9      1.794      2.119
REMARK  Name = ZINC000543478179
REMARK  8 active torsions:
REMARK  status: ('A' for Active; 'I' for Inactive)
REMARK    1  A    between atoms: C_1  and  C_2
REMARK    2  A    between atoms: C_2  and  N_3
REMARK    3  A    between atoms: N_9  and  C_10
REMARK    4  A    between atoms: C_10  and  C_11
REMARK    5  A    between atoms: C_10  and  C_12
REMARK    6  A    between atoms: C_15  and  O_16
REMARK    7  A    between atoms: O_16  and  C_17
REMARK    8  A    between atoms: C_17  and  C_18
REMARK                            x       y       z     vdW  Elec       q    Type
REMARK                         _______ _______ _______ _____ _____    ______ ____
ROOT
ATOM      1  C   UNL     1      30.856  20.703  16.116  0.00  0.00    +0.102 C 
ATOM      2  C   UNL     1      31.564  21.987  15.678  0.00  0.00    +0.033 C 
ENDROOT
BRANCH   1   9
ATOM      3  N   UNL     1      32.846  16.433  13.396  0.00  0.00    -0.299 N 
ATOM      4  C   UNL     1      33.212  16.002  14.744  0.00  0.00    +0.127 C 
ATOM      5  C   UNL     1      33.773  17.156  15.578  0.00  0.00    +0.129 C 
ATOM      6  N   UNL     1      32.805  18.256  15.643  0.00  0.00    -0.275 N 
ATOM      7  C   UNL     1      32.556  18.855  16.845  0.00  0.00    +0.303 C 
ATOM      8  O   UNL     1      33.112  18.476  17.882  0.00  0.00    -0.253 OA
ATOM      9  N   UNL     1      31.685  19.877  16.990  0.00  0.00    -0.293 N 
ATOM     10  C   UNL     1      32.208  18.613  14.365  0.00  0.00    +0.205 C 
ATOM     11  C   UNL     1      32.457  17.733  13.141  0.00  0.00    +0.233 C 
ATOM     12  O   UNL     1      32.188  18.152  12.012  0.00  0.00    -0.274 OA
ATOM     13  H   UNL     1      31.655  20.134  17.969  0.00  0.00    +0.151 HD
BRANCH   3  15
ATOM     14  C   UNL     1      31.621  14.599  12.336  0.00  0.00    +0.024 C 
ATOM     15  C   UNL     1      32.860  15.475  12.306  0.00  0.00    +0.104 C 
ENDBRANCH   3  15
ENDBRANCH   1   9
BRANCH   1  16
ATOM     16  C   UNL     1      29.521  20.985  16.780  0.00  0.00    -0.024 A 
ATOM     17  C   UNL     1      29.439  21.426  18.107  0.00  0.00    +0.009 A 
ATOM     18  C   UNL     1      28.201  21.661  18.708  0.00  0.00    +0.049 A 
ATOM     19  C   UNL     1      27.013  21.420  18.005  0.00  0.00    +0.156 A 
ATOM     20  C   UNL     1      27.095  21.018  16.674  0.00  0.00    +0.165 A 
ATOM     21  F   UNL     1      25.980  20.816  15.954  0.00  0.00    -0.202 F 
ATOM     22  C   UNL     1      28.328  20.789  16.065  0.00  0.00    +0.047 A 
BRANCH  19  23
ATOM     23  O   UNL     1      25.761  21.545  18.539  0.00  0.00    -0.489 OA
BRANCH  23  24
ATOM     24  C   UNL     1      25.507  22.789  19.192  0.00  0.00    +0.232 C 
BRANCH  24  25
ATOM     25  C   UNL     1      24.416  23.515  18.469  0.00  0.00    +0.027 C 
ATOM     26  C   UNL     1      24.041  24.907  18.910  0.00  0.00    +0.007 C 
ATOM     27  C   UNL     1      23.091  23.765  19.145  0.00  0.00    +0.007 C 
ENDBRANCH  24  25
ENDBRANCH  23  24
ENDBRANCH  19  23
ENDBRANCH   1  16
TORSDOF 6
ENDMDL
MODEL 3
REMARK VINA RESULT:      -6.9      4.384      9.633
REMARK  Name = ZINC000543478179
REMARK  8 active torsions:
REMARK  status: ('A' for Active; 'I' for Inactive)
REMARK    1  A    between atoms: C_1  and  C_2
REMARK    2  A    between atoms: C_2  and  N_3
REMARK    3  A    between atoms: N_9  and  C_10
REMARK    4  A    between atoms: C_10  and  C_11
REMARK    5  A    between atoms: C_10  and  C_12
REMARK    6  A    between atoms: C_15  and  O_16
REMARK    7  A    between atoms: O_16  and  C_17
REMARK    8  A    between atoms: C_17  and  C_18
REMARK                            x       y       z     vdW  Elec       q    Type
REMARK                         _______ _______ _______ _____ _____    ______ ____
ROOT
ATOM      1  C   UNL     1      26.811  21.265  17.313  0.00  0.00    +0.102 C 
ATOM      2  C   UNL     1      26.025  19.953  17.272  0.00  0.00    +0.033 C 
ENDROOT
BRANCH   1   9
ATOM      3  N   UNL     1      23.472  25.399  18.475  0.00  0.00    -0.299 N 
ATOM      4  C   UNL     1      24.349  25.516  19.639  0.00  0.00    +0.127 C 
ATOM      5  C   UNL     1      24.685  24.147  20.237  0.00  0.00    +0.129 C 
ATOM      6  N   UNL     1      25.299  23.284  19.224  0.00  0.00    -0.275 N 
ATOM      7  C   UNL     1      26.413  22.563  19.548  0.00  0.00    +0.303 C 
ATOM      8  O   UNL     1      26.925  22.638  20.670  0.00  0.00    -0.253 OA
ATOM      9  N   UNL     1      27.035  21.740  18.676  0.00  0.00    -0.293 N 
ATOM     10  C   UNL     1      24.615  23.276  17.940  0.00  0.00    +0.205 C 
ATOM     11  C   UNL     1      23.485  24.272  17.678  0.00  0.00    +0.233 C 
ATOM     12  O   UNL     1      22.729  24.111  16.717  0.00  0.00    -0.274 OA
ATOM     13  H   UNL     1      27.842  21.338  19.137  0.00  0.00    +0.151 HD
BRANCH   3  15
ATOM     14  C   UNL     1      21.564  26.739  19.219  0.00  0.00    +0.024 C 
ATOM     15  C   UNL     1      22.590  26.498  18.127  0.00  0.00    +0.104 C 
ENDBRANCH   3  15
ENDBRANCH   1   9
BRANCH   1  16
ATOM     16  C   UNL     1      28.133  21.163  16.575  0.00  0.00    -0.024 A 
ATOM     17  C   UNL     1      29.359  21.258  17.245  0.00  0.00    +0.009 A 
ATOM     18  C   UNL     1      30.564  21.182  16.546  0.00  0.00    +0.049 A 
ATOM     19  C   UNL     1      30.569  21.051  15.151  0.00  0.00    +0.156 A 
ATOM     20  C   UNL     1      29.351  20.918  14.489  0.00  0.00    +0.165 A 
ATOM     21  F   UNL     1      29.315  20.749  13.158  0.00  0.00    -0.202 F 
ATOM     22  C   UNL     1      28.144  20.985  15.181  0.00  0.00    +0.047 A 
BRANCH  19  23
ATOM     23  O   UNL     1      31.698  21.049  14.380  0.00  0.00    -0.489 OA
BRANCH  23  24
ATOM     24  C   UNL     1      32.194  22.343  14.036  0.00  0.00    +0.232 C 
BRANCH  24  25
ATOM     25  C   UNL     1      32.061  22.549  12.560  0.00  0.00    +0.027 C 
ATOM     26  C   UNL     1      32.573  23.827  11.945  0.00  0.00    +0.007 C 
ATOM     27  C   UNL     1      31.093  23.571  12.019  0.00  0.00    +0.007 C 
ENDBRANCH  24  25
ENDBRANCH  23  24
ENDBRANCH  19  23
ENDBRANCH   1  16
TORSDOF 6
ENDMDL
MODEL 4
REMARK VINA RESULT:      -6.8      2.777      4.548
REMARK  Name = ZINC000543478179
REMARK  8 active torsions:
REMARK  status: ('A' for Active; 'I' for Inactive)
REMARK    1  A    between atoms: C_1  and  C_2
REMARK    2  A    between atoms: C_2  and  N_3
REMARK    3  A    between atoms: N_9  and  C_10
REMARK    4  A    between atoms: C_10  and  C_11
REMARK    5  A    between atoms: C_10  and  C_12
REMARK    6  A    between atoms: C_15  and  O_16
REMARK    7  A    between atoms: O_16  and  C_17
REMARK    8  A    between atoms: C_17  and  C_18
REMARK                            x       y       z     vdW  Elec       q    Type
REMARK                         _______ _______ _______ _____ _____    ______ ____
ROOT
ATOM      1  C   UNL     1      28.139  20.704  16.182  0.00  0.00    +0.102 C 
ATOM      2  C   UNL     1      26.613  20.814  16.235  0.00  0.00    +0.033 C 
ENDROOT
BRANCH   1   9
ATOM      3  N   UNL     1      32.575  17.907  14.739  0.00  0.00    -0.299 N 
ATOM      4  C   UNL     1      32.713  19.009  13.787  0.00  0.00    +0.127 C 
ATOM      5  C   UNL     1      31.371  19.383  13.152  0.00  0.00    +0.129 C 
ATOM      6  N   UNL     1      30.394  19.728  14.190  0.00  0.00    -0.275 N 
ATOM      7  C   UNL     1      29.621  20.843  14.032  0.00  0.00    +0.303 C 
ATOM      8  O   UNL     1      29.742  21.578  13.047  0.00  0.00    -0.253 OA
ATOM      9  N   UNL     1      28.694  21.228  14.937  0.00  0.00    -0.293 N 
ATOM     10  C   UNL     1      30.343  18.797  15.306  0.00  0.00    +0.205 C 
ATOM     11  C   UNL     1      31.395  17.695  15.423  0.00  0.00    +0.233 C 
ATOM     12  O   UNL     1      31.219  16.750  16.196  0.00  0.00    -0.274 OA
ATOM     13  H   UNL     1      28.270  22.088  14.613  0.00  0.00    +0.151 HD
BRANCH   3  15
ATOM     14  C   UNL     1      34.670  17.672  15.982  0.00  0.00    +0.024 C 
ATOM     15  C   UNL     1      33.706  17.036  14.997  0.00  0.00    +0.104 C 
ENDBRANCH   3  15
ENDBRANCH   1   9
BRANCH   1  16
ATOM     16  C   UNL     1      28.802  21.376  17.370  0.00  0.00    -0.024 A 
ATOM     17  C   UNL     1      30.095  21.906  17.288  0.00  0.00    +0.009 A 
ATOM     18  C   UNL     1      30.696  22.502  18.397  0.00  0.00    +0.049 A 
ATOM     19  C   UNL     1      30.029  22.544  19.629  0.00  0.00    +0.156 A 
ATOM     20  C   UNL     1      28.729  22.052  19.701  0.00  0.00    +0.165 A 
ATOM     21  F   UNL     1      28.041  22.112  20.853  0.00  0.00    -0.202 F 
ATOM     22  C   UNL     1      28.119  21.462  18.595  0.00  0.00    +0.047 A 
BRANCH  19  23
ATOM     23  O   UNL     1      30.572  23.035  20.784  0.00  0.00    -0.489 OA
BRANCH  23  24
ATOM     24  C   UNL     1      31.374  22.106  21.515  0.00  0.00    +0.232 C 
BRANCH  24  25
ATOM     25  C   UNL     1      32.762  22.646  21.648  0.00  0.00    +0.027 C 
ATOM     26  C   UNL     1      33.246  23.684  20.666  0.00  0.00    +0.007 C 
ATOM     27  C   UNL     1      33.817  22.293  20.630  0.00  0.00    +0.007 C 
ENDBRANCH  24  25
ENDBRANCH  23  24
ENDBRANCH  19  23
ENDBRANCH   1  16
TORSDOF 6
ENDMDL
MODEL 5
REMARK VINA RESULT:      -6.7      2.452      3.664
REMARK  Name = ZINC000543478179
REMARK  8 active torsions:
REMARK  status: ('A' for Active; 'I' for Inactive)
REMARK    1  A    between atoms: C_1  and  C_2
REMARK    2  A    between atoms: C_2  and  N_3
REMARK    3  A    between atoms: N_9  and  C_10
REMARK    4  A    between atoms: C_10  and  C_11
REMARK    5  A    between atoms: C_10  and  C_12
REMARK    6  A    between atoms: C_15  and  O_16
REMARK    7  A    between atoms: O_16  and  C_17
REMARK    8  A    between atoms: C_17  and  C_18
REMARK                            x       y       z     vdW  Elec       q    Type
REMARK                         _______ _______ _______ _____ _____    ______ ____
ROOT
ATOM      1  C   UNL     1      30.696  20.370  16.216  0.00  0.00    +0.102 C 
ATOM      2  C   UNL     1      31.882  20.564  17.164  0.00  0.00    +0.033 C 
ENDROOT
BRANCH   1   9
ATOM      3  N   UNL     1      33.169  19.891  11.395  0.00  0.00    -0.299 N 
ATOM      4  C   UNL     1      32.488  18.597  11.401  0.00  0.00    +0.127 C 
ATOM      5  C   UNL     1      32.568  17.919  12.772  0.00  0.00    +0.129 C 
ATOM      6  N   UNL     1      32.006  18.793  13.807  0.00  0.00    -0.275 N 
ATOM      7  C   UNL     1      31.149  18.266  14.731  0.00  0.00    +0.303 C 
ATOM      8  O   UNL     1      30.821  17.076  14.701  0.00  0.00    -0.253 OA
ATOM      9  N   UNL     1      30.594  19.000  15.720  0.00  0.00    -0.293 N 
ATOM     10  C   UNL     1      32.458  20.174  13.743  0.00  0.00    +0.205 C 
ATOM     11  C   UNL     1      33.279  20.648  12.544  0.00  0.00    +0.233 C 
ATOM     12  O   UNL     1      33.887  21.720  12.595  0.00  0.00    -0.274 OA
ATOM     13  H   UNL     1      29.983  18.399  16.259  0.00  0.00    +0.151 HD
BRANCH   3  15
ATOM     14  C   UNL     1      34.934  19.617   9.723  0.00  0.00    +0.024 C 
ATOM     15  C   UNL     1      33.714  20.410  10.154  0.00  0.00    +0.104 C 
ENDBRANCH   3  15
ENDBRANCH   1   9
BRANCH   1  16
ATOM     16  C   UNL     1      29.383  20.792  16.850  0.00  0.00    -0.024 A 
ATOM     17  C   UNL     1      29.331  21.342  18.137  0.00  0.00    +0.009 A 
ATOM     18  C   UNL     1      28.112  21.705  18.712  0.00  0.00    +0.049 A 
ATOM     19  C   UNL     1      26.910  21.486  18.025  0.00  0.00    +0.156 A 
ATOM     20  C   UNL     1      26.965  20.976  16.731  0.00  0.00    +0.165 A 
ATOM     21  F   UNL     1      25.838  20.790  16.024  0.00  0.00    -0.202 F 
ATOM     22  C   UNL     1      28.179  20.618  16.147  0.00  0.00    +0.047 A 
BRANCH  19  23
ATOM     23  O   UNL     1      25.670  21.736  18.543  0.00  0.00    -0.489 OA
BRANCH  23  24
ATOM     24  C   UNL     1      25.578  22.911  19.348  0.00  0.00    +0.232 C 
BRANCH  24  25
ATOM     25  C   UNL     1      24.278  23.600  19.075  0.00  0.00    +0.027 C 
ATOM     26  C   UNL     1      23.982  24.088  17.680  0.00  0.00    +0.007 C 
ATOM     27  C   UNL     1      24.248  25.078  18.780  0.00  0.00    +0.007 C 
ENDBRANCH  24  25
ENDBRANCH  23  24
ENDBRANCH  19  23
ENDBRANCH   1  16
TORSDOF 6
ENDMDL
MODEL 6
REMARK VINA RESULT:      -6.7      3.434      5.739
REMARK  Name = ZINC000543478179
REMARK  8 active torsions:
REMARK  status: ('A' for Active; 'I' for Inactive)
REMARK    1  A    between atoms: C_1  and  C_2
REMARK    2  A    between atoms: C_2  and  N_3
REMARK    3  A    between atoms: N_9  and  C_10
REMARK    4  A    between atoms: C_10  and  C_11
REMARK    5  A    between atoms: C_10  and  C_12
REMARK    6  A    between atoms: C_15  and  O_16
REMARK    7  A    between atoms: O_16  and  C_17
REMARK    8  A    between atoms: C_17  and  C_18
REMARK                            x       y       z     vdW  Elec       q    Type
REMARK                         _______ _______ _______ _____ _____    ______ ____
ROOT
ATOM      1  C   UNL     1      30.703  20.397  16.136  0.00  0.00    +0.102 C 
ATOM      2  C   UNL     1      30.670  18.957  15.621  0.00  0.00    +0.033 C 
ENDROOT
BRANCH   1   9
ATOM      3  N   UNL     1      34.156  24.142  18.044  0.00  0.00    -0.299 N 
ATOM      4  C   UNL     1      33.831  24.795  16.777  0.00  0.00    +0.127 C 
ATOM      5  C   UNL     1      33.793  23.797  15.617  0.00  0.00    +0.129 C 
ATOM      6  N   UNL     1      32.831  22.726  15.896  0.00  0.00    -0.275 N 
ATOM      7  C   UNL     1      31.961  22.339  14.918  0.00  0.00    +0.303 C 
ATOM      8  O   UNL     1      31.951  22.886  13.810  0.00  0.00    -0.253 OA
ATOM      9  N   UNL     1      31.050  21.357  15.092  0.00  0.00    -0.293 N 
ATOM     10  C   UNL     1      32.929  22.158  17.233  0.00  0.00    +0.205 C 
ATOM     11  C   UNL     1      33.836  22.819  18.271  0.00  0.00    +0.233 C 
ATOM     12  O   UNL     1      34.135  22.215  19.305  0.00  0.00    -0.274 OA
ATOM     13  H   UNL     1      30.509  21.269  14.240  0.00  0.00    +0.151 HD
BRANCH   3  15
ATOM     14  C   UNL     1      35.041  26.337  18.667  0.00  0.00    +0.024 C 
ATOM     15  C   UNL     1      34.799  24.903  19.100  0.00  0.00    +0.104 C 
ENDBRANCH   3  15
ENDBRANCH   1   9
BRANCH   1  16
ATOM     16  C   UNL     1      29.397  20.797  16.798  0.00  0.00    -0.024 A 
ATOM     17  C   UNL     1      29.362  21.331  18.092  0.00  0.00    +0.009 A 
ATOM     18  C   UNL     1      28.150  21.675  18.692  0.00  0.00    +0.049 A 
ATOM     19  C   UNL     1      26.939  21.452  18.024  0.00  0.00    +0.156 A 
ATOM     20  C   UNL     1      26.976  20.958  16.722  0.00  0.00    +0.165 A 
ATOM     21  F   UNL     1      25.839  20.770  16.033  0.00  0.00    -0.202 F 
ATOM     22  C   UNL     1      28.183  20.620  16.114  0.00  0.00    +0.047 A 
BRANCH  19  23
ATOM     23  O   UNL     1      25.705  21.683  18.565  0.00  0.00    -0.489 OA
BRANCH  23  24
ATOM     24  C   UNL     1      25.533  22.977  19.143  0.00  0.00    +0.232 C 
BRANCH  24  25
ATOM     25  C   UNL     1      24.382  23.667  18.481  0.00  0.00    +0.027 C 
ATOM     26  C   UNL     1      23.911  24.994  19.018  0.00  0.00    +0.007 C 
ATOM     27  C   UNL     1      23.051  23.771  19.182  0.00  0.00    +0.007 C 
ENDBRANCH  24  25
ENDBRANCH  23  24
ENDBRANCH  19  23
ENDBRANCH   1  16
TORSDOF 6
ENDMDL
MODEL 7
REMARK VINA RESULT:      -6.6      5.412     11.143
REMARK  Name = ZINC000543478179
REMARK  8 active torsions:
REMARK  status: ('A' for Active; 'I' for Inactive)
REMARK    1  A    between atoms: C_1  and  C_2
REMARK    2  A    between atoms: C_2  and  N_3
REMARK    3  A    between atoms: N_9  and  C_10
REMARK    4  A    between atoms: C_10  and  C_11
REMARK    5  A    between atoms: C_10  and  C_12
REMARK    6  A    between atoms: C_15  and  O_16
REMARK    7  A    between atoms: O_16  and  C_17
REMARK    8  A    between atoms: C_17  and  C_18
REMARK                            x       y       z     vdW  Elec       q    Type
REMARK                         _______ _______ _______ _____ _____    ______ ____
ROOT
ATOM      1  C   UNL     1      24.594  24.788  19.926  0.00  0.00    +0.102 C 
ATOM      2  C   UNL     1      23.165  24.244  19.867  0.00  0.00    +0.033 C 
ENDROOT
BRANCH   1   9
ATOM      3  N   UNL     1      26.449  29.877  19.424  0.00  0.00    -0.299 N 
ATOM      4  C   UNL     1      26.806  29.670  20.827  0.00  0.00    +0.127 C 
ATOM      5  C   UNL     1      25.692  28.956  21.598  0.00  0.00    +0.129 C 
ATOM      6  N   UNL     1      25.371  27.675  20.962  0.00  0.00    -0.275 N 
ATOM      7  C   UNL     1      25.228  26.561  21.740  0.00  0.00    +0.303 C 
ATOM      8  O   UNL     1      25.383  26.607  22.965  0.00  0.00    -0.253 OA
ATOM      9  N   UNL     1      24.926  25.346  21.234  0.00  0.00    -0.293 N 
ATOM     10  C   UNL     1      25.217  27.738  19.517  0.00  0.00    +0.205 C 
ATOM     11  C   UNL     1      25.584  29.021  18.772  0.00  0.00    +0.233 C 
ATOM     12  O   UNL     1      25.217  29.186  17.605  0.00  0.00    -0.274 OA
ATOM     13  H   UNL     1      24.896  24.681  21.998  0.00  0.00    +0.151 HD
BRANCH   3  15
ATOM     14  C   UNL     1      26.794  32.299  19.405  0.00  0.00    +0.024 C 
ATOM     15  C   UNL     1      27.034  30.983  18.690  0.00  0.00    +0.104 C 
ENDBRANCH   3  15
ENDBRANCH   1   9
BRANCH   1  16
ATOM     16  C   UNL     1      25.620  23.742  19.531  0.00  0.00    -0.024 A 
ATOM     17  C   UNL     1      26.962  23.846  19.917  0.00  0.00    +0.009 A 
ATOM     18  C   UNL     1      27.896  22.885  19.527  0.00  0.00    +0.049 A 
ATOM     19  C   UNL     1      27.514  21.816  18.705  0.00  0.00    +0.156 A 
ATOM     20  C   UNL     1      26.172  21.692  18.353  0.00  0.00    +0.165 A 
ATOM     21  F   UNL     1      25.759  20.659  17.601  0.00  0.00    -0.202 F 
ATOM     22  C   UNL     1      25.233  22.643  18.745  0.00  0.00    +0.047 A 
BRANCH  19  23
ATOM     23  O   UNL     1      28.375  20.877  18.211  0.00  0.00    -0.489 OA
BRANCH  23  24
ATOM     24  C   UNL     1      29.145  21.298  17.084  0.00  0.00    +0.232 C 
BRANCH  24  25
ATOM     25  C   UNL     1      28.733  20.512  15.880  0.00  0.00    +0.027 C 
ATOM     26  C   UNL     1      29.679  19.482  15.314  0.00  0.00    +0.007 C 
ATOM     27  C   UNL     1      29.404  20.749  14.550  0.00  0.00    +0.007 C 
ENDBRANCH  24  25
ENDBRANCH  23  24
ENDBRANCH  19  23
ENDBRANCH   1  16
TORSDOF 6
ENDMDL
MODEL 8
REMARK VINA RESULT:      -6.6      2.271      2.547
REMARK  Name = ZINC000543478179
REMARK  8 active torsions:
REMARK  status: ('A' for Active; 'I' for Inactive)
REMARK    1  A    between atoms: C_1  and  C_2
REMARK    2  A    between atoms: C_2  and  N_3
REMARK    3  A    between atoms: N_9  and  C_10
REMARK    4  A    between atoms: C_10  and  C_11
REMARK    5  A    between atoms: C_10  and  C_12
REMARK    6  A    between atoms: C_15  and  O_16
REMARK    7  A    between atoms: O_16  and  C_17
REMARK    8  A    between atoms: C_17  and  C_18
REMARK                            x       y       z     vdW  Elec       q    Type
REMARK                         _______ _______ _______ _____ _____    ______ ____
ROOT
ATOM      1  C   UNL     1      29.675  20.625  15.825  0.00  0.00    +0.102 C 
ATOM      2  C   UNL     1      29.410  20.685  14.319  0.00  0.00    +0.033 C 
ENDROOT
BRANCH   1   9
ATOM      3  N   UNL     1      33.880  17.593  17.470  0.00  0.00    -0.299 N 
ATOM      4  C   UNL     1      34.374  18.889  17.933  0.00  0.00    +0.127 C 
ATOM      5  C   UNL     1      34.126  19.993  16.901  0.00  0.00    +0.129 C 
ATOM      6  N   UNL     1      32.699  20.079  16.578  0.00  0.00    -0.275 N 
ATOM      7  C   UNL     1      32.100  21.306  16.527  0.00  0.00    +0.303 C 
ATOM      8  O   UNL     1      32.729  22.341  16.767  0.00  0.00    -0.253 OA
ATOM      9  N   UNL     1      30.792  21.473  16.230  0.00  0.00    -0.293 N 
ATOM     10  C   UNL     1      32.058  18.799  16.319  0.00  0.00    +0.205 C 
ATOM     11  C   UNL     1      32.821  17.502  16.590  0.00  0.00    +0.233 C 
ATOM     12  O   UNL     1      32.405  16.433  16.136  0.00  0.00    -0.274 OA
ATOM     13  H   UNL     1      30.579  22.462  16.276  0.00  0.00    +0.151 HD
BRANCH   3  15
ATOM     14  C   UNL     1      35.954  16.297  17.566  0.00  0.00    +0.024 C 
ATOM     15  C   UNL     1      34.491  16.373  17.965  0.00  0.00    +0.104 C 
ENDBRANCH   3  15
ENDBRANCH   1   9
BRANCH   1  16
ATOM     16  C   UNL     1      28.439  20.970  16.636  0.00  0.00    -0.024 A 
ATOM     17  C   UNL     1      27.165  21.000  16.058  0.00  0.00    +0.009 A 
ATOM     18  C   UNL     1      26.043  21.339  16.815  0.00  0.00    +0.049 A 
ATOM     19  C   UNL     1      26.178  21.697  18.163  0.00  0.00    +0.156 A 
ATOM     20  C   UNL     1      27.440  21.630  18.748  0.00  0.00    +0.165 A 
ATOM     21  F   UNL     1      27.604  21.925  20.047  0.00  0.00    -0.202 F 
ATOM     22  C   UNL     1      28.563  21.284  18.000  0.00  0.00    +0.047 A 
BRANCH  19  23
ATOM     23  O   UNL     1      25.147  22.120  18.956  0.00  0.00    -0.489 OA
BRANCH  23  24
ATOM     24  C   UNL     1      25.094  23.530  19.174  0.00  0.00    +0.232 C 
BRANCH  24  25
ATOM     25  C   UNL     1      23.692  23.926  19.515  0.00  0.00    +0.027 C 
ATOM     26  C   UNL     1      22.693  24.129  18.403  0.00  0.00    +0.007 C 
ATOM     27  C   UNL     1      23.192  25.311  19.188  0.00  0.00    +0.007 C 
ENDBRANCH  24  25
ENDBRANCH  23  24
ENDBRANCH  19  23
ENDBRANCH   1  16
TORSDOF 6
ENDMDL
MODEL 9
REMARK VINA RESULT:      -6.5      2.589      4.253
REMARK  Name = ZINC000543478179
REMARK  8 active torsions:
REMARK  status: ('A' for Active; 'I' for Inactive)
REMARK    1  A    between atoms: C_1  and  C_2
REMARK    2  A    between atoms: C_2  and  N_3
REMARK    3  A    between atoms: N_9  and  C_10
REMARK    4  A    between atoms: C_10  and  C_11
REMARK    5  A    between atoms: C_10  and  C_12
REMARK    6  A    between atoms: C_15  and  O_16
REMARK    7  A    between atoms: O_16  and  C_17
REMARK    8  A    between atoms: C_17  and  C_18
REMARK                            x       y       z     vdW  Elec       q    Type
REMARK                         _______ _______ _______ _____ _____    ______ ____
ROOT
ATOM      1  C   UNL     1      30.888  20.956  16.842  0.00  0.00    +0.102 C 
ATOM      2  C   UNL     1      31.837  21.096  18.034  0.00  0.00    +0.033 C 
ENDROOT
BRANCH   1   9
ATOM      3  N   UNL     1      33.408  21.842  12.103  0.00  0.00    -0.299 N 
ATOM      4  C   UNL     1      33.017  20.453  11.867  0.00  0.00    +0.127 C 
ATOM      5  C   UNL     1      33.238  19.581  13.106  0.00  0.00    +0.129 C 
ATOM      6  N   UNL     1      32.504  20.127  14.252  0.00  0.00    -0.275 N 
ATOM      7  C   UNL     1      31.778  19.281  15.042  0.00  0.00    +0.303 C 
ATOM      8  O   UNL     1      31.709  18.072  14.800  0.00  0.00    -0.253 OA
ATOM      9  N   UNL     1      31.079  19.702  16.119  0.00  0.00    -0.293 N 
ATOM     10  C   UNL     1      32.652  21.562  14.438  0.00  0.00    +0.205 C 
ATOM     11  C   UNL     1      33.354  22.396  13.367  0.00  0.00    +0.233 C 
ATOM     12  O   UNL     1      33.721  23.546  13.620  0.00  0.00    -0.274 OA
ATOM     13  H   UNL     1      30.609  18.903  16.526  0.00  0.00    +0.151 HD
BRANCH   3  15
ATOM     14  C   UNL     1      32.645  23.089  10.141  0.00  0.00    +0.024 C 
ATOM     15  C   UNL     1      33.831  22.668  10.989  0.00  0.00    +0.104 C 
ENDBRANCH   3  15
ENDBRANCH   1   9
BRANCH   1  16
ATOM     16  C   UNL     1      29.433  21.105  17.249  0.00  0.00    -0.024 A 
ATOM     17  C   UNL     1      28.389  20.778  16.376  0.00  0.00    +0.009 A 
ATOM     18  C   UNL     1      27.057  20.941  16.760  0.00  0.00    +0.049 A 
ATOM     19  C   UNL     1      26.740  21.474  18.017  0.00  0.00    +0.156 A 
ATOM     20  C   UNL     1      27.778  21.763  18.899  0.00  0.00    +0.165 A 
ATOM     21  F   UNL     1      27.515  22.237  20.127  0.00  0.00    -0.202 F 
ATOM     22  C   UNL     1      29.110  21.596  18.525  0.00  0.00    +0.047 A 
BRANCH  19  23
ATOM     23  O   UNL     1      25.470  21.742  18.444  0.00  0.00    -0.489 OA
BRANCH  23  24
ATOM     24  C   UNL     1      24.968  23.026  18.074  0.00  0.00    +0.232 C 
BRANCH  24  25
ATOM     25  C   UNL     1      24.305  23.659  19.256  0.00  0.00    +0.027 C 
ATOM     26  C   UNL     1      22.799  23.722  19.310  0.00  0.00    +0.007 C 
ATOM     27  C   UNL     1      23.596  24.983  19.113  0.00  0.00    +0.007 C 
ENDBRANCH  24  25
ENDBRANCH  23  24
ENDBRANCH  19  23
ENDBRANCH   1  16
TORSDOF 6
ENDMDL
