MODEL 1
REMARK VINA RESULT:      -6.3      0.000      0.000
REMARK  Name = ZINC000435351830
REMARK  5 active torsions:
REMARK  status: ('A' for Active; 'I' for Inactive)
REMARK    1  A    between atoms: C_2  and  C_3
REMARK    2  A    between atoms: C_7  and  C_8
REMARK    3  A    between atoms: C_8  and  C_9
REMARK    4  A    between atoms: N_11  and  C_12
REMARK    5  A    between atoms: C_12  and  C_13
REMARK                            x       y       z     vdW  Elec       q    Type
REMARK                         _______ _______ _______ _____ _____    ______ ____
ROOT
ATOM      1  C   UNL     1      32.521  20.564  14.099  0.00  0.00    +0.224 C 
ATOM      2  O   UNL     1      33.113  20.992  15.084  0.00  0.00    -0.275 OA
ATOM      3  N   UNL     1      31.558  21.255  13.411  0.00  0.00    -0.309 N 
ATOM      4  H   UNL     1      31.139  20.849  12.587  0.00  0.00    +0.149 HD
ENDROOT
BRANCH   1   5
ATOM      5  C   UNL     1      32.781  19.169  13.592  0.00  0.00    +0.072 C 
ATOM      6  C   UNL     1      33.872  18.967  12.546  0.00  0.00    +0.022 C 
ATOM      7  C   UNL     1      34.133  18.540  13.954  0.00  0.00    +0.022 C 
BRANCH   5  12
ATOM      8  C   UNL     1      29.636  17.416  14.917  0.00  0.00    +0.052 A 
ATOM      9  C   UNL     1      29.476  16.366  14.012  0.00  0.00    +0.019 A 
ATOM     10  C   UNL     1      30.347  16.245  12.930  0.00  0.00    +0.002 A 
ATOM     11  C   UNL     1      31.395  17.156  12.765  0.00  0.00    +0.005 A 
ATOM     12  C   UNL     1      31.599  18.205  13.679  0.00  0.00    -0.031 A 
ATOM     13  C   UNL     1      30.678  18.330  14.737  0.00  0.00    +0.023 A 
BRANCH   8  15
ATOM     14  N   UNL     1      28.045  17.651  16.952  0.00  0.00    -0.191 NA
ATOM     15  C   UNL     1      28.765  17.544  16.045  0.00  0.00    +0.099 C 
ENDBRANCH   8  15
ENDBRANCH   5  12
ENDBRANCH   1   5
BRANCH   3  16
ATOM     16  C   UNL     1      31.084  22.547  13.860  0.00  0.00    +0.159 C 
BRANCH  16  17
ATOM     17  C   UNL     1      30.126  22.458  15.027  0.00  0.00    +0.058 A 
ATOM     18  C   UNL     1      29.138  21.470  15.053  0.00  0.00    +0.028 A 
ATOM     19  C   UNL     1      28.250  21.425  16.127  0.00  0.00    +0.042 A 
ATOM     20  C   UNL     1      28.381  22.361  17.138  0.00  0.00    +0.141 A 
ATOM     21  F   UNL     1      27.541  22.352  18.182  0.00  0.00    -0.204 F 
ATOM     22  C   UNL     1      29.390  23.303  17.053  0.00  0.00    +0.149 A 
ATOM     23  N   UNL     1      30.270  23.372  16.025  0.00  0.00    -0.255 NA
ENDBRANCH  16  17
ENDBRANCH   3  16
TORSDOF 5
ENDMDL
MODEL 2
REMARK VINA RESULT:      -6.3      3.234      4.395
REMARK  Name = ZINC000435351830
REMARK  5 active torsions:
REMARK  status: ('A' for Active; 'I' for Inactive)
REMARK    1  A    between atoms: C_2  and  C_3
REMARK    2  A    between atoms: C_7  and  C_8
REMARK    3  A    between atoms: C_8  and  C_9
REMARK    4  A    between atoms: N_11  and  C_12
REMARK    5  A    between atoms: C_12  and  C_13
REMARK                            x       y       z     vdW  Elec       q    Type
REMARK                         _______ _______ _______ _____ _____    ______ ____
ROOT
ATOM      1  C   UNL     1      31.521  20.825  14.112  0.00  0.00    +0.224 C 
ATOM      2  O   UNL     1      32.272  21.115  15.036  0.00  0.00    -0.275 OA
ATOM      3  N   UNL     1      30.844  21.739  13.347  0.00  0.00    -0.309 N 
ATOM      4  H   UNL     1      30.269  21.424  12.578  0.00  0.00    +0.149 HD
ENDROOT
BRANCH   1   5
ATOM      5  C   UNL     1      31.234  19.384  13.778  0.00  0.00    +0.072 C 
ATOM      6  C   UNL     1      31.489  18.903  12.354  0.00  0.00    +0.022 C 
ATOM      7  C   UNL     1      32.437  18.498  13.434  0.00  0.00    +0.022 C 
BRANCH   5  12
ATOM      8  C   UNL     1      28.358  18.917  16.274  0.00  0.00    +0.052 A 
ATOM      9  C   UNL     1      28.313  17.531  16.421  0.00  0.00    +0.019 A 
ATOM     10  C   UNL     1      29.172  16.726  15.673  0.00  0.00    +0.002 A 
ATOM     11  C   UNL     1      30.094  17.306  14.797  0.00  0.00    +0.005 A 
ATOM     12  C   UNL     1      30.183  18.701  14.652  0.00  0.00    -0.031 A 
ATOM     13  C   UNL     1      29.275  19.488  15.386  0.00  0.00    +0.023 A 
BRANCH   8  15
ATOM     14  N   UNL     1      26.812  20.443  17.690  0.00  0.00    -0.191 NA
ATOM     15  C   UNL     1      27.499  19.760  17.049  0.00  0.00    +0.099 C 
ENDBRANCH   8  15
ENDBRANCH   5  12
ENDBRANCH   1   5
BRANCH   3  16
ATOM     16  C   UNL     1      30.892  23.156  13.637  0.00  0.00    +0.159 C 
BRANCH  16  17
ATOM     17  C   UNL     1      31.376  23.988  12.471  0.00  0.00    +0.058 A 
ATOM     18  C   UNL     1      30.722  25.176  12.135  0.00  0.00    +0.028 A 
ATOM     19  C   UNL     1      31.170  25.912  11.040  0.00  0.00    +0.042 A 
ATOM     20  C   UNL     1      32.256  25.443  10.321  0.00  0.00    +0.141 A 
ATOM     21  F   UNL     1      32.710  26.121   9.259  0.00  0.00    -0.204 F 
ATOM     22  C   UNL     1      32.862  24.265  10.718  0.00  0.00    +0.149 A 
ATOM     23  N   UNL     1      32.453  23.527  11.779  0.00  0.00    -0.255 NA
ENDBRANCH  16  17
ENDBRANCH   3  16
TORSDOF 5
ENDMDL
MODEL 3
REMARK VINA RESULT:      -6.3      2.930      4.082
REMARK  Name = ZINC000435351830
REMARK  5 active torsions:
REMARK  status: ('A' for Active; 'I' for Inactive)
REMARK    1  A    between atoms: C_2  and  C_3
REMARK    2  A    between atoms: C_7  and  C_8
REMARK    3  A    between atoms: C_8  and  C_9
REMARK    4  A    between atoms: N_11  and  C_12
REMARK    5  A    between atoms: C_12  and  C_13
REMARK                            x       y       z     vdW  Elec       q    Type
REMARK                         _______ _______ _______ _____ _____    ______ ____
ROOT
ATOM      1  C   UNL     1      33.481  20.357  12.116  0.00  0.00    +0.224 C 
ATOM      2  O   UNL     1      34.143  20.552  13.130  0.00  0.00    -0.275 OA
ATOM      3  N   UNL     1      33.313  21.274  11.112  0.00  0.00    -0.309 N 
ATOM      4  H   UNL     1      32.781  21.027  10.290  0.00  0.00    +0.149 HD
ENDROOT
BRANCH   1   5
ATOM      5  C   UNL     1      32.728  19.066  11.926  0.00  0.00    +0.072 C 
ATOM      6  C   UNL     1      32.683  18.449  10.533  0.00  0.00    +0.022 C 
ATOM      7  C   UNL     1      33.556  17.825  11.571  0.00  0.00    +0.022 C 
BRANCH   5  12
ATOM      8  C   UNL     1      29.935  19.711  14.477  0.00  0.00    +0.052 A 
ATOM      9  C   UNL     1      29.626  18.423  14.913  0.00  0.00    +0.019 A 
ATOM     10  C   UNL     1      30.275  17.325  14.348  0.00  0.00    +0.002 A 
ATOM     11  C   UNL     1      31.251  17.515  13.365  0.00  0.00    +0.005 A 
ATOM     12  C   UNL     1      31.605  18.804  12.929  0.00  0.00    -0.031 A 
ATOM     13  C   UNL     1      30.904  19.890  13.485  0.00  0.00    +0.023 A 
BRANCH   8  15
ATOM     14  N   UNL     1      28.775  21.768  15.548  0.00  0.00    -0.191 NA
ATOM     15  C   UNL     1      29.296  20.851  15.061  0.00  0.00    +0.099 C 
ENDBRANCH   8  15
ENDBRANCH   5  12
ENDBRANCH   1   5
BRANCH   3  16
ATOM     16  C   UNL     1      33.845  22.616  11.213  0.00  0.00    +0.159 C 
BRANCH  16  17
ATOM     17  C   UNL     1      32.776  23.668  11.406  0.00  0.00    +0.058 A 
ATOM     18  C   UNL     1      32.570  24.649  10.432  0.00  0.00    +0.028 A 
ATOM     19  C   UNL     1      31.597  25.624  10.644  0.00  0.00    +0.042 A 
ATOM     20  C   UNL     1      30.860  25.585  11.815  0.00  0.00    +0.141 A 
ATOM     21  F   UNL     1      29.922  26.509  12.055  0.00  0.00    -0.204 F 
ATOM     22  C   UNL     1      31.110  24.578  12.730  0.00  0.00    +0.149 A 
ATOM     23  N   UNL     1      32.046  23.615  12.552  0.00  0.00    -0.255 NA
ENDBRANCH  16  17
ENDBRANCH   3  16
TORSDOF 5
ENDMDL
MODEL 4
REMARK VINA RESULT:      -6.1      4.317      5.682
REMARK  Name = ZINC000435351830
REMARK  5 active torsions:
REMARK  status: ('A' for Active; 'I' for Inactive)
REMARK    1  A    between atoms: C_2  and  C_3
REMARK    2  A    between atoms: C_7  and  C_8
REMARK    3  A    between atoms: C_8  and  C_9
REMARK    4  A    between atoms: N_11  and  C_12
REMARK    5  A    between atoms: C_12  and  C_13
REMARK                            x       y       z     vdW  Elec       q    Type
REMARK                         _______ _______ _______ _____ _____    ______ ____
ROOT
ATOM      1  C   UNL     1      32.652  21.803  13.317  0.00  0.00    +0.224 C 
ATOM      2  O   UNL     1      33.664  21.877  14.006  0.00  0.00    -0.275 OA
ATOM      3  N   UNL     1      32.550  22.278  12.036  0.00  0.00    -0.309 N 
ATOM      4  H   UNL     1      31.692  22.149  11.519  0.00  0.00    +0.149 HD
ENDROOT
BRANCH   1   5
ATOM      5  C   UNL     1      31.383  21.214  13.877  0.00  0.00    +0.072 C 
ATOM      6  C   UNL     1      30.726  21.902  15.068  0.00  0.00    +0.022 C 
ATOM      7  C   UNL     1      30.103  22.044  13.719  0.00  0.00    +0.022 C 
BRANCH   5  12
ATOM      8  C   UNL     1      30.169  17.606  14.352  0.00  0.00    +0.052 A 
ATOM      9  C   UNL     1      30.896  16.916  13.382  0.00  0.00    +0.019 A 
ATOM     10  C   UNL     1      31.744  17.616  12.523  0.00  0.00    +0.002 A 
ATOM     11  C   UNL     1      31.886  19.001  12.650  0.00  0.00    +0.005 A 
ATOM     12  C   UNL     1      31.191  19.717  13.640  0.00  0.00    -0.031 A 
ATOM     13  C   UNL     1      30.308  18.992  14.464  0.00  0.00    +0.023 A 
BRANCH   8  15
ATOM     14  N   UNL     1      28.619  16.317  15.984  0.00  0.00    -0.191 NA
ATOM     15  C   UNL     1      29.310  16.902  15.255  0.00  0.00    +0.099 C 
ENDBRANCH   8  15
ENDBRANCH   5  12
ENDBRANCH   1   5
BRANCH   3  16
ATOM     16  C   UNL     1      33.631  23.007  11.408  0.00  0.00    +0.159 C 
BRANCH  16  17
ATOM     17  C   UNL     1      33.297  23.485  10.013  0.00  0.00    +0.058 A 
ATOM     18  C   UNL     1      33.015  22.563   9.001  0.00  0.00    +0.028 A 
ATOM     19  C   UNL     1      32.735  23.028   7.717  0.00  0.00    +0.042 A 
ATOM     20  C   UNL     1      32.741  24.393   7.487  0.00  0.00    +0.141 A 
ATOM     21  F   UNL     1      32.484  24.874   6.264  0.00  0.00    -0.204 F 
ATOM     22  C   UNL     1      33.017  25.248   8.538  0.00  0.00    +0.149 A 
ATOM     23  N   UNL     1      33.290  24.829   9.798  0.00  0.00    -0.255 NA
ENDBRANCH  16  17
ENDBRANCH   3  16
TORSDOF 5
ENDMDL
MODEL 5
REMARK VINA RESULT:      -6.1      3.137      3.984
REMARK  Name = ZINC000435351830
REMARK  5 active torsions:
REMARK  status: ('A' for Active; 'I' for Inactive)
REMARK    1  A    between atoms: C_2  and  C_3
REMARK    2  A    between atoms: C_7  and  C_8
REMARK    3  A    between atoms: C_8  and  C_9
REMARK    4  A    between atoms: N_11  and  C_12
REMARK    5  A    between atoms: C_12  and  C_13
REMARK                            x       y       z     vdW  Elec       q    Type
REMARK                         _______ _______ _______ _____ _____    ______ ____
ROOT
ATOM      1  C   UNL     1      32.075  21.800  15.279  0.00  0.00    +0.224 C 
ATOM      2  O   UNL     1      33.156  21.493  14.788  0.00  0.00    -0.275 OA
ATOM      3  N   UNL     1      31.924  22.520  16.435  0.00  0.00    -0.309 N 
ATOM      4  H   UNL     1      30.999  22.764  16.758  0.00  0.00    +0.149 HD
ENDROOT
BRANCH   1   5
ATOM      5  C   UNL     1      30.786  21.335  14.650  0.00  0.00    +0.072 C 
ATOM      6  C   UNL     1      29.498  22.067  15.009  0.00  0.00    +0.022 C 
ATOM      7  C   UNL     1      30.109  22.296  13.666  0.00  0.00    +0.022 C 
BRANCH   5  12
ATOM      8  C   UNL     1      29.922  17.598  14.605  0.00  0.00    +0.052 A 
ATOM      9  C   UNL     1      30.752  17.112  13.594  0.00  0.00    +0.019 A 
ATOM     10  C   UNL     1      31.558  17.994  12.875  0.00  0.00    +0.002 A 
ATOM     11  C   UNL     1      31.556  19.358  13.183  0.00  0.00    +0.005 A 
ATOM     12  C   UNL     1      30.755  19.870  14.218  0.00  0.00    -0.031 A 
ATOM     13  C   UNL     1      29.917  18.965  14.897  0.00  0.00    +0.023 A 
BRANCH   8  15
ATOM     14  N   UNL     1      28.439  15.989  15.997  0.00  0.00    -0.191 NA
ATOM     15  C   UNL     1      29.104  16.705  15.367  0.00  0.00    +0.099 C 
ENDBRANCH   8  15
ENDBRANCH   5  12
ENDBRANCH   1   5
BRANCH   3  16
ATOM     16  C   UNL     1      33.062  22.910  17.240  0.00  0.00    +0.159 C 
BRANCH  16  17
ATOM     17  C   UNL     1      32.872  22.633  18.714  0.00  0.00    +0.058 A 
ATOM     18  C   UNL     1      31.639  22.878  19.323  0.00  0.00    +0.028 A 
ATOM     19  C   UNL     1      31.496  22.639  20.689  0.00  0.00    +0.042 A 
ATOM     20  C   UNL     1      32.584  22.160  21.399  0.00  0.00    +0.141 A 
ATOM     21  F   UNL     1      32.485  21.926  22.714  0.00  0.00    -0.204 F 
ATOM     22  C   UNL     1      33.771  21.929  20.728  0.00  0.00    +0.149 A 
ATOM     23  N   UNL     1      33.941  22.148  19.402  0.00  0.00    -0.255 NA
ENDBRANCH  16  17
ENDBRANCH   3  16
TORSDOF 5
ENDMDL
MODEL 6
REMARK VINA RESULT:      -6.1      2.258      3.568
REMARK  Name = ZINC000435351830
REMARK  5 active torsions:
REMARK  status: ('A' for Active; 'I' for Inactive)
REMARK    1  A    between atoms: C_2  and  C_3
REMARK    2  A    between atoms: C_7  and  C_8
REMARK    3  A    between atoms: C_8  and  C_9
REMARK    4  A    between atoms: N_11  and  C_12
REMARK    5  A    between atoms: C_12  and  C_13
REMARK                            x       y       z     vdW  Elec       q    Type
REMARK                         _______ _______ _______ _____ _____    ______ ____
ROOT
ATOM      1  C   UNL     1      30.589  19.104  13.810  0.00  0.00    +0.224 C 
ATOM      2  O   UNL     1      31.267  19.594  12.914  0.00  0.00    -0.275 OA
ATOM      3  N   UNL     1      29.669  19.796  14.554  0.00  0.00    -0.309 N 
ATOM      4  H   UNL     1      29.123  19.313  15.253  0.00  0.00    +0.149 HD
ENDROOT
BRANCH   1   5
ATOM      5  C   UNL     1      30.771  17.662  14.210  0.00  0.00    +0.072 C 
ATOM      6  C   UNL     1      29.716  17.016  15.101  0.00  0.00    +0.022 C 
ATOM      7  C   UNL     1      29.758  16.654  13.653  0.00  0.00    +0.022 C 
BRANCH   5  12
ATOM      8  C   UNL     1      34.357  16.999  15.400  0.00  0.00    +0.052 A 
ATOM      9  C   UNL     1      34.939  16.407  14.278  0.00  0.00    +0.019 A 
ATOM     10  C   UNL     1      34.165  16.162  13.144  0.00  0.00    +0.002 A 
ATOM     11  C   UNL     1      32.817  16.532  13.119  0.00  0.00    +0.005 A 
ATOM     12  C   UNL     1      32.213  17.159  14.223  0.00  0.00    -0.031 A 
ATOM     13  C   UNL     1      33.006  17.353  15.370  0.00  0.00    +0.023 A 
BRANCH   8  15
ATOM     14  N   UNL     1      35.766  17.511  17.516  0.00  0.00    -0.191 NA
ATOM     15  C   UNL     1      35.141  17.277  16.564  0.00  0.00    +0.099 C 
ENDBRANCH   8  15
ENDBRANCH   5  12
ENDBRANCH   1   5
BRANCH   3  16
ATOM     16  C   UNL     1      29.485  21.222  14.398  0.00  0.00    +0.159 C 
BRANCH  16  17
ATOM     17  C   UNL     1      29.286  21.946  15.711  0.00  0.00    +0.058 A 
ATOM     18  C   UNL     1      28.189  21.644  16.521  0.00  0.00    +0.028 A 
ATOM     19  C   UNL     1      28.013  22.343  17.714  0.00  0.00    +0.042 A 
ATOM     20  C   UNL     1      28.938  23.312  18.061  0.00  0.00    +0.141 A 
ATOM     21  F   UNL     1      28.797  24.008  19.196  0.00  0.00    -0.204 F 
ATOM     22  C   UNL     1      30.007  23.550  17.216  0.00  0.00    +0.149 A 
ATOM     23  N   UNL     1      30.208  22.886  16.052  0.00  0.00    -0.255 NA
ENDBRANCH  16  17
ENDBRANCH   3  16
TORSDOF 5
ENDMDL
MODEL 7
REMARK VINA RESULT:      -6.1      3.554      6.962
REMARK  Name = ZINC000435351830
REMARK  5 active torsions:
REMARK  status: ('A' for Active; 'I' for Inactive)
REMARK    1  A    between atoms: C_2  and  C_3
REMARK    2  A    between atoms: C_7  and  C_8
REMARK    3  A    between atoms: C_8  and  C_9
REMARK    4  A    between atoms: N_11  and  C_12
REMARK    5  A    between atoms: C_12  and  C_13
REMARK                            x       y       z     vdW  Elec       q    Type
REMARK                         _______ _______ _______ _____ _____    ______ ____
ROOT
ATOM      1  C   UNL     1      33.313  21.830  12.866  0.00  0.00    +0.224 C 
ATOM      2  O   UNL     1      34.350  21.545  12.278  0.00  0.00    -0.275 OA
ATOM      3  N   UNL     1      32.280  20.957  13.085  0.00  0.00    -0.309 N 
ATOM      4  H   UNL     1      31.471  21.257  13.609  0.00  0.00    +0.149 HD
ENDROOT
BRANCH   1   5
ATOM      5  C   UNL     1      33.068  23.235  13.354  0.00  0.00    +0.072 C 
ATOM      6  C   UNL     1      33.001  23.481  14.857  0.00  0.00    +0.022 C 
ATOM      7  C   UNL     1      34.216  23.918  14.107  0.00  0.00    +0.022 C 
BRANCH   5  12
ATOM      8  C   UNL     1      32.142  25.090  10.126  0.00  0.00    +0.052 A 
ATOM      9  C   UNL     1      31.116  25.934  10.550  0.00  0.00    +0.019 A 
ATOM     10  C   UNL     1      30.671  25.874  11.871  0.00  0.00    +0.002 A 
ATOM     11  C   UNL     1      31.267  24.990  12.775  0.00  0.00    +0.005 A 
ATOM     12  C   UNL     1      32.325  24.151  12.382  0.00  0.00    -0.031 A 
ATOM     13  C   UNL     1      32.724  24.200  11.033  0.00  0.00    +0.023 A 
BRANCH   8  15
ATOM     14  N   UNL     1      33.033  25.202   7.693  0.00  0.00    -0.191 NA
ATOM     15  C   UNL     1      32.626  25.153   8.780  0.00  0.00    +0.099 C 
ENDBRANCH   8  15
ENDBRANCH   5  12
ENDBRANCH   1   5
BRANCH   3  16
ATOM     16  C   UNL     1      32.294  19.614  12.547  0.00  0.00    +0.159 C 
BRANCH  16  17
ATOM     17  C   UNL     1      31.335  18.679  13.249  0.00  0.00    +0.058 A 
ATOM     18  C   UNL     1      30.572  19.134  14.327  0.00  0.00    +0.028 A 
ATOM     19  C   UNL     1      29.714  18.246  14.975  0.00  0.00    +0.042 A 
ATOM     20  C   UNL     1      29.643  16.940  14.523  0.00  0.00    +0.141 A 
ATOM     21  F   UNL     1      28.835  16.058  15.125  0.00  0.00    -0.204 F 
ATOM     22  C   UNL     1      30.419  16.563  13.442  0.00  0.00    +0.149 A 
ATOM     23  N   UNL     1      31.260  17.401  12.789  0.00  0.00    -0.255 NA
ENDBRANCH  16  17
ENDBRANCH   3  16
TORSDOF 5
ENDMDL
MODEL 8
REMARK VINA RESULT:      -6.1      3.632      7.001
REMARK  Name = ZINC000435351830
REMARK  5 active torsions:
REMARK  status: ('A' for Active; 'I' for Inactive)
REMARK    1  A    between atoms: C_2  and  C_3
REMARK    2  A    between atoms: C_7  and  C_8
REMARK    3  A    between atoms: C_8  and  C_9
REMARK    4  A    between atoms: N_11  and  C_12
REMARK    5  A    between atoms: C_12  and  C_13
REMARK                            x       y       z     vdW  Elec       q    Type
REMARK                         _______ _______ _______ _____ _____    ______ ____
ROOT
ATOM      1  C   UNL     1      31.542  22.518  14.515  0.00  0.00    +0.224 C 
ATOM      2  O   UNL     1      31.506  22.262  15.713  0.00  0.00    -0.275 OA
ATOM      3  N   UNL     1      30.775  21.896  13.565  0.00  0.00    -0.309 N 
ATOM      4  H   UNL     1      30.836  22.187  12.600  0.00  0.00    +0.149 HD
ENDROOT
BRANCH   1   5
ATOM      5  C   UNL     1      32.515  23.535  13.975  0.00  0.00    +0.072 C 
ATOM      6  C   UNL     1      33.504  24.179  14.941  0.00  0.00    +0.022 C 
ATOM      7  C   UNL     1      33.999  23.147  13.982  0.00  0.00    +0.022 C 
BRANCH   5  12
ATOM      8  C   UNL     1      32.401  24.721  10.329  0.00  0.00    +0.052 A 
ATOM      9  C   UNL     1      31.415  25.707  10.366  0.00  0.00    +0.019 A 
ATOM     10  C   UNL     1      30.734  25.961  11.557  0.00  0.00    +0.002 A 
ATOM     11  C   UNL     1      31.055  25.249  12.716  0.00  0.00    +0.005 A 
ATOM     12  C   UNL     1      32.067  24.273  12.715  0.00  0.00    -0.031 A 
ATOM     13  C   UNL     1      32.707  24.006  11.490  0.00  0.00    +0.023 A 
BRANCH   8  15
ATOM     14  N   UNL     1      33.707  24.263   8.135  0.00  0.00    -0.191 NA
ATOM     15  C   UNL     1      33.125  24.462   9.122  0.00  0.00    +0.099 C 
ENDBRANCH   8  15
ENDBRANCH   5  12
ENDBRANCH   1   5
BRANCH   3  16
ATOM     16  C   UNL     1      29.901  20.792  13.900  0.00  0.00    +0.159 C 
BRANCH  16  17
ATOM     17  C   UNL     1      30.486  19.442  13.554  0.00  0.00    +0.058 A 
ATOM     18  C   UNL     1      30.008  18.287  14.179  0.00  0.00    +0.028 A 
ATOM     19  C   UNL     1      30.582  17.056  13.862  0.00  0.00    +0.042 A 
ATOM     20  C   UNL     1      31.605  17.019  12.931  0.00  0.00    +0.141 A 
ATOM     21  F   UNL     1      32.184  15.855  12.608  0.00  0.00    -0.204 F 
ATOM     22  C   UNL     1      32.020  18.200  12.344  0.00  0.00    +0.149 A 
ATOM     23  N   UNL     1      31.482  19.411  12.627  0.00  0.00    -0.255 NA
ENDBRANCH  16  17
ENDBRANCH   3  16
TORSDOF 5
ENDMDL
MODEL 9
REMARK VINA RESULT:      -6.0      3.667      6.485
REMARK  Name = ZINC000435351830
REMARK  5 active torsions:
REMARK  status: ('A' for Active; 'I' for Inactive)
REMARK    1  A    between atoms: C_2  and  C_3
REMARK    2  A    between atoms: C_7  and  C_8
REMARK    3  A    between atoms: C_8  and  C_9
REMARK    4  A    between atoms: N_11  and  C_12
REMARK    5  A    between atoms: C_12  and  C_13
REMARK                            x       y       z     vdW  Elec       q    Type
REMARK                         _______ _______ _______ _____ _____    ______ ____
ROOT
ATOM      1  C   UNL     1      33.776  21.760  10.164  0.00  0.00    +0.224 C 
ATOM      2  O   UNL     1      34.979  21.614  10.347  0.00  0.00    -0.275 OA
ATOM      3  N   UNL     1      32.831  20.802  10.419  0.00  0.00    -0.309 N 
ATOM      4  H   UNL     1      31.853  21.009  10.276  0.00  0.00    +0.149 HD
ENDROOT
BRANCH   1   5
ATOM      5  C   UNL     1      33.239  23.036   9.566  0.00  0.00    +0.072 C 
ATOM      6  C   UNL     1      33.965  23.639   8.370  0.00  0.00    +0.022 C 
ATOM      7  C   UNL     1      32.660  22.948   8.149  0.00  0.00    +0.022 C 
BRANCH   5  12
ATOM      8  C   UNL     1      31.287  24.172  12.667  0.00  0.00    +0.052 A 
ATOM      9  C   UNL     1      30.815  25.427  12.280  0.00  0.00    +0.019 A 
ATOM     10  C   UNL     1      31.169  25.946  11.035  0.00  0.00    +0.002 A 
ATOM     11  C   UNL     1      31.973  25.202  10.165  0.00  0.00    +0.005 A 
ATOM     12  C   UNL     1      32.436  23.922  10.517  0.00  0.00    -0.031 A 
ATOM     13  C   UNL     1      32.101  23.441  11.797  0.00  0.00    +0.023 A 
BRANCH   8  15
ATOM     14  N   UNL     1      30.631  23.159  14.963  0.00  0.00    -0.191 NA
ATOM     15  C   UNL     1      30.917  23.614  13.932  0.00  0.00    +0.099 C 
ENDBRANCH   8  15
ENDBRANCH   5  12
ENDBRANCH   1   5
BRANCH   3  16
ATOM     16  C   UNL     1      33.197  19.471  10.851  0.00  0.00    +0.159 C 
BRANCH  16  17
ATOM     17  C   UNL     1      32.321  18.942  11.965  0.00  0.00    +0.058 A 
ATOM     18  C   UNL     1      31.605  19.826  12.776  0.00  0.00    +0.028 A 
ATOM     19  C   UNL     1      30.825  19.316  13.813  0.00  0.00    +0.042 A 
ATOM     20  C   UNL     1      30.780  17.945  14.000  0.00  0.00    +0.141 A 
ATOM     21  F   UNL     1      30.046  17.421  14.990  0.00  0.00    -0.204 F 
ATOM     22  C   UNL     1      31.504  17.129  13.150  0.00  0.00    +0.149 A 
ATOM     23  N   UNL     1      32.270  17.593  12.133  0.00  0.00    -0.255 NA
ENDBRANCH  16  17
ENDBRANCH   3  16
TORSDOF 5
ENDMDL
