MODEL 1
REMARK VINA RESULT:      -7.7      0.000      0.000
REMARK  Name = ZINC000435351830
REMARK  5 active torsions:
REMARK  status: ('A' for Active; 'I' for Inactive)
REMARK    1  A    between atoms: C_2  and  C_3
REMARK    2  A    between atoms: C_7  and  C_8
REMARK    3  A    between atoms: C_8  and  C_9
REMARK    4  A    between atoms: N_11  and  C_12
REMARK    5  A    between atoms: C_12  and  C_13
REMARK                            x       y       z     vdW  Elec       q    Type
REMARK                         _______ _______ _______ _____ _____    ______ ____
ROOT
ATOM      1  C   UNL     1      28.661  18.769  15.850  0.00  0.00    +0.224 C 
ATOM      2  O   UNL     1      29.132  19.548  15.029  0.00  0.00    -0.275 OA
ATOM      3  N   UNL     1      27.737  19.111  16.803  0.00  0.00    -0.309 N 
ATOM      4  H   UNL     1      27.368  18.403  17.422  0.00  0.00    +0.149 HD
ENDROOT
BRANCH   1   5
ATOM      5  C   UNL     1      29.128  17.337  15.907  0.00  0.00    +0.072 C 
ATOM      6  C   UNL     1      30.251  16.977  16.874  0.00  0.00    +0.022 C 
ATOM      7  C   UNL     1      28.853  16.568  17.205  0.00  0.00    +0.022 C 
BRANCH   5  12
ATOM      8  C   UNL     1      29.854  15.491  12.623  0.00  0.00    +0.052 A 
ATOM      9  C   UNL     1      28.574  15.149  12.184  0.00  0.00    +0.019 A 
ATOM     10  C   UNL     1      27.466  15.459  12.971  0.00  0.00    +0.002 A 
ATOM     11  C   UNL     1      27.631  16.134  14.184  0.00  0.00    +0.005 A 
ATOM     12  C   UNL     1      28.906  16.519  14.636  0.00  0.00    -0.031 A 
ATOM     13  C   UNL     1      30.011  16.154  13.844  0.00  0.00    +0.023 A 
BRANCH   8  15
ATOM     14  N   UNL     1      31.924  14.963  11.154  0.00  0.00    -0.191 NA
ATOM     15  C   UNL     1      31.001  15.199  11.819  0.00  0.00    +0.099 C 
ENDBRANCH   8  15
ENDBRANCH   5  12
ENDBRANCH   1   5
BRANCH   3  16
ATOM     16  C   UNL     1      27.300  20.478  16.979  0.00  0.00    +0.159 C 
BRANCH  16  17
ATOM     17  C   UNL     1      28.375  21.381  17.542  0.00  0.00    +0.058 A 
ATOM     18  C   UNL     1      28.620  22.628  16.962  0.00  0.00    +0.028 A 
ATOM     19  C   UNL     1      29.634  23.431  17.483  0.00  0.00    +0.042 A 
ATOM     20  C   UNL     1      30.363  22.967  18.564  0.00  0.00    +0.141 A 
ATOM     21  F   UNL     1      31.348  23.709  19.085  0.00  0.00    -0.204 F 
ATOM     22  C   UNL     1      30.056  21.727  19.094  0.00  0.00    +0.149 A 
ATOM     23  N   UNL     1      29.076  20.923  18.614  0.00  0.00    -0.255 NA
ENDBRANCH  16  17
ENDBRANCH   3  16
TORSDOF 5
ENDMDL
MODEL 2
REMARK VINA RESULT:      -7.7      1.294      1.459
REMARK  Name = ZINC000435351830
REMARK  5 active torsions:
REMARK  status: ('A' for Active; 'I' for Inactive)
REMARK    1  A    between atoms: C_2  and  C_3
REMARK    2  A    between atoms: C_7  and  C_8
REMARK    3  A    between atoms: C_8  and  C_9
REMARK    4  A    between atoms: N_11  and  C_12
REMARK    5  A    between atoms: C_12  and  C_13
REMARK                            x       y       z     vdW  Elec       q    Type
REMARK                         _______ _______ _______ _____ _____    ______ ____
ROOT
ATOM      1  C   UNL     1      28.789  18.724  15.723  0.00  0.00    +0.224 C 
ATOM      2  O   UNL     1      27.684  18.984  16.186  0.00  0.00    -0.275 OA
ATOM      3  N   UNL     1      29.592  19.628  15.078  0.00  0.00    -0.309 N 
ATOM      4  H   UNL     1      30.506  19.346  14.754  0.00  0.00    +0.149 HD
ENDROOT
BRANCH   1   5
ATOM      5  C   UNL     1      29.336  17.321  15.783  0.00  0.00    +0.072 C 
ATOM      6  C   UNL     1      30.527  17.043  16.693  0.00  0.00    +0.022 C 
ATOM      7  C   UNL     1      29.174  16.568  17.109  0.00  0.00    +0.022 C 
BRANCH   5  12
ATOM      8  C   UNL     1      30.003  15.352  12.558  0.00  0.00    +0.052 A 
ATOM      9  C   UNL     1      28.714  15.015  12.142  0.00  0.00    +0.019 A 
ATOM     10  C   UNL     1      27.618  15.370  12.928  0.00  0.00    +0.002 A 
ATOM     11  C   UNL     1      27.805  16.083  14.115  0.00  0.00    +0.005 A 
ATOM     12  C   UNL     1      29.089  16.464  14.542  0.00  0.00    -0.031 A 
ATOM     13  C   UNL     1      30.181  16.054  13.753  0.00  0.00    +0.023 A 
BRANCH   8  15
ATOM     14  N   UNL     1      32.051  14.742  11.089  0.00  0.00    -0.191 NA
ATOM     15  C   UNL     1      31.138  15.016  11.754  0.00  0.00    +0.099 C 
ENDBRANCH   8  15
ENDBRANCH   5  12
ENDBRANCH   1   5
BRANCH   3  16
ATOM     16  C   UNL     1      29.147  20.977  14.803  0.00  0.00    +0.159 C 
BRANCH  16  17
ATOM     17  C   UNL     1      29.375  21.927  15.958  0.00  0.00    +0.058 A 
ATOM     18  C   UNL     1      28.337  22.216  16.847  0.00  0.00    +0.028 A 
ATOM     19  C   UNL     1      28.564  23.114  17.888  0.00  0.00    +0.042 A 
ATOM     20  C   UNL     1      29.817  23.688  18.010  0.00  0.00    +0.141 A 
ATOM     21  F   UNL     1      30.069  24.561  18.994  0.00  0.00    -0.204 F 
ATOM     22  C   UNL     1      30.801  23.347  17.101  0.00  0.00    +0.149 A 
ATOM     23  N   UNL     1      30.614  22.475  16.080  0.00  0.00    -0.255 NA
ENDBRANCH  16  17
ENDBRANCH   3  16
TORSDOF 5
ENDMDL
MODEL 3
REMARK VINA RESULT:      -7.5      3.612      6.914
REMARK  Name = ZINC000435351830
REMARK  5 active torsions:
REMARK  status: ('A' for Active; 'I' for Inactive)
REMARK    1  A    between atoms: C_2  and  C_3
REMARK    2  A    between atoms: C_7  and  C_8
REMARK    3  A    between atoms: C_8  and  C_9
REMARK    4  A    between atoms: N_11  and  C_12
REMARK    5  A    between atoms: C_12  and  C_13
REMARK                            x       y       z     vdW  Elec       q    Type
REMARK                         _______ _______ _______ _____ _____    ______ ____
ROOT
ATOM      1  C   UNL     1      27.981  19.258  16.450  0.00  0.00    +0.224 C 
ATOM      2  O   UNL     1      26.802  18.931  16.523  0.00  0.00    -0.275 OA
ATOM      3  N   UNL     1      29.020  18.381  16.275  0.00  0.00    -0.309 N 
ATOM      4  H   UNL     1      29.964  18.731  16.189  0.00  0.00    +0.149 HD
ENDROOT
BRANCH   1   5
ATOM      5  C   UNL     1      28.391  20.699  16.616  0.00  0.00    +0.072 C 
ATOM      6  C   UNL     1      27.338  21.707  17.064  0.00  0.00    +0.022 C 
ATOM      7  C   UNL     1      28.378  21.265  18.041  0.00  0.00    +0.022 C 
BRANCH   5  12
ATOM      8  C   UNL     1      31.944  21.810  15.689  0.00  0.00    +0.052 A 
ATOM      9  C   UNL     1      31.815  22.124  14.336  0.00  0.00    +0.019 A 
ATOM     10  C   UNL     1      30.594  21.926  13.692  0.00  0.00    +0.002 A 
ATOM     11  C   UNL     1      29.494  21.439  14.404  0.00  0.00    +0.005 A 
ATOM     12  C   UNL     1      29.586  21.145  15.776  0.00  0.00    -0.031 A 
ATOM     13  C   UNL     1      30.842  21.312  16.391  0.00  0.00    +0.023 A 
BRANCH   8  15
ATOM     14  N   UNL     1      34.189  22.188  16.930  0.00  0.00    -0.191 NA
ATOM     15  C   UNL     1      33.183  22.027  16.372  0.00  0.00    +0.099 C 
ENDBRANCH   8  15
ENDBRANCH   5  12
ENDBRANCH   1   5
BRANCH   3  16
ATOM     16  C   UNL     1      28.809  16.950  16.251  0.00  0.00    +0.159 C 
BRANCH  16  17
ATOM     17  C   UNL     1      28.827  16.367  14.855  0.00  0.00    +0.058 A 
ATOM     18  C   UNL     1      27.628  16.102  14.189  0.00  0.00    +0.028 A 
ATOM     19  C   UNL     1      27.670  15.540  12.913  0.00  0.00    +0.042 A 
ATOM     20  C   UNL     1      28.903  15.269  12.346  0.00  0.00    +0.141 A 
ATOM     21  F   UNL     1      28.981  14.723  11.125  0.00  0.00    -0.204 F 
ATOM     22  C   UNL     1      30.049  15.569  13.059  0.00  0.00    +0.149 A 
ATOM     23  N   UNL     1      30.043  16.118  14.298  0.00  0.00    -0.255 NA
ENDBRANCH  16  17
ENDBRANCH   3  16
TORSDOF 5
ENDMDL
MODEL 4
REMARK VINA RESULT:      -7.4      2.164      2.360
REMARK  Name = ZINC000435351830
REMARK  5 active torsions:
REMARK  status: ('A' for Active; 'I' for Inactive)
REMARK    1  A    between atoms: C_2  and  C_3
REMARK    2  A    between atoms: C_7  and  C_8
REMARK    3  A    between atoms: C_8  and  C_9
REMARK    4  A    between atoms: N_11  and  C_12
REMARK    5  A    between atoms: C_12  and  C_13
REMARK                            x       y       z     vdW  Elec       q    Type
REMARK                         _______ _______ _______ _____ _____    ______ ____
ROOT
ATOM      1  C   UNL     1      28.525  18.619  16.645  0.00  0.00    +0.224 C 
ATOM      2  O   UNL     1      27.421  18.939  16.219  0.00  0.00    -0.275 OA
ATOM      3  N   UNL     1      29.441  19.496  17.165  0.00  0.00    -0.309 N 
ATOM      4  H   UNL     1      30.317  19.151  17.529  0.00  0.00    +0.149 HD
ENDROOT
BRANCH   1   5
ATOM      5  C   UNL     1      28.993  17.188  16.570  0.00  0.00    +0.072 C 
ATOM      6  C   UNL     1      30.040  16.711  17.570  0.00  0.00    +0.022 C 
ATOM      7  C   UNL     1      28.623  16.274  17.744  0.00  0.00    +0.022 C 
BRANCH   5  12
ATOM      8  C   UNL     1      29.957  15.811  13.121  0.00  0.00    +0.052 A 
ATOM      9  C   UNL     1      28.718  15.459  12.583  0.00  0.00    +0.019 A 
ATOM     10  C   UNL     1      27.563  15.608  13.350  0.00  0.00    +0.002 A 
ATOM     11  C   UNL     1      27.639  16.133  14.643  0.00  0.00    +0.005 A 
ATOM     12  C   UNL     1      28.870  16.526  15.198  0.00  0.00    -0.031 A 
ATOM     13  C   UNL     1      30.025  16.323  14.420  0.00  0.00    +0.023 A 
BRANCH   8  15
ATOM     14  N   UNL     1      32.114  15.571  11.702  0.00  0.00    -0.191 NA
ATOM     15  C   UNL     1      31.150  15.685  12.342  0.00  0.00    +0.099 C 
ENDBRANCH   8  15
ENDBRANCH   5  12
ENDBRANCH   1   5
BRANCH   3  16
ATOM     16  C   UNL     1      29.206  20.924  17.167  0.00  0.00    +0.159 C 
BRANCH  16  17
ATOM     17  C   UNL     1      30.040  21.668  16.148  0.00  0.00    +0.058 A 
ATOM     18  C   UNL     1      29.688  21.640  14.796  0.00  0.00    +0.028 A 
ATOM     19  C   UNL     1      30.487  22.311  13.872  0.00  0.00    +0.042 A 
ATOM     20  C   UNL     1      31.603  22.991  14.327  0.00  0.00    +0.141 A 
ATOM     21  F   UNL     1      32.397  23.642  13.467  0.00  0.00    -0.204 F 
ATOM     22  C   UNL     1      31.884  22.987  15.681  0.00  0.00    +0.149 A 
ATOM     23  N   UNL     1      31.127  22.346  16.605  0.00  0.00    -0.255 NA
ENDBRANCH  16  17
ENDBRANCH   3  16
TORSDOF 5
ENDMDL
MODEL 5
REMARK VINA RESULT:      -7.1      2.257      2.899
REMARK  Name = ZINC000435351830
REMARK  5 active torsions:
REMARK  status: ('A' for Active; 'I' for Inactive)
REMARK    1  A    between atoms: C_2  and  C_3
REMARK    2  A    between atoms: C_7  and  C_8
REMARK    3  A    between atoms: C_8  and  C_9
REMARK    4  A    between atoms: N_11  and  C_12
REMARK    5  A    between atoms: C_12  and  C_13
REMARK                            x       y       z     vdW  Elec       q    Type
REMARK                         _______ _______ _______ _____ _____    ______ ____
ROOT
ATOM      1  C   UNL     1      31.990  18.815  15.820  0.00  0.00    +0.224 C 
ATOM      2  O   UNL     1      32.790  19.511  15.204  0.00  0.00    -0.275 OA
ATOM      3  N   UNL     1      31.167  19.275  16.815  0.00  0.00    -0.309 N 
ATOM      4  H   UNL     1      30.509  18.646  17.253  0.00  0.00    +0.149 HD
ENDROOT
BRANCH   1   5
ATOM      5  C   UNL     1      31.897  17.334  15.555  0.00  0.00    +0.072 C 
ATOM      6  C   UNL     1      33.169  16.581  15.183  0.00  0.00    +0.022 C 
ATOM      7  C   UNL     1      32.601  16.405  16.552  0.00  0.00    +0.022 C 
BRANCH   5  12
ATOM      8  C   UNL     1      29.174  15.819  13.317  0.00  0.00    +0.052 A 
ATOM      9  C   UNL     1      28.020  16.021  14.074  0.00  0.00    +0.019 A 
ATOM     10  C   UNL     1      28.113  16.596  15.341  0.00  0.00    +0.002 A 
ATOM     11  C   UNL     1      29.356  16.994  15.843  0.00  0.00    +0.005 A 
ATOM     12  C   UNL     1      30.531  16.833  15.089  0.00  0.00    -0.031 A 
ATOM     13  C   UNL     1      30.414  16.208  13.832  0.00  0.00    +0.023 A 
BRANCH   8  15
ATOM     14  N   UNL     1      29.046  14.788  10.941  0.00  0.00    -0.191 NA
ATOM     15  C   UNL     1      29.095  15.249  12.007  0.00  0.00    +0.099 C 
ENDBRANCH   8  15
ENDBRANCH   5  12
ENDBRANCH   1   5
BRANCH   3  16
ATOM     16  C   UNL     1      31.243  20.638  17.293  0.00  0.00    +0.159 C 
BRANCH  16  17
ATOM     17  C   UNL     1      29.905  21.342  17.304  0.00  0.00    +0.058 A 
ATOM     18  C   UNL     1      28.745  20.654  16.938  0.00  0.00    +0.028 A 
ATOM     19  C   UNL     1      27.527  21.331  16.932  0.00  0.00    +0.042 A 
ATOM     20  C   UNL     1      27.506  22.667  17.295  0.00  0.00    +0.141 A 
ATOM     21  F   UNL     1      26.354  23.351  17.294  0.00  0.00    -0.204 F 
ATOM     22  C   UNL     1      28.691  23.281  17.658  0.00  0.00    +0.149 A 
ATOM     23  N   UNL     1      29.890  22.650  17.677  0.00  0.00    -0.255 NA
ENDBRANCH  16  17
ENDBRANCH   3  16
TORSDOF 5
ENDMDL
MODEL 6
REMARK VINA RESULT:      -7.1      3.338      4.793
REMARK  Name = ZINC000435351830
REMARK  5 active torsions:
REMARK  status: ('A' for Active; 'I' for Inactive)
REMARK    1  A    between atoms: C_2  and  C_3
REMARK    2  A    between atoms: C_7  and  C_8
REMARK    3  A    between atoms: C_8  and  C_9
REMARK    4  A    between atoms: N_11  and  C_12
REMARK    5  A    between atoms: C_12  and  C_13
REMARK                            x       y       z     vdW  Elec       q    Type
REMARK                         _______ _______ _______ _____ _____    ______ ____
ROOT
ATOM      1  C   UNL     1      29.648  21.409  15.422  0.00  0.00    +0.224 C 
ATOM      2  O   UNL     1      29.145  21.486  14.306  0.00  0.00    -0.275 OA
ATOM      3  N   UNL     1      30.940  21.758  15.716  0.00  0.00    -0.309 N 
ATOM      4  H   UNL     1      31.272  21.700  16.668  0.00  0.00    +0.149 HD
ENDROOT
BRANCH   1   5
ATOM      5  C   UNL     1      28.865  20.845  16.580  0.00  0.00    +0.072 C 
ATOM      6  C   UNL     1      28.543  21.762  17.754  0.00  0.00    +0.022 C 
ATOM      7  C   UNL     1      27.453  21.401  16.799  0.00  0.00    +0.022 C 
BRANCH   5  12
ATOM      8  C   UNL     1      28.507  17.077  15.956  0.00  0.00    +0.052 A 
ATOM      9  C   UNL     1      29.007  16.529  17.138  0.00  0.00    +0.019 A 
ATOM     10  C   UNL     1      29.519  17.369  18.128  0.00  0.00    +0.002 A 
ATOM     11  C   UNL     1      29.509  18.755  17.949  0.00  0.00    +0.005 A 
ATOM     12  C   UNL     1      28.982  19.335  16.782  0.00  0.00    -0.031 A 
ATOM     13  C   UNL     1      28.512  18.463  15.781  0.00  0.00    +0.023 A 
BRANCH   8  15
ATOM     14  N   UNL     1      27.526  15.547  14.106  0.00  0.00    -0.191 NA
ATOM     15  C   UNL     1      27.959  16.233  14.939  0.00  0.00    +0.099 C 
ENDBRANCH   8  15
ENDBRANCH   5  12
ENDBRANCH   1   5
BRANCH   3  16
ATOM     16  C   UNL     1      31.867  22.173  14.686  0.00  0.00    +0.159 C 
BRANCH  16  17
ATOM     17  C   UNL     1      32.831  23.244  15.146  0.00  0.00    +0.058 A 
ATOM     18  C   UNL     1      33.623  23.924  14.218  0.00  0.00    +0.028 A 
ATOM     19  C   UNL     1      34.522  24.889  14.669  0.00  0.00    +0.042 A 
ATOM     20  C   UNL     1      34.597  25.146  16.027  0.00  0.00    +0.141 A 
ATOM     21  F   UNL     1      35.454  26.061  16.496  0.00  0.00    -0.204 F 
ATOM     22  C   UNL     1      33.774  24.443  16.887  0.00  0.00    +0.149 A 
ATOM     23  N   UNL     1      32.888  23.502  16.481  0.00  0.00    -0.255 NA
ENDBRANCH  16  17
ENDBRANCH   3  16
TORSDOF 5
ENDMDL
MODEL 7
REMARK VINA RESULT:      -7.1      3.461      7.805
REMARK  Name = ZINC000435351830
REMARK  5 active torsions:
REMARK  status: ('A' for Active; 'I' for Inactive)
REMARK    1  A    between atoms: C_2  and  C_3
REMARK    2  A    between atoms: C_7  and  C_8
REMARK    3  A    between atoms: C_8  and  C_9
REMARK    4  A    between atoms: N_11  and  C_12
REMARK    5  A    between atoms: C_12  and  C_13
REMARK                            x       y       z     vdW  Elec       q    Type
REMARK                         _______ _______ _______ _____ _____    ______ ____
ROOT
ATOM      1  C   UNL     1      29.545  19.007  16.694  0.00  0.00    +0.224 C 
ATOM      2  O   UNL     1      29.107  18.329  17.617  0.00  0.00    -0.275 OA
ATOM      3  N   UNL     1      30.216  18.502  15.611  0.00  0.00    -0.309 N 
ATOM      4  H   UNL     1      30.516  19.121  14.872  0.00  0.00    +0.149 HD
ENDROOT
BRANCH   1   5
ATOM      5  C   UNL     1      29.422  20.509  16.718  0.00  0.00    +0.072 C 
ATOM      6  C   UNL     1      28.795  21.206  15.515  0.00  0.00    +0.022 C 
ATOM      7  C   UNL     1      28.003  21.088  16.776  0.00  0.00    +0.022 C 
BRANCH   5  12
ATOM      8  C   UNL     1      32.291  22.829  17.767  0.00  0.00    +0.052 A 
ATOM      9  C   UNL     1      32.443  22.523  19.120  0.00  0.00    +0.019 A 
ATOM     10  C   UNL     1      31.583  21.605  19.723  0.00  0.00    +0.002 A 
ATOM     11  C   UNL     1      30.588  20.974  18.971  0.00  0.00    +0.005 A 
ATOM     12  C   UNL     1      30.433  21.240  17.600  0.00  0.00    -0.031 A 
ATOM     13  C   UNL     1      31.285  22.203  17.026  0.00  0.00    +0.023 A 
BRANCH   8  15
ATOM     14  N   UNL     1      33.890  24.513  16.613  0.00  0.00    -0.191 NA
ATOM     15  C   UNL     1      33.177  23.752  17.126  0.00  0.00    +0.099 C 
ENDBRANCH   8  15
ENDBRANCH   5  12
ENDBRANCH   1   5
BRANCH   3  16
ATOM     16  C   UNL     1      30.551  17.098  15.513  0.00  0.00    +0.159 C 
BRANCH  16  17
ATOM     17  C   UNL     1      29.950  16.424  14.300  0.00  0.00    +0.058 A 
ATOM     18  C   UNL     1      28.564  16.386  14.130  0.00  0.00    +0.028 A 
ATOM     19  C   UNL     1      28.033  15.736  13.016  0.00  0.00    +0.042 A 
ATOM     20  C   UNL     1      28.901  15.154  12.109  0.00  0.00    +0.141 A 
ATOM     21  F   UNL     1      28.427  14.516  11.031  0.00  0.00    -0.204 F 
ATOM     22  C   UNL     1      30.263  15.242  12.334  0.00  0.00    +0.149 A 
ATOM     23  N   UNL     1      30.811  15.867  13.405  0.00  0.00    -0.255 NA
ENDBRANCH  16  17
ENDBRANCH   3  16
TORSDOF 5
ENDMDL
MODEL 8
REMARK VINA RESULT:      -7.0      3.812      6.849
REMARK  Name = ZINC000435351830
REMARK  5 active torsions:
REMARK  status: ('A' for Active; 'I' for Inactive)
REMARK    1  A    between atoms: C_2  and  C_3
REMARK    2  A    between atoms: C_7  and  C_8
REMARK    3  A    between atoms: C_8  and  C_9
REMARK    4  A    between atoms: N_11  and  C_12
REMARK    5  A    between atoms: C_12  and  C_13
REMARK                            x       y       z     vdW  Elec       q    Type
REMARK                         _______ _______ _______ _____ _____    ______ ____
ROOT
ATOM      1  C   UNL     1      28.208  19.406  16.557  0.00  0.00    +0.224 C 
ATOM      2  O   UNL     1      26.986  19.389  16.466  0.00  0.00    -0.275 OA
ATOM      3  N   UNL     1      29.011  18.303  16.428  0.00  0.00    -0.309 N 
ATOM      4  H   UNL     1      30.015  18.403  16.481  0.00  0.00    +0.149 HD
ENDROOT
BRANCH   1   5
ATOM      5  C   UNL     1      28.936  20.683  16.889  0.00  0.00    +0.072 C 
ATOM      6  C   UNL     1      28.154  21.816  17.544  0.00  0.00    +0.022 C 
ATOM      7  C   UNL     1      29.104  21.020  18.376  0.00  0.00    +0.022 C 
BRANCH   5  12
ATOM      8  C   UNL     1      31.225  22.353  14.302  0.00  0.00    +0.052 A 
ATOM      9  C   UNL     1      32.339  21.513  14.304  0.00  0.00    +0.019 A 
ATOM     10  C   UNL     1      32.390  20.430  15.181  0.00  0.00    +0.002 A 
ATOM     11  C   UNL     1      31.317  20.170  16.040  0.00  0.00    +0.005 A 
ATOM     12  C   UNL     1      30.169  20.980  16.037  0.00  0.00    -0.031 A 
ATOM     13  C   UNL     1      30.163  22.092  15.173  0.00  0.00    +0.023 A 
BRANCH   8  15
ATOM     14  N   UNL     1      31.077  24.342  12.645  0.00  0.00    -0.191 NA
ATOM     15  C   UNL     1      31.146  23.456  13.394  0.00  0.00    +0.099 C 
ENDBRANCH   8  15
ENDBRANCH   5  12
ENDBRANCH   1   5
BRANCH   3  16
ATOM     16  C   UNL     1      28.457  16.977  16.260  0.00  0.00    +0.159 C 
BRANCH  16  17
ATOM     17  C   UNL     1      28.694  16.402  14.881  0.00  0.00    +0.058 A 
ATOM     18  C   UNL     1      27.611  16.039  14.075  0.00  0.00    +0.028 A 
ATOM     19  C   UNL     1      27.855  15.487  12.819  0.00  0.00    +0.042 A 
ATOM     20  C   UNL     1      29.166  15.321  12.407  0.00  0.00    +0.141 A 
ATOM     21  F   UNL     1      29.437  14.788  11.209  0.00  0.00    -0.204 F 
ATOM     22  C   UNL     1      30.188  15.714  13.252  0.00  0.00    +0.149 A 
ATOM     23  N   UNL     1      29.985  16.256  14.478  0.00  0.00    -0.255 NA
ENDBRANCH  16  17
ENDBRANCH   3  16
TORSDOF 5
ENDMDL
MODEL 9
REMARK VINA RESULT:      -7.0      3.783      6.559
REMARK  Name = ZINC000435351830
REMARK  5 active torsions:
REMARK  status: ('A' for Active; 'I' for Inactive)
REMARK    1  A    between atoms: C_2  and  C_3
REMARK    2  A    between atoms: C_7  and  C_8
REMARK    3  A    between atoms: C_8  and  C_9
REMARK    4  A    between atoms: N_11  and  C_12
REMARK    5  A    between atoms: C_12  and  C_13
REMARK                            x       y       z     vdW  Elec       q    Type
REMARK                         _______ _______ _______ _____ _____    ______ ____
ROOT
ATOM      1  C   UNL     1      28.598  18.718  16.688  0.00  0.00    +0.224 C 
ATOM      2  O   UNL     1      29.066  18.119  17.650  0.00  0.00    -0.275 OA
ATOM      3  N   UNL     1      27.973  18.115  15.628  0.00  0.00    -0.309 N 
ATOM      4  H   UNL     1      27.582  18.680  14.888  0.00  0.00    +0.149 HD
ENDROOT
BRANCH   1   5
ATOM      5  C   UNL     1      28.738  20.214  16.572  0.00  0.00    +0.072 C 
ATOM      6  C   UNL     1      27.538  21.086  16.927  0.00  0.00    +0.022 C 
ATOM      7  C   UNL     1      28.688  21.019  17.877  0.00  0.00    +0.022 C 
BRANCH   5  12
ATOM      8  C   UNL     1      32.083  20.572  14.728  0.00  0.00    +0.052 A 
ATOM      9  C   UNL     1      31.840  21.651  13.877  0.00  0.00    +0.019 A 
ATOM     10  C   UNL     1      30.576  22.239  13.846  0.00  0.00    +0.002 A 
ATOM     11  C   UNL     1      29.561  21.768  14.684  0.00  0.00    +0.005 A 
ATOM     12  C   UNL     1      29.786  20.704  15.575  0.00  0.00    -0.031 A 
ATOM     13  C   UNL     1      31.058  20.100  15.553  0.00  0.00    +0.023 A 
BRANCH   8  15
ATOM     14  N   UNL     1      34.429  19.475  14.851  0.00  0.00    -0.191 NA
ATOM     15  C   UNL     1      33.379  19.970  14.788  0.00  0.00    +0.099 C 
ENDBRANCH   8  15
ENDBRANCH   5  12
ENDBRANCH   1   5
BRANCH   3  16
ATOM     16  C   UNL     1      27.893  16.675  15.513  0.00  0.00    +0.159 C 
BRANCH  16  17
ATOM     17  C   UNL     1      28.609  16.133  14.296  0.00  0.00    +0.058 A 
ATOM     18  C   UNL     1      27.878  15.649  13.208  0.00  0.00    +0.028 A 
ATOM     19  C   UNL     1      28.560  15.130  12.108  0.00  0.00    +0.042 A 
ATOM     20  C   UNL     1      29.943  15.116  12.129  0.00  0.00    +0.141 A 
ATOM     21  F   UNL     1      30.631  14.619  11.093  0.00  0.00    -0.204 F 
ATOM     22  C   UNL     1      30.601  15.622  13.235  0.00  0.00    +0.149 A 
ATOM     23  N   UNL     1      29.969  16.136  14.318  0.00  0.00    -0.255 NA
ENDBRANCH  16  17
ENDBRANCH   3  16
TORSDOF 5
ENDMDL
