MODEL 1
REMARK VINA RESULT:      -6.4      0.000      0.000
REMARK  Name = ZINC000826139982
REMARK  4 active torsions:
REMARK  status: ('A' for Active; 'I' for Inactive)
REMARK    1  A    between atoms: C_2  and  C_4
REMARK    2  A    between atoms: C_8  and  C_10
REMARK    3  A    between atoms: C_14  and  S_15
REMARK    4  A    between atoms: S_15  and  C_16
REMARK                            x       y       z     vdW  Elec       q    Type
REMARK                         _______ _______ _______ _____ _____    ______ ____
ROOT
ATOM      1  C   UNL     1      36.512  26.127  10.432  0.00  0.00    +0.093 C 
ATOM      2  C   UNL     1      36.885  25.402   9.134  0.00  0.00    +0.033 C 
ATOM      3  C   UNL     1      35.588  24.788   8.627  0.00  0.00    +0.109 C 
ATOM      4  N   UNL     1      34.799  24.583   9.824  0.00  0.00    -0.297 N 
ATOM      5  C   UNL     1      33.815  23.605   9.888  0.00  0.00    +0.247 C 
ATOM      6  O   UNL     1      33.630  22.818   8.960  0.00  0.00    -0.270 OA
ATOM      7  C   UNL     1      35.122  25.618  10.793  0.00  0.00    +0.120 C 
ENDROOT
BRANCH   5   8
ATOM      8  C   UNL     1      32.987  23.424  11.126  0.00  0.00    +0.038 A 
ATOM      9  C   UNL     1      31.738  24.023  11.313  0.00  0.00    +0.013 A 
ATOM     10  C   UNL     1      31.068  23.923  12.532  0.00  0.00    +0.002 A 
ATOM     11  C   UNL     1      31.592  23.131  13.547  0.00  0.00    +0.015 A 
ATOM     12  C   UNL     1      32.771  22.409  13.336  0.00  0.00    +0.017 A 
ATOM     13  C   UNL     1      33.482  22.587  12.141  0.00  0.00    +0.028 A 
BRANCH  12  14
ATOM     14  S   UNL     1      33.396  21.302  14.584  0.00  0.00    -0.016 S 
BRANCH  14  15
ATOM     15  C   UNL     1      32.145  20.000  14.555  0.00  0.00    +0.448 C 
ATOM     16  F   UNL     1      32.609  18.781  14.918  0.00  0.00    -0.160 F 
ATOM     17  F   UNL     1      31.119  20.299  15.387  0.00  0.00    -0.160 F 
ATOM     18  F   UNL     1      31.623  19.869  13.310  0.00  0.00    -0.160 F 
ENDBRANCH  14  15
ENDBRANCH  12  14
ENDBRANCH   5   8
BRANCH   1  20
ATOM     19  N   UNL     1      36.121  28.296  11.453  0.00  0.00    -0.329 N 
ATOM     20  C   UNL     1      36.559  27.641  10.341  0.00  0.00    +0.215 C 
ATOM     21  O   UNL     1      36.895  28.269   9.348  0.00  0.00    -0.276 OA
ATOM     22  H   UNL     1      36.071  29.307  11.409  0.00  0.00    +0.145 HD
ATOM     23  H   UNL     1      35.765  27.827  12.273  0.00  0.00    +0.145 HD
ENDBRANCH   1  20
TORSDOF 4
ENDMDL
MODEL 2
REMARK VINA RESULT:      -6.4      4.555      6.872
REMARK  Name = ZINC000826139982
REMARK  4 active torsions:
REMARK  status: ('A' for Active; 'I' for Inactive)
REMARK    1  A    between atoms: C_2  and  C_4
REMARK    2  A    between atoms: C_8  and  C_10
REMARK    3  A    between atoms: C_14  and  S_15
REMARK    4  A    between atoms: S_15  and  C_16
REMARK                            x       y       z     vdW  Elec       q    Type
REMARK                         _______ _______ _______ _____ _____    ______ ____
ROOT
ATOM      1  C   UNL     1      31.724  20.842  15.045  0.00  0.00    +0.093 C 
ATOM      2  C   UNL     1      33.039  20.390  15.690  0.00  0.00    +0.033 C 
ATOM      3  C   UNL     1      34.082  21.400  15.232  0.00  0.00    +0.109 C 
ATOM      4  N   UNL     1      33.576  21.882  13.963  0.00  0.00    -0.297 N 
ATOM      5  C   UNL     1      34.426  22.390  12.988  0.00  0.00    +0.247 C 
ATOM      6  O   UNL     1      35.649  22.374  13.130  0.00  0.00    -0.270 OA
ATOM      7  C   UNL     1      32.123  21.863  13.988  0.00  0.00    +0.120 C 
ENDROOT
BRANCH   5   8
ATOM      8  C   UNL     1      33.884  22.911  11.690  0.00  0.00    +0.038 A 
ATOM      9  C   UNL     1      32.778  23.762  11.602  0.00  0.00    +0.013 A 
ATOM     10  C   UNL     1      32.241  24.116  10.365  0.00  0.00    +0.002 A 
ATOM     11  C   UNL     1      32.870  23.709   9.194  0.00  0.00    +0.015 A 
ATOM     12  C   UNL     1      34.057  22.974   9.256  0.00  0.00    +0.017 A 
ATOM     13  C   UNL     1      34.539  22.547  10.502  0.00  0.00    +0.028 A 
BRANCH  12  14
ATOM     14  S   UNL     1      34.938  22.541   7.769  0.00  0.00    -0.016 S 
BRANCH  14  15
ATOM     15  C   UNL     1      34.264  20.902   7.427  0.00  0.00    +0.448 C 
ATOM     16  F   UNL     1      34.565  20.427   6.196  0.00  0.00    -0.160 F 
ATOM     17  F   UNL     1      34.721  19.996   8.325  0.00  0.00    -0.160 F 
ATOM     18  F   UNL     1      32.911  20.912   7.526  0.00  0.00    -0.160 F 
ENDBRANCH  14  15
ENDBRANCH  12  14
ENDBRANCH   5   8
BRANCH   1  20
ATOM     19  N   UNL     1      30.811  22.739  16.257  0.00  0.00    -0.329 N 
ATOM     20  C   UNL     1      30.706  21.400  16.023  0.00  0.00    +0.215 C 
ATOM     21  O   UNL     1      29.879  20.733  16.626  0.00  0.00    -0.276 OA
ATOM     22  H   UNL     1      30.196  23.140  16.955  0.00  0.00    +0.145 HD
ATOM     23  H   UNL     1      31.521  23.324  15.841  0.00  0.00    +0.145 HD
ENDBRANCH   1  20
TORSDOF 4
ENDMDL
MODEL 3
REMARK VINA RESULT:      -5.9      2.315      4.010
REMARK  Name = ZINC000826139982
REMARK  4 active torsions:
REMARK  status: ('A' for Active; 'I' for Inactive)
REMARK    1  A    between atoms: C_2  and  C_4
REMARK    2  A    between atoms: C_8  and  C_10
REMARK    3  A    between atoms: C_14  and  S_15
REMARK    4  A    between atoms: S_15  and  C_16
REMARK                            x       y       z     vdW  Elec       q    Type
REMARK                         _______ _______ _______ _____ _____    ______ ____
ROOT
ATOM      1  C   UNL     1      34.622  21.750   7.212  0.00  0.00    +0.093 C 
ATOM      2  C   UNL     1      35.418  22.985   6.775  0.00  0.00    +0.033 C 
ATOM      3  C   UNL     1      35.830  23.679   8.067  0.00  0.00    +0.109 C 
ATOM      4  N   UNL     1      34.805  23.298   9.017  0.00  0.00    -0.297 N 
ATOM      5  C   UNL     1      34.502  24.092  10.116  0.00  0.00    +0.247 C 
ATOM      6  O   UNL     1      35.034  25.190  10.282  0.00  0.00    -0.270 OA
ATOM      7  C   UNL     1      34.317  21.969   8.689  0.00  0.00    +0.120 C 
ENDROOT
BRANCH   5   8
ATOM      8  C   UNL     1      33.456  23.671  11.106  0.00  0.00    +0.038 A 
ATOM      9  C   UNL     1      32.112  24.042  11.013  0.00  0.00    +0.013 A 
ATOM     10  C   UNL     1      31.208  23.726  12.026  0.00  0.00    +0.002 A 
ATOM     11  C   UNL     1      31.615  22.939  13.098  0.00  0.00    +0.015 A 
ATOM     12  C   UNL     1      32.919  22.438  13.144  0.00  0.00    +0.017 A 
ATOM     13  C   UNL     1      33.844  22.835  12.167  0.00  0.00    +0.028 A 
BRANCH  12  14
ATOM     14  S   UNL     1      33.425  21.336  14.448  0.00  0.00    -0.016 S 
BRANCH  14  15
ATOM     15  C   UNL     1      32.116  20.095  14.387  0.00  0.00    +0.448 C 
ATOM     16  F   UNL     1      31.677  19.818  13.136  0.00  0.00    -0.160 F 
ATOM     17  F   UNL     1      32.533  18.926  14.929  0.00  0.00    -0.160 F 
ATOM     18  F   UNL     1      31.038  20.504  15.101  0.00  0.00    -0.160 F 
ENDBRANCH  14  15
ENDBRANCH  12  14
ENDBRANCH   5   8
BRANCH   1  20
ATOM     19  N   UNL     1      35.415  20.064   5.654  0.00  0.00    -0.329 N 
ATOM     20  C   UNL     1      35.328  20.430   6.964  0.00  0.00    +0.215 C 
ATOM     21  O   UNL     1      35.746  19.687   7.840  0.00  0.00    -0.276 OA
ATOM     22  H   UNL     1      35.817  19.157   5.449  0.00  0.00    +0.145 HD
ATOM     23  H   UNL     1      35.024  20.605   4.896  0.00  0.00    +0.145 HD
ENDBRANCH   1  20
TORSDOF 4
ENDMDL
MODEL 4
REMARK VINA RESULT:      -5.8     22.384     24.630
REMARK  Name = ZINC000826139982
REMARK  4 active torsions:
REMARK  status: ('A' for Active; 'I' for Inactive)
REMARK    1  A    between atoms: C_2  and  C_4
REMARK    2  A    between atoms: C_8  and  C_10
REMARK    3  A    between atoms: C_14  and  S_15
REMARK    4  A    between atoms: S_15  and  C_16
REMARK                            x       y       z     vdW  Elec       q    Type
REMARK                         _______ _______ _______ _____ _____    ______ ____
ROOT
ATOM      1  C   UNL     1      18.967   3.910   0.198  0.00  0.00    +0.093 C 
ATOM      2  C   UNL     1      19.195   3.039   1.439  0.00  0.00    +0.033 C 
ATOM      3  C   UNL     1      19.594   4.007   2.544  0.00  0.00    +0.109 C 
ATOM      4  N   UNL     1      20.201   5.119   1.842  0.00  0.00    -0.297 N 
ATOM      5  C   UNL     1      21.140   5.940   2.454  0.00  0.00    +0.247 C 
ATOM      6  O   UNL     1      21.554   5.706   3.589  0.00  0.00    -0.270 OA
ATOM      7  C   UNL     1      19.568   5.267   0.541  0.00  0.00    +0.120 C 
ENDROOT
BRANCH   5   8
ATOM      8  C   UNL     1      21.739   7.104   1.722  0.00  0.00    +0.038 A 
ATOM      9  C   UNL     1      23.009   7.077   1.138  0.00  0.00    +0.013 A 
ATOM     10  C   UNL     1      23.566   8.226   0.578  0.00  0.00    +0.002 A 
ATOM     11  C   UNL     1      22.815   9.393   0.499  0.00  0.00    +0.015 A 
ATOM     12  C   UNL     1      21.491   9.407   0.949  0.00  0.00    +0.017 A 
ATOM     13  C   UNL     1      20.971   8.274   1.592  0.00  0.00    +0.028 A 
BRANCH  12  14
ATOM     14  S   UNL     1      20.478  10.858   0.752  0.00  0.00    -0.016 S 
BRANCH  14  15
ATOM     15  C   UNL     1      20.114  11.267   2.472  0.00  0.00    +0.448 C 
ATOM     16  F   UNL     1      19.816  12.572   2.678  0.00  0.00    -0.160 F 
ATOM     17  F   UNL     1      19.063  10.544   2.928  0.00  0.00    -0.160 F 
ATOM     18  F   UNL     1      21.173  10.975   3.266  0.00  0.00    -0.160 F 
ENDBRANCH  14  15
ENDBRANCH  12  14
ENDBRANCH   5   8
BRANCH   1  20
ATOM     19  N   UNL     1      17.124   5.269  -0.613  0.00  0.00    -0.329 N 
ATOM     20  C   UNL     1      17.516   4.020  -0.231  0.00  0.00    +0.215 C 
ATOM     21  O   UNL     1      16.705   3.106  -0.194  0.00  0.00    -0.276 OA
ATOM     22  H   UNL     1      16.147   5.403  -0.841  0.00  0.00    +0.145 HD
ATOM     23  H   UNL     1      17.733   6.075  -0.594  0.00  0.00    +0.145 HD
ENDBRANCH   1  20
TORSDOF 4
ENDMDL
MODEL 5
REMARK VINA RESULT:      -5.8      2.349      3.259
REMARK  Name = ZINC000826139982
REMARK  4 active torsions:
REMARK  status: ('A' for Active; 'I' for Inactive)
REMARK    1  A    between atoms: C_2  and  C_4
REMARK    2  A    between atoms: C_8  and  C_10
REMARK    3  A    between atoms: C_14  and  S_15
REMARK    4  A    between atoms: S_15  and  C_16
REMARK                            x       y       z     vdW  Elec       q    Type
REMARK                         _______ _______ _______ _____ _____    ______ ____
ROOT
ATOM      1  C   UNL     1      34.571  24.122  10.266  0.00  0.00    +0.093 C 
ATOM      2  C   UNL     1      33.308  23.848   9.440  0.00  0.00    +0.033 C 
ATOM      3  C   UNL     1      32.149  23.981  10.419  0.00  0.00    +0.109 C 
ATOM      4  N   UNL     1      32.728  23.648  11.704  0.00  0.00    -0.297 N 
ATOM      5  C   UNL     1      31.953  23.144  12.741  0.00  0.00    +0.247 C 
ATOM      6  O   UNL     1      30.761  22.882  12.584  0.00  0.00    -0.270 OA
ATOM      7  C   UNL     1      34.123  24.056  11.721  0.00  0.00    +0.120 C 
ENDROOT
BRANCH   5   8
ATOM      8  C   UNL     1      32.564  22.831  14.075  0.00  0.00    +0.038 A 
ATOM      9  C   UNL     1      32.170  23.446  15.267  0.00  0.00    +0.013 A 
ATOM     10  C   UNL     1      32.854  23.208  16.459  0.00  0.00    +0.002 A 
ATOM     11  C   UNL     1      33.877  22.268  16.494  0.00  0.00    +0.015 A 
ATOM     12  C   UNL     1      34.198  21.537  15.347  0.00  0.00    +0.017 A 
ATOM     13  C   UNL     1      33.565  21.847  14.134  0.00  0.00    +0.028 A 
BRANCH  12  14
ATOM     14  S   UNL     1      35.427  20.249  15.402  0.00  0.00    -0.016 S 
BRANCH  14  15
ATOM     15  C   UNL     1      34.471  18.882  16.091  0.00  0.00    +0.448 C 
ATOM     16  F   UNL     1      35.029  17.664  15.896  0.00  0.00    -0.160 F 
ATOM     17  F   UNL     1      34.306  19.033  17.427  0.00  0.00    -0.160 F 
ATOM     18  F   UNL     1      33.233  18.840  15.540  0.00  0.00    -0.160 F 
ENDBRANCH  14  15
ENDBRANCH  12  14
ENDBRANCH   5   8
BRANCH   1  20
ATOM     19  N   UNL     1      35.737  26.115  11.020  0.00  0.00    -0.329 N 
ATOM     20  C   UNL     1      35.261  25.433   9.939  0.00  0.00    +0.215 C 
ATOM     21  O   UNL     1      35.351  25.914   8.820  0.00  0.00    -0.276 OA
ATOM     22  H   UNL     1      36.143  27.028  10.853  0.00  0.00    +0.145 HD
ATOM     23  H   UNL     1      35.626  25.799  11.972  0.00  0.00    +0.145 HD
ENDBRANCH   1  20
TORSDOF 4
ENDMDL
MODEL 6
REMARK VINA RESULT:      -5.8     28.225     30.220
REMARK  Name = ZINC000826139982
REMARK  4 active torsions:
REMARK  status: ('A' for Active; 'I' for Inactive)
REMARK    1  A    between atoms: C_2  and  C_4
REMARK    2  A    between atoms: C_8  and  C_10
REMARK    3  A    between atoms: C_14  and  S_15
REMARK    4  A    between atoms: S_15  and  C_16
REMARK                            x       y       z     vdW  Elec       q    Type
REMARK                         _______ _______ _______ _____ _____    ______ ____
ROOT
ATOM      1  C   UNL     1      22.487   4.397  29.315  0.00  0.00    +0.093 C 
ATOM      2  C   UNL     1      22.690   4.838  27.861  0.00  0.00    +0.033 C 
ATOM      3  C   UNL     1      21.529   5.775  27.557  0.00  0.00    +0.109 C 
ATOM      4  N   UNL     1      20.474   5.333  28.445  0.00  0.00    -0.297 N 
ATOM      5  C   UNL     1      19.134   5.545  28.144  0.00  0.00    +0.247 C 
ATOM      6  O   UNL     1      18.787   6.041  27.073  0.00  0.00    -0.270 OA
ATOM      7  C   UNL     1      21.063   4.810  29.667  0.00  0.00    +0.120 C 
ENDROOT
BRANCH   5   8
ATOM      8  C   UNL     1      18.054   5.106  29.088  0.00  0.00    +0.038 A 
ATOM      9  C   UNL     1      17.688   5.826  30.230  0.00  0.00    +0.013 A 
ATOM     10  C   UNL     1      16.765   5.310  31.139  0.00  0.00    +0.002 A 
ATOM     11  C   UNL     1      16.114   4.113  30.862  0.00  0.00    +0.015 A 
ATOM     12  C   UNL     1      16.360   3.443  29.660  0.00  0.00    +0.017 A 
ATOM     13  C   UNL     1      17.355   3.923  28.795  0.00  0.00    +0.028 A 
BRANCH  12  14
ATOM     14  S   UNL     1      15.453   1.970  29.237  0.00  0.00    -0.016 S 
BRANCH  14  15
ATOM     15  C   UNL     1      14.422   2.570  27.882  0.00  0.00    +0.448 C 
ATOM     16  F   UNL     1      15.069   2.664  26.696  0.00  0.00    -0.160 F 
ATOM     17  F   UNL     1      13.357   1.755  27.689  0.00  0.00    -0.160 F 
ATOM     18  F   UNL     1      13.934   3.803  28.164  0.00  0.00    -0.160 F 
ENDBRANCH  14  15
ENDBRANCH  12  14
ENDBRANCH   5   8
BRANCH   1  20
ATOM     19  N   UNL     1      24.515   5.674  29.714  0.00  0.00    -0.329 N 
ATOM     20  C   UNL     1      23.503   4.964  30.290  0.00  0.00    +0.215 C 
ATOM     21  O   UNL     1      23.494   4.774  31.497  0.00  0.00    -0.276 OA
ATOM     22  H   UNL     1      25.252   6.011  30.321  0.00  0.00    +0.145 HD
ATOM     23  H   UNL     1      24.611   5.801  28.717  0.00  0.00    +0.145 HD
ENDBRANCH   1  20
TORSDOF 4
ENDMDL
MODEL 7
REMARK VINA RESULT:      -5.8      5.785      7.857
REMARK  Name = ZINC000826139982
REMARK  4 active torsions:
REMARK  status: ('A' for Active; 'I' for Inactive)
REMARK    1  A    between atoms: C_2  and  C_4
REMARK    2  A    between atoms: C_8  and  C_10
REMARK    3  A    between atoms: C_14  and  S_15
REMARK    4  A    between atoms: S_15  and  C_16
REMARK                            x       y       z     vdW  Elec       q    Type
REMARK                         _______ _______ _______ _____ _____    ______ ____
ROOT
ATOM      1  C   UNL     1      32.426  20.657  15.975  0.00  0.00    +0.093 C 
ATOM      2  C   UNL     1      33.342  21.849  15.675  0.00  0.00    +0.033 C 
ATOM      3  C   UNL     1      34.100  21.468  14.410  0.00  0.00    +0.109 C 
ATOM      4  N   UNL     1      34.136  20.021  14.439  0.00  0.00    -0.297 N 
ATOM      5  C   UNL     1      35.138  19.305  13.795  0.00  0.00    +0.247 C 
ATOM      6  O   UNL     1      36.080  19.874  13.245  0.00  0.00    -0.270 OA
ATOM      7  C   UNL     1      32.935  19.524  15.093  0.00  0.00    +0.120 C 
ENDROOT
BRANCH   5   8
ATOM      8  C   UNL     1      35.145  17.805  13.812  0.00  0.00    +0.038 A 
ATOM      9  C   UNL     1      35.658  17.048  14.869  0.00  0.00    +0.013 A 
ATOM     10  C   UNL     1      35.753  15.660  14.779  0.00  0.00    +0.002 A 
ATOM     11  C   UNL     1      35.236  15.001  13.669  0.00  0.00    +0.015 A 
ATOM     12  C   UNL     1      34.592  15.724  12.661  0.00  0.00    +0.017 A 
ATOM     13  C   UNL     1      34.582  17.125  12.719  0.00  0.00    +0.028 A 
BRANCH  12  14
ATOM     14  S   UNL     1      33.824  14.887  11.289  0.00  0.00    -0.016 S 
BRANCH  14  15
ATOM     15  C   UNL     1      32.289  14.312  12.044  0.00  0.00    +0.448 C 
ATOM     16  F   UNL     1      31.261  14.179  11.173  0.00  0.00    -0.160 F 
ATOM     17  F   UNL     1      32.465  13.108  12.638  0.00  0.00    -0.160 F 
ATOM     18  F   UNL     1      31.879  15.175  13.007  0.00  0.00    -0.160 F 
ENDBRANCH  14  15
ENDBRANCH  12  14
ENDBRANCH   5   8
BRANCH   1  20
ATOM     19  N   UNL     1      30.649  21.538  14.571  0.00  0.00    -0.329 N 
ATOM     20  C   UNL     1      30.950  20.932  15.755  0.00  0.00    +0.215 C 
ATOM     21  O   UNL     1      30.069  20.705  16.571  0.00  0.00    -0.276 OA
ATOM     22  H   UNL     1      29.684  21.802  14.415  0.00  0.00    +0.145 HD
ATOM     23  H   UNL     1      31.344  21.813  13.893  0.00  0.00    +0.145 HD
ENDBRANCH   1  20
TORSDOF 4
ENDMDL
MODEL 8
REMARK VINA RESULT:      -5.7     28.948     31.084
REMARK  Name = ZINC000826139982
REMARK  4 active torsions:
REMARK  status: ('A' for Active; 'I' for Inactive)
REMARK    1  A    between atoms: C_2  and  C_4
REMARK    2  A    between atoms: C_8  and  C_10
REMARK    3  A    between atoms: C_14  and  S_15
REMARK    4  A    between atoms: S_15  and  C_16
REMARK                            x       y       z     vdW  Elec       q    Type
REMARK                         _______ _______ _______ _____ _____    ______ ____
ROOT
ATOM      1  C   UNL     1      14.678   6.024  30.414  0.00  0.00    +0.093 C 
ATOM      2  C   UNL     1      13.712   4.973  29.853  0.00  0.00    +0.033 C 
ATOM      3  C   UNL     1      14.569   3.745  29.573  0.00  0.00    +0.109 C 
ATOM      4  N   UNL     1      15.890   4.283  29.324  0.00  0.00    -0.297 N 
ATOM      5  C   UNL     1      16.815   3.603  28.541  0.00  0.00    +0.247 C 
ATOM      6  O   UNL     1      16.522   2.558  27.961  0.00  0.00    -0.270 OA
ATOM      7  C   UNL     1      16.073   5.491  30.112  0.00  0.00    +0.120 C 
ENDROOT
BRANCH   5   8
ATOM      8  C   UNL     1      18.190   4.161  28.315  0.00  0.00    +0.038 A 
ATOM      9  C   UNL     1      18.448   5.272  27.508  0.00  0.00    +0.013 A 
ATOM     10  C   UNL     1      19.755   5.673  27.233  0.00  0.00    +0.002 A 
ATOM     11  C   UNL     1      20.821   5.028  27.850  0.00  0.00    +0.015 A 
ATOM     12  C   UNL     1      20.583   4.003  28.770  0.00  0.00    +0.017 A 
ATOM     13  C   UNL     1      19.272   3.549  28.971  0.00  0.00    +0.028 A 
BRANCH  12  14
ATOM     14  S   UNL     1      21.930   3.244  29.655  0.00  0.00    -0.016 S 
BRANCH  14  15
ATOM     15  C   UNL     1      22.357   4.548  30.828  0.00  0.00    +0.448 C 
ATOM     16  F   UNL     1      22.716   4.093  32.052  0.00  0.00    -0.160 F 
ATOM     17  F   UNL     1      23.388   5.295  30.365  0.00  0.00    -0.160 F 
ATOM     18  F   UNL     1      21.308   5.386  31.012  0.00  0.00    -0.160 F 
ENDBRANCH  14  15
ENDBRANCH  12  14
ENDBRANCH   5   8
BRANCH   1  20
ATOM     19  N   UNL     1      14.137   7.612  32.170  0.00  0.00    -0.329 N 
ATOM     20  C   UNL     1      14.488   6.325  31.889  0.00  0.00    +0.215 C 
ATOM     21  O   UNL     1      14.685   5.529  32.794  0.00  0.00    -0.276 OA
ATOM     22  H   UNL     1      14.068   7.874  33.146  0.00  0.00    +0.145 HD
ATOM     23  H   UNL     1      14.032   8.328  31.466  0.00  0.00    +0.145 HD
ENDBRANCH   1  20
TORSDOF 4
ENDMDL
MODEL 9
REMARK VINA RESULT:      -5.6      3.013      4.252
REMARK  Name = ZINC000826139982
REMARK  4 active torsions:
REMARK  status: ('A' for Active; 'I' for Inactive)
REMARK    1  A    between atoms: C_2  and  C_4
REMARK    2  A    between atoms: C_8  and  C_10
REMARK    3  A    between atoms: C_14  and  S_15
REMARK    4  A    between atoms: S_15  and  C_16
REMARK                            x       y       z     vdW  Elec       q    Type
REMARK                         _______ _______ _______ _____ _____    ______ ____
ROOT
ATOM      1  C   UNL     1      34.356  23.162   9.983  0.00  0.00    +0.093 C 
ATOM      2  C   UNL     1      33.076  23.640   9.289  0.00  0.00    +0.033 C 
ATOM      3  C   UNL     1      32.147  24.081  10.412  0.00  0.00    +0.109 C 
ATOM      4  N   UNL     1      32.562  23.286  11.549  0.00  0.00    -0.297 N 
ATOM      5  C   UNL     1      31.686  22.987  12.586  0.00  0.00    +0.247 C 
ATOM      6  O   UNL     1      30.501  23.316  12.540  0.00  0.00    -0.270 OA
ATOM      7  C   UNL     1      33.989  23.022  11.455  0.00  0.00    +0.120 C 
ENDROOT
BRANCH   5   8
ATOM      8  C   UNL     1      32.139  22.186  13.770  0.00  0.00    +0.038 A 
ATOM      9  C   UNL     1      31.651  20.910  14.070  0.00  0.00    +0.013 A 
ATOM     10  C   UNL     1      32.014  20.262  15.250  0.00  0.00    +0.002 A 
ATOM     11  C   UNL     1      32.955  20.837  16.096  0.00  0.00    +0.015 A 
ATOM     12  C   UNL     1      33.562  22.048  15.749  0.00  0.00    +0.017 A 
ATOM     13  C   UNL     1      33.125  22.734  14.607  0.00  0.00    +0.028 A 
BRANCH  12  14
ATOM     14  S   UNL     1      34.851  22.743  16.762  0.00  0.00    -0.016 S 
BRANCH  14  15
ATOM     15  C   UNL     1      33.964  24.080  17.589  0.00  0.00    +0.448 C 
ATOM     16  F   UNL     1      32.637  23.856  17.732  0.00  0.00    -0.160 F 
ATOM     17  F   UNL     1      34.466  24.298  18.829  0.00  0.00    -0.160 F 
ATOM     18  F   UNL     1      34.096  25.239  16.897  0.00  0.00    -0.160 F 
ENDBRANCH  14  15
ENDBRANCH  12  14
ENDBRANCH   5   8
BRANCH   1  20
ATOM     19  N   UNL     1      35.312  25.395   9.974  0.00  0.00    -0.329 N 
ATOM     20  C   UNL     1      35.556  24.068   9.778  0.00  0.00    +0.215 C 
ATOM     21  O   UNL     1      36.657  23.693   9.405  0.00  0.00    -0.276 OA
ATOM     22  H   UNL     1      36.067  26.041   9.780  0.00  0.00    +0.145 HD
ATOM     23  H   UNL     1      34.404  25.766  10.213  0.00  0.00    +0.145 HD
ENDBRANCH   1  20
TORSDOF 4
ENDMDL
