MODEL 1
REMARK VINA RESULT:      -6.3      0.000      0.000
REMARK  Name = ZINC000583127796
REMARK  2 active torsions:
REMARK  status: ('A' for Active; 'I' for Inactive)
REMARK    1  A    between atoms: C_2  and  C_4
REMARK    2  A    between atoms: C_7  and  C_8
REMARK                            x       y       z     vdW  Elec       q    Type
REMARK                         _______ _______ _______ _____ _____    ______ ____
ROOT
ATOM      1  C   UNL     1      32.753  23.650  14.596  0.00  0.00    +0.247 C 
ATOM      2  O   UNL     1      33.755  22.943  14.512  0.00  0.00    -0.270 OA
ATOM      3  N   UNL     1      32.559  24.788  13.796  0.00  0.00    -0.297 N 
ATOM      4  C   UNL     1      31.398  25.682  13.820  0.00  0.00    +0.108 C 
ATOM      5  C   UNL     1      30.764  25.844  12.451  0.00  0.00    +0.020 C 
ATOM      6  C   UNL     1      31.795  26.208  11.398  0.00  0.00    +0.011 C 
ATOM      7  C   UNL     1      33.003  25.240  11.378  0.00  0.00    -0.004 C 
ATOM      8  C   UNL     1      34.018  25.808  10.362  0.00  0.00    +0.020 C 
ATOM      9  C   UNL     1      34.906  24.695   9.848  0.00  0.00    +0.070 C 
ATOM     10  S   UNL     1      33.783  23.307   9.620  0.00  0.00    -0.160 S 
ATOM     11  C   UNL     1      32.590  23.836  10.881  0.00  0.00    +0.077 C 
ATOM     12  C   UNL     1      33.593  25.149  12.812  0.00  0.00    +0.115 C 
ENDROOT
BRANCH   1  16
ATOM     13  C   UNL     1      29.412  22.557  17.034  0.00  0.00    +0.037 A 
ATOM     14  C   UNL     1      30.390  23.408  17.559  0.00  0.00    +0.014 A 
ATOM     15  C   UNL     1      31.544  23.682  16.819  0.00  0.00    +0.014 A 
ATOM     16  C   UNL     1      31.675  23.191  15.516  0.00  0.00    +0.037 A 
ATOM     17  C   UNL     1      30.746  22.258  15.035  0.00  0.00    +0.014 A 
ATOM     18  C   UNL     1      29.621  21.933  15.799  0.00  0.00    +0.014 A 
BRANCH  13  20
ATOM     19  N   UNL     1      27.869  23.109  18.831  0.00  0.00    -0.325 N 
ATOM     20  C   UNL     1      28.142  22.302  17.762  0.00  0.00    +0.242 C 
ATOM     21  O   UNL     1      27.355  21.445  17.390  0.00  0.00    -0.270 OA
ATOM     22  H   UNL     1      26.945  23.008  19.235  0.00  0.00    +0.145 HD
ATOM     23  H   UNL     1      28.351  23.984  18.982  0.00  0.00    +0.145 HD
ENDBRANCH  13  20
ENDBRANCH   1  16
TORSDOF 2
ENDMDL
MODEL 2
REMARK VINA RESULT:      -6.0      2.883      4.747
REMARK  Name = ZINC000583127796
REMARK  2 active torsions:
REMARK  status: ('A' for Active; 'I' for Inactive)
REMARK    1  A    between atoms: C_2  and  C_4
REMARK    2  A    between atoms: C_7  and  C_8
REMARK                            x       y       z     vdW  Elec       q    Type
REMARK                         _______ _______ _______ _____ _____    ______ ____
ROOT
ATOM      1  C   UNL     1      33.607  25.114  10.353  0.00  0.00    +0.247 C 
ATOM      2  O   UNL     1      34.176  26.202  10.282  0.00  0.00    -0.270 OA
ATOM      3  N   UNL     1      33.770  24.109   9.385  0.00  0.00    -0.297 N 
ATOM      4  C   UNL     1      33.141  22.785   9.390  0.00  0.00    +0.108 C 
ATOM      5  C   UNL     1      34.156  21.662   9.277  0.00  0.00    +0.020 C 
ATOM      6  C   UNL     1      35.107  21.884   8.115  0.00  0.00    +0.011 C 
ATOM      7  C   UNL     1      35.773  23.282   8.139  0.00  0.00    -0.004 C 
ATOM      8  C   UNL     1      36.599  23.410   6.840  0.00  0.00    +0.020 C 
ATOM      9  C   UNL     1      37.704  24.425   7.033  0.00  0.00    +0.070 C 
ATOM     10  S   UNL     1      38.314  24.099   8.695  0.00  0.00    -0.160 S 
ATOM     11  C   UNL     1      36.756  23.415   9.325  0.00  0.00    +0.077 C 
ATOM     12  C   UNL     1      34.662  24.362   8.241  0.00  0.00    +0.115 C 
ENDROOT
BRANCH   1  16
ATOM     13  C   UNL     1      31.199  24.009  13.711  0.00  0.00    +0.037 A 
ATOM     14  C   UNL     1      30.761  25.032  12.864  0.00  0.00    +0.014 A 
ATOM     15  C   UNL     1      31.587  25.484  11.832  0.00  0.00    +0.014 A 
ATOM     16  C   UNL     1      32.806  24.847  11.580  0.00  0.00    +0.037 A 
ATOM     17  C   UNL     1      33.288  23.896  12.491  0.00  0.00    +0.014 A 
ATOM     18  C   UNL     1      32.489  23.487  13.562  0.00  0.00    +0.014 A 
BRANCH  13  20
ATOM     19  N   UNL     1      30.031  24.279  15.826  0.00  0.00    -0.325 N 
ATOM     20  C   UNL     1      30.318  23.458  14.773  0.00  0.00    +0.242 C 
ATOM     21  O   UNL     1      29.831  22.341  14.681  0.00  0.00    -0.270 OA
ATOM     22  H   UNL     1      29.329  23.937  16.473  0.00  0.00    +0.145 HD
ATOM     23  H   UNL     1      30.184  25.277  15.789  0.00  0.00    +0.145 HD
ENDBRANCH  13  20
ENDBRANCH   1  16
TORSDOF 2
ENDMDL
MODEL 3
REMARK VINA RESULT:      -6.0      2.978      3.540
REMARK  Name = ZINC000583127796
REMARK  2 active torsions:
REMARK  status: ('A' for Active; 'I' for Inactive)
REMARK    1  A    between atoms: C_2  and  C_4
REMARK    2  A    between atoms: C_7  and  C_8
REMARK                            x       y       z     vdW  Elec       q    Type
REMARK                         _______ _______ _______ _____ _____    ______ ____
ROOT
ATOM      1  C   UNL     1      33.654  23.998  14.874  0.00  0.00    +0.247 C 
ATOM      2  O   UNL     1      34.831  24.323  15.022  0.00  0.00    -0.270 OA
ATOM      3  N   UNL     1      32.664  24.903  14.458  0.00  0.00    -0.297 N 
ATOM      4  C   UNL     1      31.244  24.605  14.248  0.00  0.00    +0.108 C 
ATOM      5  C   UNL     1      30.770  24.998  12.861  0.00  0.00    +0.020 C 
ATOM      6  C   UNL     1      31.151  26.429  12.526  0.00  0.00    +0.011 C 
ATOM      7  C   UNL     1      32.658  26.717  12.737  0.00  0.00    -0.004 C 
ATOM      8  C   UNL     1      32.868  28.226  12.488  0.00  0.00    +0.020 C 
ATOM      9  C   UNL     1      34.307  28.486  12.098  0.00  0.00    +0.070 C 
ATOM     10  S   UNL     1      34.715  27.123  10.996  0.00  0.00    -0.160 S 
ATOM     11  C   UNL     1      33.525  25.954  11.709  0.00  0.00    +0.077 C 
ATOM     12  C   UNL     1      33.047  26.297  14.182  0.00  0.00    +0.115 C 
ENDROOT
BRANCH   1  16
ATOM     13  C   UNL     1      32.365  19.932  15.191  0.00  0.00    +0.037 A 
ATOM     14  C   UNL     1      32.387  20.732  16.338  0.00  0.00    +0.014 A 
ATOM     15  C   UNL     1      32.914  22.025  16.275  0.00  0.00    +0.014 A 
ATOM     16  C   UNL     1      33.323  22.556  15.048  0.00  0.00    +0.037 A 
ATOM     17  C   UNL     1      33.397  21.720  13.925  0.00  0.00    +0.014 A 
ATOM     18  C   UNL     1      32.929  20.405  14.001  0.00  0.00    +0.014 A 
BRANCH  13  20
ATOM     19  N   UNL     1      31.742  17.889  14.028  0.00  0.00    -0.325 N 
ATOM     20  C   UNL     1      31.748  18.580  15.207  0.00  0.00    +0.242 C 
ATOM     21  O   UNL     1      31.315  18.089  16.238  0.00  0.00    -0.270 OA
ATOM     22  H   UNL     1      31.437  16.924  14.083  0.00  0.00    +0.145 HD
ATOM     23  H   UNL     1      32.331  18.147  13.249  0.00  0.00    +0.145 HD
ENDBRANCH  13  20
ENDBRANCH   1  16
TORSDOF 2
ENDMDL
MODEL 4
REMARK VINA RESULT:      -5.9      5.897      8.718
REMARK  Name = ZINC000583127796
REMARK  2 active torsions:
REMARK  status: ('A' for Active; 'I' for Inactive)
REMARK    1  A    between atoms: C_2  and  C_4
REMARK    2  A    between atoms: C_7  and  C_8
REMARK                            x       y       z     vdW  Elec       q    Type
REMARK                         _______ _______ _______ _____ _____    ______ ____
ROOT
ATOM      1  C   UNL     1      33.632  24.227  20.086  0.00  0.00    +0.247 C 
ATOM      2  O   UNL     1      34.586  24.920  19.738  0.00  0.00    -0.270 OA
ATOM      3  N   UNL     1      33.423  23.837  21.419  0.00  0.00    -0.297 N 
ATOM      4  C   UNL     1      32.316  23.021  21.924  0.00  0.00    +0.108 C 
ATOM      5  C   UNL     1      31.568  23.700  23.058  0.00  0.00    +0.020 C 
ATOM      6  C   UNL     1      32.516  24.183  24.140  0.00  0.00    +0.011 C 
ATOM      7  C   UNL     1      33.668  25.058  23.587  0.00  0.00    -0.004 C 
ATOM      8  C   UNL     1      34.614  25.360  24.769  0.00  0.00    +0.020 C 
ATOM      9  C   UNL     1      35.395  26.626  24.491  0.00  0.00    +0.070 C 
ATOM     10  S   UNL     1      34.188  27.729  23.740  0.00  0.00    -0.160 S 
ATOM     11  C   UNL     1      33.142  26.412  23.059  0.00  0.00    +0.077 C 
ATOM     12  C   UNL     1      34.381  24.279  22.446  0.00  0.00    +0.115 C 
ENDROOT
BRANCH   1  16
ATOM     13  C   UNL     1      30.506  23.129  17.380  0.00  0.00    +0.037 A 
ATOM     14  C   UNL     1      31.696  22.394  17.381  0.00  0.00    +0.014 A 
ATOM     15  C   UNL     1      32.769  22.809  18.174  0.00  0.00    +0.014 A 
ATOM     16  C   UNL     1      32.621  23.895  19.043  0.00  0.00    +0.037 A 
ATOM     17  C   UNL     1      31.468  24.689  18.963  0.00  0.00    +0.014 A 
ATOM     18  C   UNL     1      30.417  24.312  18.122  0.00  0.00    +0.014 A 
BRANCH  13  20
ATOM     19  N   UNL     1      28.106  22.770  17.219  0.00  0.00    -0.325 N 
ATOM     20  C   UNL     1      29.323  22.677  16.603  0.00  0.00    +0.242 C 
ATOM     21  O   UNL     1      29.427  22.290  15.449  0.00  0.00    -0.270 OA
ATOM     22  H   UNL     1      27.300  22.581  16.634  0.00  0.00    +0.145 HD
ATOM     23  H   UNL     1      27.961  23.335  18.043  0.00  0.00    +0.145 HD
ENDBRANCH  13  20
ENDBRANCH   1  16
TORSDOF 2
ENDMDL
MODEL 5
REMARK VINA RESULT:      -5.9      4.271      6.917
REMARK  Name = ZINC000583127796
REMARK  2 active torsions:
REMARK  status: ('A' for Active; 'I' for Inactive)
REMARK    1  A    between atoms: C_2  and  C_4
REMARK    2  A    between atoms: C_7  and  C_8
REMARK                            x       y       z     vdW  Elec       q    Type
REMARK                         _______ _______ _______ _____ _____    ______ ____
ROOT
ATOM      1  C   UNL     1      33.888  21.938  15.143  0.00  0.00    +0.247 C 
ATOM      2  O   UNL     1      34.862  22.473  15.670  0.00  0.00    -0.270 OA
ATOM      3  N   UNL     1      33.593  20.574  15.302  0.00  0.00    -0.297 N 
ATOM      4  C   UNL     1      32.455  19.856  14.720  0.00  0.00    +0.108 C 
ATOM      5  C   UNL     1      31.635  19.127  15.769  0.00  0.00    +0.020 C 
ATOM      6  C   UNL     1      32.509  18.267  16.663  0.00  0.00    +0.011 C 
ATOM      7  C   UNL     1      33.694  19.050  17.281  0.00  0.00    -0.004 C 
ATOM      8  C   UNL     1      34.559  18.027  18.048  0.00  0.00    +0.020 C 
ATOM      9  C   UNL     1      35.355  18.733  19.124  0.00  0.00    +0.070 C 
ATOM     10  S   UNL     1      34.199  19.929  19.812  0.00  0.00    -0.160 S 
ATOM     11  C   UNL     1      33.201  20.098  18.306  0.00  0.00    +0.077 C 
ATOM     12  C   UNL     1      34.480  19.749  16.137  0.00  0.00    +0.115 C 
ENDROOT
BRANCH   1  16
ATOM     13  C   UNL     1      31.451  24.770  13.059  0.00  0.00    +0.037 A 
ATOM     14  C   UNL     1      31.078  24.365  14.344  0.00  0.00    +0.014 A 
ATOM     15  C   UNL     1      31.796  23.356  14.993  0.00  0.00    +0.014 A 
ATOM     16  C   UNL     1      32.947  22.825  14.402  0.00  0.00    +0.037 A 
ATOM     17  C   UNL     1      33.257  23.156  13.076  0.00  0.00    +0.014 A 
ATOM     18  C   UNL     1      32.501  24.119  12.401  0.00  0.00    +0.014 A 
BRANCH  13  20
ATOM     19  N   UNL     1      29.669  26.424  13.006  0.00  0.00    -0.325 N 
ATOM     20  C   UNL     1      30.754  25.886  12.370  0.00  0.00    +0.242 C 
ATOM     21  O   UNL     1      31.163  26.337  11.311  0.00  0.00    -0.270 OA
ATOM     22  H   UNL     1      29.285  27.264  12.589  0.00  0.00    +0.145 HD
ATOM     23  H   UNL     1      29.486  26.264  13.986  0.00  0.00    +0.145 HD
ENDBRANCH  13  20
ENDBRANCH   1  16
TORSDOF 2
ENDMDL
MODEL 6
REMARK VINA RESULT:      -5.8      2.966      3.690
REMARK  Name = ZINC000583127796
REMARK  2 active torsions:
REMARK  status: ('A' for Active; 'I' for Inactive)
REMARK    1  A    between atoms: C_2  and  C_4
REMARK    2  A    between atoms: C_7  and  C_8
REMARK                            x       y       z     vdW  Elec       q    Type
REMARK                         _______ _______ _______ _____ _____    ______ ____
ROOT
ATOM      1  C   UNL     1      32.862  24.150  14.692  0.00  0.00    +0.247 C 
ATOM      2  O   UNL     1      33.724  24.463  15.511  0.00  0.00    -0.270 OA
ATOM      3  N   UNL     1      32.319  25.064  13.775  0.00  0.00    -0.297 N 
ATOM      4  C   UNL     1      31.298  24.780  12.763  0.00  0.00    +0.108 C 
ATOM      5  C   UNL     1      31.742  25.175  11.366  0.00  0.00    +0.020 C 
ATOM      6  C   UNL     1      32.261  26.601  11.328  0.00  0.00    +0.011 C 
ATOM      7  C   UNL     1      33.352  26.874  12.393  0.00  0.00    -0.004 C 
ATOM      8  C   UNL     1      33.683  28.380  12.323  0.00  0.00    +0.020 C 
ATOM      9  C   UNL     1      35.076  28.625  12.863  0.00  0.00    +0.070 C 
ATOM     10  S   UNL     1      36.045  27.256  12.212  0.00  0.00    -0.160 S 
ATOM     11  C   UNL     1      34.653  26.100  12.076  0.00  0.00    +0.077 C 
ATOM     12  C   UNL     1      32.805  26.454  13.785  0.00  0.00    +0.115 C 
ENDROOT
BRANCH   1  16
ATOM     13  C   UNL     1      31.918  19.981  14.869  0.00  0.00    +0.037 A 
ATOM     14  C   UNL     1      32.938  20.415  14.014  0.00  0.00    +0.014 A 
ATOM     15  C   UNL     1      33.180  21.782  13.858  0.00  0.00    +0.014 A 
ATOM     16  C   UNL     1      32.478  22.712  14.630  0.00  0.00    +0.037 A 
ATOM     17  C   UNL     1      31.390  22.283  15.405  0.00  0.00    +0.014 A 
ATOM     18  C   UNL     1      31.104  20.920  15.514  0.00  0.00    +0.014 A 
BRANCH  13  20
ATOM     19  N   UNL     1      31.748  17.706  14.028  0.00  0.00    -0.325 N 
ATOM     20  C   UNL     1      31.681  18.535  15.112  0.00  0.00    +0.242 C 
ATOM     21  O   UNL     1      31.487  18.101  16.238  0.00  0.00    -0.270 OA
ATOM     22  H   UNL     1      31.712  16.713  14.229  0.00  0.00    +0.145 HD
ATOM     23  H   UNL     1      32.175  17.991  13.158  0.00  0.00    +0.145 HD
ENDBRANCH  13  20
ENDBRANCH   1  16
TORSDOF 2
ENDMDL
MODEL 7
REMARK VINA RESULT:      -5.8      5.036      5.861
REMARK  Name = ZINC000583127796
REMARK  2 active torsions:
REMARK  status: ('A' for Active; 'I' for Inactive)
REMARK    1  A    between atoms: C_2  and  C_4
REMARK    2  A    between atoms: C_7  and  C_8
REMARK                            x       y       z     vdW  Elec       q    Type
REMARK                         _______ _______ _______ _____ _____    ______ ____
ROOT
ATOM      1  C   UNL     1      34.174  19.831  15.764  0.00  0.00    +0.247 C 
ATOM      2  O   UNL     1      34.874  19.335  16.645  0.00  0.00    -0.270 OA
ATOM      3  N   UNL     1      34.417  19.625  14.396  0.00  0.00    -0.297 N 
ATOM      4  C   UNL     1      33.636  20.168  13.282  0.00  0.00    +0.108 C 
ATOM      5  C   UNL     1      33.152  19.085  12.333  0.00  0.00    +0.020 C 
ATOM      6  C   UNL     1      34.287  18.176  11.900  0.00  0.00    +0.011 C 
ATOM      7  C   UNL     1      35.088  17.600  13.093  0.00  0.00    -0.004 C 
ATOM      8  C   UNL     1      36.276  16.812  12.500  0.00  0.00    +0.020 C 
ATOM      9  C   UNL     1      36.747  15.770  13.492  0.00  0.00    +0.070 C 
ATOM     10  S   UNL     1      35.224  15.105  14.184  0.00  0.00    -0.160 S 
ATOM     11  C   UNL     1      34.236  16.603  13.912  0.00  0.00    +0.077 C 
ATOM     12  C   UNL     1      35.551  18.776  13.997  0.00  0.00    +0.115 C 
ENDROOT
BRANCH   1  16
ATOM     13  C   UNL     1      30.594  21.997  16.652  0.00  0.00    +0.037 A 
ATOM     14  C   UNL     1      31.821  22.667  16.679  0.00  0.00    +0.014 A 
ATOM     15  C   UNL     1      33.009  21.952  16.506  0.00  0.00    +0.014 A 
ATOM     16  C   UNL     1      32.968  20.587  16.203  0.00  0.00    +0.037 A 
ATOM     17  C   UNL     1      31.748  19.901  16.280  0.00  0.00    +0.014 A 
ATOM     18  C   UNL     1      30.564  20.604  16.516  0.00  0.00    +0.014 A 
BRANCH  13  20
ATOM     19  N   UNL     1      29.347  24.081  16.519  0.00  0.00    -0.325 N 
ATOM     20  C   UNL     1      29.310  22.736  16.762  0.00  0.00    +0.242 C 
ATOM     21  O   UNL     1      28.261  22.160  17.005  0.00  0.00    -0.270 OA
ATOM     22  H   UNL     1      28.448  24.546  16.471  0.00  0.00    +0.145 HD
ATOM     23  H   UNL     1      30.126  24.522  16.050  0.00  0.00    +0.145 HD
ENDBRANCH  13  20
ENDBRANCH   1  16
TORSDOF 2
ENDMDL
MODEL 8
REMARK VINA RESULT:      -5.8      5.313      7.371
REMARK  Name = ZINC000583127796
REMARK  2 active torsions:
REMARK  status: ('A' for Active; 'I' for Inactive)
REMARK    1  A    between atoms: C_2  and  C_4
REMARK    2  A    between atoms: C_7  and  C_8
REMARK                            x       y       z     vdW  Elec       q    Type
REMARK                         _______ _______ _______ _____ _____    ______ ____
ROOT
ATOM      1  C   UNL     1      34.739  23.759   8.280  0.00  0.00    +0.247 C 
ATOM      2  O   UNL     1      34.926  24.400   7.247  0.00  0.00    -0.270 OA
ATOM      3  N   UNL     1      35.094  22.406   8.408  0.00  0.00    -0.297 N 
ATOM      4  C   UNL     1      34.916  21.568   9.597  0.00  0.00    +0.108 C 
ATOM      5  C   UNL     1      36.212  20.913  10.042  0.00  0.00    +0.020 C 
ATOM      6  C   UNL     1      36.902  20.205   8.891  0.00  0.00    +0.011 C 
ATOM      7  C   UNL     1      37.096  21.113   7.652  0.00  0.00    -0.004 C 
ATOM      8  C   UNL     1      37.681  20.228   6.530  0.00  0.00    +0.020 C 
ATOM      9  C   UNL     1      38.428  21.090   5.534  0.00  0.00    +0.070 C 
ATOM     10  S   UNL     1      39.299  22.287   6.557  0.00  0.00    -0.160 S 
ATOM     11  C   UNL     1      38.119  22.238   7.934  0.00  0.00    +0.077 C 
ATOM     12  C   UNL     1      35.721  21.726   7.264  0.00  0.00    +0.115 C 
ENDROOT
BRANCH   1  16
ATOM     13  C   UNL     1      33.146  26.202  11.409  0.00  0.00    +0.037 A 
ATOM     14  C   UNL     1      34.525  25.978  11.354  0.00  0.00    +0.014 A 
ATOM     15  C   UNL     1      35.049  25.091  10.410  0.00  0.00    +0.014 A 
ATOM     16  C   UNL     1      34.211  24.507   9.455  0.00  0.00    +0.037 A 
ATOM     17  C   UNL     1      32.821  24.651   9.578  0.00  0.00    +0.014 A 
ATOM     18  C   UNL     1      32.290  25.489  10.562  0.00  0.00    +0.014 A 
BRANCH  13  20
ATOM     19  N   UNL     1      31.584  26.743  13.193  0.00  0.00    -0.325 N 
ATOM     20  C   UNL     1      32.564  27.192  12.353  0.00  0.00    +0.242 C 
ATOM     21  O   UNL     1      32.979  28.339  12.410  0.00  0.00    -0.270 OA
ATOM     22  H   UNL     1      31.290  27.391  13.914  0.00  0.00    +0.145 HD
ATOM     23  H   UNL     1      31.426  25.759  13.359  0.00  0.00    +0.145 HD
ENDBRANCH  13  20
ENDBRANCH   1  16
TORSDOF 2
ENDMDL
MODEL 9
REMARK VINA RESULT:      -5.7      4.953      8.669
REMARK  Name = ZINC000583127796
REMARK  2 active torsions:
REMARK  status: ('A' for Active; 'I' for Inactive)
REMARK    1  A    between atoms: C_2  and  C_4
REMARK    2  A    between atoms: C_7  and  C_8
REMARK                            x       y       z     vdW  Elec       q    Type
REMARK                         _______ _______ _______ _____ _____    ______ ____
ROOT
ATOM      1  C   UNL     1      33.911  24.379   9.038  0.00  0.00    +0.247 C 
ATOM      2  O   UNL     1      32.759  24.209   8.642  0.00  0.00    -0.270 OA
ATOM      3  N   UNL     1      34.240  25.308  10.039  0.00  0.00    -0.297 N 
ATOM      4  C   UNL     1      35.578  25.573  10.576  0.00  0.00    +0.108 C 
ATOM      5  C   UNL     1      35.632  25.435  12.087  0.00  0.00    +0.020 C 
ATOM      6  C   UNL     1      34.533  26.237  12.759  0.00  0.00    +0.011 C 
ATOM      7  C   UNL     1      33.126  25.930  12.189  0.00  0.00    -0.004 C 
ATOM      8  C   UNL     1      32.141  26.905  12.868  0.00  0.00    +0.020 C 
ATOM      9  C   UNL     1      30.743  26.325  12.839  0.00  0.00    +0.070 C 
ATOM     10  S   UNL     1      30.986  24.578  13.201  0.00  0.00    -0.160 S 
ATOM     11  C   UNL     1      32.676  24.494  12.548  0.00  0.00    +0.077 C 
ATOM     12  C   UNL     1      33.164  26.108  10.646  0.00  0.00    +0.115 C 
ENDROOT
BRANCH   1  16
ATOM     13  C   UNL     1      36.660  21.683   7.174  0.00  0.00    +0.037 A 
ATOM     14  C   UNL     1      36.068  21.322   8.389  0.00  0.00    +0.014 A 
ATOM     15  C   UNL     1      35.260  22.237   9.068  0.00  0.00    +0.014 A 
ATOM     16  C   UNL     1      34.957  23.473   8.487  0.00  0.00    +0.037 A 
ATOM     17  C   UNL     1      35.632  23.871   7.324  0.00  0.00    +0.014 A 
ATOM     18  C   UNL     1      36.492  22.980   6.675  0.00  0.00    +0.014 A 
BRANCH  13  20
ATOM     19  N   UNL     1      38.064  21.177   5.254  0.00  0.00    -0.325 N 
ATOM     20  C   UNL     1      37.467  20.711   6.392  0.00  0.00    +0.242 C 
ATOM     21  O   UNL     1      37.632  19.564   6.777  0.00  0.00    -0.270 OA
ATOM     22  H   UNL     1      38.713  20.541   4.805  0.00  0.00    +0.145 HD
ATOM     23  H   UNL     1      38.176  22.164   5.069  0.00  0.00    +0.145 HD
ENDBRANCH  13  20
ENDBRANCH   1  16
TORSDOF 2
ENDMDL
