MODEL 1
REMARK VINA RESULT:      -6.9      0.000      0.000
REMARK  Name = ZINC000826139982
REMARK  4 active torsions:
REMARK  status: ('A' for Active; 'I' for Inactive)
REMARK    1  A    between atoms: C_2  and  C_4
REMARK    2  A    between atoms: C_8  and  C_10
REMARK    3  A    between atoms: C_14  and  S_15
REMARK    4  A    between atoms: S_15  and  C_16
REMARK                            x       y       z     vdW  Elec       q    Type
REMARK                         _______ _______ _______ _____ _____    ______ ____
ROOT
ATOM      1  C   UNL     1      32.093  14.052  12.688  0.00  0.00    +0.093 C 
ATOM      2  C   UNL     1      31.740  14.076  14.175  0.00  0.00    +0.033 C 
ATOM      3  C   UNL     1      31.787  15.564  14.489  0.00  0.00    +0.109 C 
ATOM      4  N   UNL     1      32.984  15.991  13.777  0.00  0.00    -0.297 N 
ATOM      5  C   UNL     1      33.869  17.035  14.014  0.00  0.00    +0.247 C 
ATOM      6  O   UNL     1      34.758  17.305  13.202  0.00  0.00    -0.270 OA
ATOM      7  C   UNL     1      33.109  15.195  12.553  0.00  0.00    +0.120 C 
ENDROOT
BRANCH   5   8
ATOM      8  C   UNL     1      33.774  17.890  15.236  0.00  0.00    +0.038 A 
ATOM      9  C   UNL     1      34.198  17.480  16.500  0.00  0.00    +0.013 A 
ATOM     10  C   UNL     1      34.000  18.289  17.621  0.00  0.00    +0.002 A 
ATOM     11  C   UNL     1      33.502  19.579  17.467  0.00  0.00    +0.015 A 
ATOM     12  C   UNL     1      33.238  20.078  16.189  0.00  0.00    +0.017 A 
ATOM     13  C   UNL     1      33.333  19.219  15.084  0.00  0.00    +0.028 A 
BRANCH  12  14
ATOM     14  S   UNL     1      32.767  21.779  15.952  0.00  0.00    -0.016 S 
BRANCH  14  15
ATOM     15  C   UNL     1      30.971  21.672  16.108  0.00  0.00    +0.448 C 
ATOM     16  F   UNL     1      30.535  20.531  16.694  0.00  0.00    -0.160 F 
ATOM     17  F   UNL     1      30.486  22.703  16.841  0.00  0.00    -0.160 F 
ATOM     18  F   UNL     1      30.381  21.738  14.889  0.00  0.00    -0.160 F 
ENDBRANCH  14  15
ENDBRANCH  12  14
ENDBRANCH   5   8
BRANCH   1  20
ATOM     19  N   UNL     1      29.894  13.278  11.936  0.00  0.00    -0.329 N 
ATOM     20  C   UNL     1      30.843  14.250  11.844  0.00  0.00    +0.215 C 
ATOM     21  O   UNL     1      30.638  15.235  11.141  0.00  0.00    -0.276 OA
ATOM     22  H   UNL     1      29.025  13.449  11.447  0.00  0.00    +0.145 HD
ATOM     23  H   UNL     1      29.929  12.529  12.612  0.00  0.00    +0.145 HD
ENDBRANCH   1  20
TORSDOF 4
ENDMDL
MODEL 2
REMARK VINA RESULT:      -6.8      1.242      1.418
REMARK  Name = ZINC000826139982
REMARK  4 active torsions:
REMARK  status: ('A' for Active; 'I' for Inactive)
REMARK    1  A    between atoms: C_2  and  C_4
REMARK    2  A    between atoms: C_8  and  C_10
REMARK    3  A    between atoms: C_14  and  S_15
REMARK    4  A    between atoms: S_15  and  C_16
REMARK                            x       y       z     vdW  Elec       q    Type
REMARK                         _______ _______ _______ _____ _____    ______ ____
ROOT
ATOM      1  C   UNL     1      32.111  14.092  12.591  0.00  0.00    +0.093 C 
ATOM      2  C   UNL     1      31.817  14.054  14.090  0.00  0.00    +0.033 C 
ATOM      3  C   UNL     1      31.682  15.532  14.426  0.00  0.00    +0.109 C 
ATOM      4  N   UNL     1      32.784  16.119  13.677  0.00  0.00    -0.297 N 
ATOM      5  C   UNL     1      33.534  17.267  13.897  0.00  0.00    +0.247 C 
ATOM      6  O   UNL     1      34.349  17.660  13.057  0.00  0.00    -0.270 OA
ATOM      7  C   UNL     1      32.964  15.360  12.437  0.00  0.00    +0.120 C 
ENDROOT
BRANCH   5   8
ATOM      8  C   UNL     1      33.377  18.089  15.135  0.00  0.00    +0.038 A 
ATOM      9  C   UNL     1      34.152  17.915  16.282  0.00  0.00    +0.013 A 
ATOM     10  C   UNL     1      33.897  18.653  17.439  0.00  0.00    +0.002 A 
ATOM     11  C   UNL     1      32.953  19.675  17.418  0.00  0.00    +0.015 A 
ATOM     12  C   UNL     1      32.291  19.989  16.228  0.00  0.00    +0.017 A 
ATOM     13  C   UNL     1      32.473  19.168  15.105  0.00  0.00    +0.028 A 
BRANCH  12  14
ATOM     14  S   UNL     1      31.210  21.401  16.130  0.00  0.00    -0.016 S 
BRANCH  14  15
ATOM     15  C   UNL     1      32.369  22.699  15.648  0.00  0.00    +0.448 C 
ATOM     16  F   UNL     1      33.648  22.274  15.510  0.00  0.00    -0.160 F 
ATOM     17  F   UNL     1      32.008  23.257  14.468  0.00  0.00    -0.160 F 
ATOM     18  F   UNL     1      32.384  23.693  16.571  0.00  0.00    -0.160 F 
ENDBRANCH  14  15
ENDBRANCH  12  14
ENDBRANCH   5   8
BRANCH   1  20
ATOM     19  N   UNL     1      29.977  13.073  11.956  0.00  0.00    -0.329 N 
ATOM     20  C   UNL     1      30.814  14.134  11.797  0.00  0.00    +0.215 C 
ATOM     21  O   UNL     1      30.480  15.071  11.078  0.00  0.00    -0.276 OA
ATOM     22  H   UNL     1      29.076  13.139  11.501  0.00  0.00    +0.145 HD
ATOM     23  H   UNL     1      30.117  12.352  12.649  0.00  0.00    +0.145 HD
ENDBRANCH   1  20
TORSDOF 4
ENDMDL
MODEL 3
REMARK VINA RESULT:      -6.6      4.381      6.766
REMARK  Name = ZINC000826139982
REMARK  4 active torsions:
REMARK  status: ('A' for Active; 'I' for Inactive)
REMARK    1  A    between atoms: C_2  and  C_4
REMARK    2  A    between atoms: C_8  and  C_10
REMARK    3  A    between atoms: C_14  and  S_15
REMARK    4  A    between atoms: S_15  and  C_16
REMARK                            x       y       z     vdW  Elec       q    Type
REMARK                         _______ _______ _______ _____ _____    ______ ____
ROOT
ATOM      1  C   UNL     1      32.518  21.038  16.394  0.00  0.00    +0.093 C 
ATOM      2  C   UNL     1      32.840  21.260  14.916  0.00  0.00    +0.033 C 
ATOM      3  C   UNL     1      32.489  19.909  14.309  0.00  0.00    +0.109 C 
ATOM      4  N   UNL     1      33.043  18.981  15.285  0.00  0.00    -0.297 N 
ATOM      5  C   UNL     1      33.518  17.682  15.149  0.00  0.00    +0.247 C 
ATOM      6  O   UNL     1      33.827  17.017  16.142  0.00  0.00    -0.270 OA
ATOM      7  C   UNL     1      32.913  19.572  16.619  0.00  0.00    +0.120 C 
ENDROOT
BRANCH   5   8
ATOM      8  C   UNL     1      33.652  17.025  13.814  0.00  0.00    +0.038 A 
ATOM      9  C   UNL     1      34.516  17.475  12.815  0.00  0.00    +0.013 A 
ATOM     10  C   UNL     1      34.531  16.873  11.555  0.00  0.00    +0.002 A 
ATOM     11  C   UNL     1      33.782  15.723  11.325  0.00  0.00    +0.015 A 
ATOM     12  C   UNL     1      33.048  15.149  12.366  0.00  0.00    +0.017 A 
ATOM     13  C   UNL     1      32.951  15.824  13.592  0.00  0.00    +0.028 A 
BRANCH  12  14
ATOM     14  S   UNL     1      32.223  13.586  12.146  0.00  0.00    -0.016 S 
BRANCH  14  15
ATOM     15  C   UNL     1      30.494  14.104  12.092  0.00  0.00    +0.448 C 
ATOM     16  F   UNL     1      29.928  14.264  13.313  0.00  0.00    -0.160 F 
ATOM     17  F   UNL     1      30.361  15.281  11.437  0.00  0.00    -0.160 F 
ATOM     18  F   UNL     1      29.742  13.191  11.428  0.00  0.00    -0.160 F 
ENDBRANCH  14  15
ENDBRANCH  12  14
ENDBRANCH   5   8
BRANCH   1  20
ATOM     19  N   UNL     1      30.314  20.277  17.141  0.00  0.00    -0.329 N 
ATOM     20  C   UNL     1      31.048  21.319  16.664  0.00  0.00    +0.215 C 
ATOM     21  O   UNL     1      30.521  22.418  16.519  0.00  0.00    -0.276 OA
ATOM     22  H   UNL     1      29.360  20.482  17.407  0.00  0.00    +0.145 HD
ATOM     23  H   UNL     1      30.718  19.398  17.432  0.00  0.00    +0.145 HD
ENDBRANCH   1  20
TORSDOF 4
ENDMDL
MODEL 4
REMARK VINA RESULT:      -6.2      2.675      3.307
REMARK  Name = ZINC000826139982
REMARK  4 active torsions:
REMARK  status: ('A' for Active; 'I' for Inactive)
REMARK    1  A    between atoms: C_2  and  C_4
REMARK    2  A    between atoms: C_8  and  C_10
REMARK    3  A    between atoms: C_14  and  S_15
REMARK    4  A    between atoms: S_15  and  C_16
REMARK                            x       y       z     vdW  Elec       q    Type
REMARK                         _______ _______ _______ _____ _____    ______ ____
ROOT
ATOM      1  C   UNL     1      32.152  14.070  12.676  0.00  0.00    +0.093 C 
ATOM      2  C   UNL     1      31.812  14.160  14.163  0.00  0.00    +0.033 C 
ATOM      3  C   UNL     1      31.779  15.664  14.391  0.00  0.00    +0.109 C 
ATOM      4  N   UNL     1      32.945  16.114  13.642  0.00  0.00    -0.297 N 
ATOM      5  C   UNL     1      33.773  17.217  13.809  0.00  0.00    +0.247 C 
ATOM      6  O   UNL     1      34.639  17.487  12.972  0.00  0.00    -0.270 OA
ATOM      7  C   UNL     1      33.103  15.257  12.464  0.00  0.00    +0.120 C 
ENDROOT
BRANCH   5   8
ATOM      8  C   UNL     1      33.642  18.134  14.981  0.00  0.00    +0.038 A 
ATOM      9  C   UNL     1      32.457  18.787  15.322  0.00  0.00    +0.013 A 
ATOM     10  C   UNL     1      32.421  19.703  16.376  0.00  0.00    +0.002 A 
ATOM     11  C   UNL     1      33.536  19.870  17.191  0.00  0.00    +0.015 A 
ATOM     12  C   UNL     1      34.678  19.092  16.979  0.00  0.00    +0.017 A 
ATOM     13  C   UNL     1      34.742  18.261  15.851  0.00  0.00    +0.028 A 
BRANCH  12  14
ATOM     14  S   UNL     1      36.051  19.161  18.110  0.00  0.00    -0.016 S 
BRANCH  14  15
ATOM     15  C   UNL     1      35.247  18.726  19.668  0.00  0.00    +0.448 C 
ATOM     16  F   UNL     1      34.107  18.009  19.519  0.00  0.00    -0.160 F 
ATOM     17  F   UNL     1      36.074  17.994  20.452  0.00  0.00    -0.160 F 
ATOM     18  F   UNL     1      34.921  19.842  20.365  0.00  0.00    -0.160 F 
ENDBRANCH  14  15
ENDBRANCH  12  14
ENDBRANCH   5   8
BRANCH   1  20
ATOM     19  N   UNL     1      30.010  13.117  11.968  0.00  0.00    -0.329 N 
ATOM     20  C   UNL     1      30.886  14.151  11.837  0.00  0.00    +0.215 C 
ATOM     21  O   UNL     1      30.607  15.095  11.104  0.00  0.00    -0.276 OA
ATOM     22  H   UNL     1      29.128  13.210  11.482  0.00  0.00    +0.145 HD
ATOM     23  H   UNL     1      30.102  12.394  12.667  0.00  0.00    +0.145 HD
ENDBRANCH   1  20
TORSDOF 4
ENDMDL
MODEL 5
REMARK VINA RESULT:      -6.2      2.036      2.739
REMARK  Name = ZINC000826139982
REMARK  4 active torsions:
REMARK  status: ('A' for Active; 'I' for Inactive)
REMARK    1  A    between atoms: C_2  and  C_4
REMARK    2  A    between atoms: C_8  and  C_10
REMARK    3  A    between atoms: C_14  and  S_15
REMARK    4  A    between atoms: S_15  and  C_16
REMARK                            x       y       z     vdW  Elec       q    Type
REMARK                         _______ _______ _______ _____ _____    ______ ____
ROOT
ATOM      1  C   UNL     1      30.578  13.730  13.234  0.00  0.00    +0.093 C 
ATOM      2  C   UNL     1      30.415  14.841  12.197  0.00  0.00    +0.033 C 
ATOM      3  C   UNL     1      31.768  15.534  12.259  0.00  0.00    +0.109 C 
ATOM      4  N   UNL     1      32.021  15.586  13.693  0.00  0.00    -0.297 N 
ATOM      5  C   UNL     1      32.766  16.472  14.462  0.00  0.00    +0.247 C 
ATOM      6  O   UNL     1      32.960  16.257  15.661  0.00  0.00    -0.270 OA
ATOM      7  C   UNL     1      31.453  14.386  14.312  0.00  0.00    +0.120 C 
ENDROOT
BRANCH   5   8
ATOM      8  C   UNL     1      33.384  17.700  13.876  0.00  0.00    +0.038 A 
ATOM      9  C   UNL     1      34.184  17.694  12.733  0.00  0.00    +0.013 A 
ATOM     10  C   UNL     1      34.807  18.860  12.287  0.00  0.00    +0.002 A 
ATOM     11  C   UNL     1      34.523  20.078  12.899  0.00  0.00    +0.015 A 
ATOM     12  C   UNL     1      33.585  20.137  13.933  0.00  0.00    +0.017 A 
ATOM     13  C   UNL     1      33.052  18.945  14.446  0.00  0.00    +0.028 A 
BRANCH  12  14
ATOM     14  S   UNL     1      33.076  21.702  14.613  0.00  0.00    -0.016 S 
BRANCH  14  15
ATOM     15  C   UNL     1      31.413  21.860  13.928  0.00  0.00    +0.448 C 
ATOM     16  F   UNL     1      31.076  20.873  13.064  0.00  0.00    -0.160 F 
ATOM     17  F   UNL     1      30.481  21.860  14.911  0.00  0.00    -0.160 F 
ATOM     18  F   UNL     1      31.283  23.031  13.255  0.00  0.00    -0.160 F 
ENDBRANCH  14  15
ENDBRANCH  12  14
ENDBRANCH   5   8
BRANCH   1  20
ATOM     19  N   UNL     1      30.358  11.553  12.134  0.00  0.00    -0.329 N 
ATOM     20  C   UNL     1      31.215  12.503  12.600  0.00  0.00    +0.215 C 
ATOM     21  O   UNL     1      32.425  12.355  12.455  0.00  0.00    -0.276 OA
ATOM     22  H   UNL     1      30.774  10.779  11.632  0.00  0.00    +0.145 HD
ATOM     23  H   UNL     1      29.358  11.685  12.077  0.00  0.00    +0.145 HD
ENDBRANCH   1  20
TORSDOF 4
ENDMDL
MODEL 6
REMARK VINA RESULT:      -5.9      1.908      2.618
REMARK  Name = ZINC000826139982
REMARK  4 active torsions:
REMARK  status: ('A' for Active; 'I' for Inactive)
REMARK    1  A    between atoms: C_2  and  C_4
REMARK    2  A    between atoms: C_8  and  C_10
REMARK    3  A    between atoms: C_14  and  S_15
REMARK    4  A    between atoms: S_15  and  C_16
REMARK                            x       y       z     vdW  Elec       q    Type
REMARK                         _______ _______ _______ _____ _____    ______ ____
ROOT
ATOM      1  C   UNL     1      34.116  15.636  11.127  0.00  0.00    +0.093 C 
ATOM      2  C   UNL     1      34.706  17.027  11.356  0.00  0.00    +0.033 C 
ATOM      3  C   UNL     1      34.835  17.073  12.871  0.00  0.00    +0.109 C 
ATOM      4  N   UNL     1      33.578  16.478  13.304  0.00  0.00    -0.297 N 
ATOM      5  C   UNL     1      32.833  16.651  14.464  0.00  0.00    +0.247 C 
ATOM      6  O   UNL     1      31.849  15.942  14.693  0.00  0.00    -0.270 OA
ATOM      7  C   UNL     1      33.190  15.448  12.337  0.00  0.00    +0.120 C 
ENDROOT
BRANCH   5   8
ATOM      8  C   UNL     1      33.196  17.673  15.492  0.00  0.00    +0.038 A 
ATOM      9  C   UNL     1      33.992  17.400  16.605  0.00  0.00    +0.013 A 
ATOM     10  C   UNL     1      34.221  18.374  17.579  0.00  0.00    +0.002 A 
ATOM     11  C   UNL     1      33.773  19.676  17.379  0.00  0.00    +0.015 A 
ATOM     12  C   UNL     1      33.130  20.017  16.186  0.00  0.00    +0.017 A 
ATOM     13  C   UNL     1      32.806  19.007  15.268  0.00  0.00    +0.028 A 
BRANCH  12  14
ATOM     14  S   UNL     1      32.703  21.709  15.831  0.00  0.00    -0.016 S 
BRANCH  14  15
ATOM     15  C   UNL     1      30.935  21.712  16.199  0.00  0.00    +0.448 C 
ATOM     16  F   UNL     1      30.516  20.630  16.898  0.00  0.00    -0.160 F 
ATOM     17  F   UNL     1      30.593  22.806  16.920  0.00  0.00    -0.160 F 
ATOM     18  F   UNL     1      30.209  21.745  15.054  0.00  0.00    -0.160 F 
ENDBRANCH  14  15
ENDBRANCH  12  14
ENDBRANCH   5   8
BRANCH   1  20
ATOM     19  N   UNL     1      35.179  13.596  11.967  0.00  0.00    -0.329 N 
ATOM     20  C   UNL     1      35.224  14.597  11.045  0.00  0.00    +0.215 C 
ATOM     21  O   UNL     1      36.102  14.596  10.188  0.00  0.00    -0.276 OA
ATOM     22  H   UNL     1      35.860  12.855  11.860  0.00  0.00    +0.145 HD
ATOM     23  H   UNL     1      34.400  13.450  12.593  0.00  0.00    +0.145 HD
ENDBRANCH   1  20
TORSDOF 4
ENDMDL
MODEL 7
REMARK VINA RESULT:      -5.8      5.758      7.054
REMARK  Name = ZINC000826139982
REMARK  4 active torsions:
REMARK  status: ('A' for Active; 'I' for Inactive)
REMARK    1  A    between atoms: C_2  and  C_4
REMARK    2  A    between atoms: C_8  and  C_10
REMARK    3  A    between atoms: C_14  and  S_15
REMARK    4  A    between atoms: S_15  and  C_16
REMARK                            x       y       z     vdW  Elec       q    Type
REMARK                         _______ _______ _______ _____ _____    ______ ____
ROOT
ATOM      1  C   UNL     1      33.811  22.604   7.632  0.00  0.00    +0.093 C 
ATOM      2  C   UNL     1      33.060  23.644   8.463  0.00  0.00    +0.033 C 
ATOM      3  C   UNL     1      33.830  23.620   9.774  0.00  0.00    +0.109 C 
ATOM      4  N   UNL     1      34.041  22.194   9.981  0.00  0.00    -0.297 N 
ATOM      5  C   UNL     1      34.208  21.450  11.142  0.00  0.00    +0.247 C 
ATOM      6  O   UNL     1      34.509  20.254  11.088  0.00  0.00    -0.270 OA
ATOM      7  C   UNL     1      34.217  21.553   8.675  0.00  0.00    +0.120 C 
ENDROOT
BRANCH   5   8
ATOM      8  C   UNL     1      34.060  22.058  12.499  0.00  0.00    +0.038 A 
ATOM      9  C   UNL     1      34.935  23.013  13.018  0.00  0.00    +0.013 A 
ATOM     10  C   UNL     1      34.796  23.477  14.327  0.00  0.00    +0.002 A 
ATOM     11  C   UNL     1      33.694  23.096  15.087  0.00  0.00    +0.015 A 
ATOM     12  C   UNL     1      32.707  22.281  14.525  0.00  0.00    +0.017 A 
ATOM     13  C   UNL     1      32.915  21.731  13.251  0.00  0.00    +0.028 A 
BRANCH  12  14
ATOM     14  S   UNL     1      31.206  21.922  15.413  0.00  0.00    -0.016 S 
BRANCH  14  15
ATOM     15  C   UNL     1      31.658  20.396  16.266  0.00  0.00    +0.448 C 
ATOM     16  F   UNL     1      31.985  19.376  15.436  0.00  0.00    -0.160 F 
ATOM     17  F   UNL     1      32.718  20.594  17.085  0.00  0.00    -0.160 F 
ATOM     18  F   UNL     1      30.633  19.960  17.039  0.00  0.00    -0.160 F 
ENDBRANCH  14  15
ENDBRANCH  12  14
ENDBRANCH   5   8
BRANCH   1  20
ATOM     19  N   UNL     1      34.753  23.761   5.690  0.00  0.00    -0.329 N 
ATOM     20  C   UNL     1      34.996  23.246   6.926  0.00  0.00    +0.215 C 
ATOM     21  O   UNL     1      36.113  23.356   7.422  0.00  0.00    -0.276 OA
ATOM     22  H   UNL     1      35.513  24.268   5.256  0.00  0.00    +0.145 HD
ATOM     23  H   UNL     1      33.827  23.847   5.294  0.00  0.00    +0.145 HD
ENDBRANCH   1  20
TORSDOF 4
ENDMDL
MODEL 8
REMARK VINA RESULT:      -5.7      4.070      4.980
REMARK  Name = ZINC000826139982
REMARK  4 active torsions:
REMARK  status: ('A' for Active; 'I' for Inactive)
REMARK    1  A    between atoms: C_2  and  C_4
REMARK    2  A    between atoms: C_8  and  C_10
REMARK    3  A    between atoms: C_14  and  S_15
REMARK    4  A    between atoms: S_15  and  C_16
REMARK                            x       y       z     vdW  Elec       q    Type
REMARK                         _______ _______ _______ _____ _____    ______ ____
ROOT
ATOM      1  C   UNL     1      30.564  13.666  13.261  0.00  0.00    +0.093 C 
ATOM      2  C   UNL     1      30.325  14.768  12.229  0.00  0.00    +0.033 C 
ATOM      3  C   UNL     1      31.660  15.496  12.226  0.00  0.00    +0.109 C 
ATOM      4  N   UNL     1      31.978  15.562  13.646  0.00  0.00    -0.297 N 
ATOM      5  C   UNL     1      32.734  16.470  14.376  0.00  0.00    +0.247 C 
ATOM      6  O   UNL     1      32.988  16.266  15.567  0.00  0.00    -0.270 OA
ATOM      7  C   UNL     1      31.471  14.350  14.295  0.00  0.00    +0.120 C 
ENDROOT
BRANCH   5   8
ATOM      8  C   UNL     1      33.291  17.712  13.759  0.00  0.00    +0.038 A 
ATOM      9  C   UNL     1      32.986  18.999  14.202  0.00  0.00    +0.013 A 
ATOM     10  C   UNL     1      33.466  20.123  13.527  0.00  0.00    +0.002 A 
ATOM     11  C   UNL     1      34.374  19.971  12.484  0.00  0.00    +0.015 A 
ATOM     12  C   UNL     1      34.835  18.698  12.139  0.00  0.00    +0.017 A 
ATOM     13  C   UNL     1      34.260  17.572  12.747  0.00  0.00    +0.028 A 
BRANCH  12  14
ATOM     14  S   UNL     1      36.125  18.492  10.928  0.00  0.00    -0.016 S 
BRANCH  14  15
ATOM     15  C   UNL     1      35.159  18.286   9.416  0.00  0.00    +0.448 C 
ATOM     16  F   UNL     1      35.909  18.167   8.294  0.00  0.00    -0.160 F 
ATOM     17  F   UNL     1      34.376  17.183   9.488  0.00  0.00    -0.160 F 
ATOM     18  F   UNL     1      34.336  19.347   9.227  0.00  0.00    -0.160 F 
ENDBRANCH  14  15
ENDBRANCH  12  14
ENDBRANCH   5   8
BRANCH   1  20
ATOM     19  N   UNL     1      30.350  11.499  12.141  0.00  0.00    -0.329 N 
ATOM     20  C   UNL     1      31.204  12.453  12.603  0.00  0.00    +0.215 C 
ATOM     21  O   UNL     1      32.412  12.320  12.436  0.00  0.00    -0.276 OA
ATOM     22  H   UNL     1      30.765  10.736  11.623  0.00  0.00    +0.145 HD
ATOM     23  H   UNL     1      29.348  11.620  12.102  0.00  0.00    +0.145 HD
ENDBRANCH   1  20
TORSDOF 4
ENDMDL
MODEL 9
REMARK VINA RESULT:      -5.7      4.384      7.081
REMARK  Name = ZINC000826139982
REMARK  4 active torsions:
REMARK  status: ('A' for Active; 'I' for Inactive)
REMARK    1  A    between atoms: C_2  and  C_4
REMARK    2  A    between atoms: C_8  and  C_10
REMARK    3  A    between atoms: C_14  and  S_15
REMARK    4  A    between atoms: S_15  and  C_16
REMARK                            x       y       z     vdW  Elec       q    Type
REMARK                         _______ _______ _______ _____ _____    ______ ____
ROOT
ATOM      1  C   UNL     1      33.908  19.686  18.283  0.00  0.00    +0.093 C 
ATOM      2  C   UNL     1      34.265  18.206  18.147  0.00  0.00    +0.033 C 
ATOM      3  C   UNL     1      34.575  18.090  16.662  0.00  0.00    +0.109 C 
ATOM      4  N   UNL     1      33.510  18.880  16.062  0.00  0.00    -0.297 N 
ATOM      5  C   UNL     1      32.900  18.803  14.817  0.00  0.00    +0.247 C 
ATOM      6  O   UNL     1      32.094  19.665  14.454  0.00  0.00    -0.270 OA
ATOM      7  C   UNL     1      33.191  19.993  16.960  0.00  0.00    +0.120 C 
ENDROOT
BRANCH   5   8
ATOM      8  C   UNL     1      33.203  17.700  13.855  0.00  0.00    +0.038 A 
ATOM      9  C   UNL     1      34.229  17.758  12.911  0.00  0.00    +0.013 A 
ATOM     10  C   UNL     1      34.406  16.734  11.979  0.00  0.00    +0.002 A 
ATOM     11  C   UNL     1      33.645  15.572  12.071  0.00  0.00    +0.015 A 
ATOM     12  C   UNL     1      32.735  15.415  13.120  0.00  0.00    +0.017 A 
ATOM     13  C   UNL     1      32.486  16.495  13.980  0.00  0.00    +0.028 A 
BRANCH  12  14
ATOM     14  S   UNL     1      31.878  13.872  13.361  0.00  0.00    -0.016 S 
BRANCH  14  15
ATOM     15  C   UNL     1      30.373  14.152  12.404  0.00  0.00    +0.448 C 
ATOM     16  F   UNL     1      29.268  14.356  13.161  0.00  0.00    -0.160 F 
ATOM     17  F   UNL     1      30.505  15.232  11.597  0.00  0.00    -0.160 F 
ATOM     18  F   UNL     1      30.110  13.087  11.605  0.00  0.00    -0.160 F 
ENDBRANCH  14  15
ENDBRANCH  12  14
ENDBRANCH   5   8
BRANCH   1  20
ATOM     19  N   UNL     1      35.351  21.558  17.642  0.00  0.00    -0.329 N 
ATOM     20  C   UNL     1      35.163  20.517  18.499  0.00  0.00    +0.215 C 
ATOM     21  O   UNL     1      35.965  20.325  19.408  0.00  0.00    -0.276 OA
ATOM     22  H   UNL     1      36.135  22.166  17.838  0.00  0.00    +0.145 HD
ATOM     23  H   UNL     1      34.654  21.866  16.979  0.00  0.00    +0.145 HD
ENDBRANCH   1  20
TORSDOF 4
ENDMDL
