MODEL 1
REMARK VINA RESULT:      -6.7      0.000      0.000
REMARK  Name = ZINC000826139982
REMARK  4 active torsions:
REMARK  status: ('A' for Active; 'I' for Inactive)
REMARK    1  A    between atoms: C_2  and  C_4
REMARK    2  A    between atoms: C_8  and  C_10
REMARK    3  A    between atoms: C_14  and  S_15
REMARK    4  A    between atoms: S_15  and  C_16
REMARK                            x       y       z     vdW  Elec       q    Type
REMARK                         _______ _______ _______ _____ _____    ______ ____
ROOT
ATOM      1  C   UNL     1      22.904  23.499  17.476  0.00  0.00    +0.093 C 
ATOM      2  C   UNL     1      22.939  23.637  19.003  0.00  0.00    +0.033 C 
ATOM      3  C   UNL     1      24.410  23.539  19.384  0.00  0.00    +0.109 C 
ATOM      4  N   UNL     1      24.999  22.742  18.328  0.00  0.00    -0.297 N 
ATOM      5  C   UNL     1      26.149  21.992  18.539  0.00  0.00    +0.247 C 
ATOM      6  O   UNL     1      26.667  21.909  19.652  0.00  0.00    -0.270 OA
ATOM      7  C   UNL     1      24.285  22.990  17.085  0.00  0.00    +0.120 C 
ENDROOT
BRANCH   5   8
ATOM      8  C   UNL     1      26.762  21.193  17.427  0.00  0.00    +0.038 A 
ATOM      9  C   UNL     1      26.229  19.988  16.957  0.00  0.00    +0.013 A 
ATOM     10  C   UNL     1      26.906  19.225  16.008  0.00  0.00    +0.002 A 
ATOM     11  C   UNL     1      28.076  19.709  15.435  0.00  0.00    +0.015 A 
ATOM     12  C   UNL     1      28.557  20.975  15.786  0.00  0.00    +0.017 A 
ATOM     13  C   UNL     1      27.918  21.695  16.806  0.00  0.00    +0.028 A 
BRANCH  12  14
ATOM     14  S   UNL     1      29.990  21.659  14.980  0.00  0.00    -0.016 S 
BRANCH  14  15
ATOM     15  C   UNL     1      31.151  21.763  16.359  0.00  0.00    +0.448 C 
ATOM     16  F   UNL     1      31.026  22.888  17.102  0.00  0.00    -0.160 F 
ATOM     17  F   UNL     1      30.995  20.713  17.201  0.00  0.00    -0.160 F 
ATOM     18  F   UNL     1      32.429  21.726  15.910  0.00  0.00    -0.160 F 
ENDBRANCH  14  15
ENDBRANCH  12  14
ENDBRANCH   5   8
BRANCH   1  20
ATOM     19  N   UNL     1      22.282  24.616  15.410  0.00  0.00    -0.329 N 
ATOM     20  C   UNL     1      22.536  24.774  16.741  0.00  0.00    +0.215 C 
ATOM     21  O   UNL     1      22.519  25.889  17.241  0.00  0.00    -0.276 OA
ATOM     22  H   UNL     1      22.100  25.451  14.867  0.00  0.00    +0.145 HD
ATOM     23  H   UNL     1      22.352  23.730  14.931  0.00  0.00    +0.145 HD
ENDBRANCH   1  20
TORSDOF 4
ENDMDL
MODEL 2
REMARK VINA RESULT:      -6.3      5.154      7.824
REMARK  Name = ZINC000826139982
REMARK  4 active torsions:
REMARK  status: ('A' for Active; 'I' for Inactive)
REMARK    1  A    between atoms: C_2  and  C_4
REMARK    2  A    between atoms: C_8  and  C_10
REMARK    3  A    between atoms: C_14  and  S_15
REMARK    4  A    between atoms: S_15  and  C_16
REMARK                            x       y       z     vdW  Elec       q    Type
REMARK                         _______ _______ _______ _____ _____    ______ ____
ROOT
ATOM      1  C   UNL     1      32.151  17.421  13.718  0.00  0.00    +0.093 C 
ATOM      2  C   UNL     1      31.865  15.945  13.418  0.00  0.00    +0.033 C 
ATOM      3  C   UNL     1      30.360  15.860  13.203  0.00  0.00    +0.109 C 
ATOM      4  N   UNL     1      29.827  16.957  13.985  0.00  0.00    -0.297 N 
ATOM      5  C   UNL     1      28.531  16.931  14.484  0.00  0.00    +0.247 C 
ATOM      6  O   UNL     1      27.812  15.940  14.354  0.00  0.00    -0.270 OA
ATOM      7  C   UNL     1      30.790  18.046  14.003  0.00  0.00    +0.120 C 
ENDROOT
BRANCH   5   8
ATOM      8  C   UNL     1      27.984  18.087  15.268  0.00  0.00    +0.038 A 
ATOM      9  C   UNL     1      26.852  17.999  16.084  0.00  0.00    +0.013 A 
ATOM     10  C   UNL     1      26.315  19.133  16.692  0.00  0.00    +0.002 A 
ATOM     11  C   UNL     1      26.968  20.356  16.577  0.00  0.00    +0.015 A 
ATOM     12  C   UNL     1      28.178  20.442  15.882  0.00  0.00    +0.017 A 
ATOM     13  C   UNL     1      28.661  19.316  15.200  0.00  0.00    +0.028 A 
BRANCH  12  14
ATOM     14  S   UNL     1      29.084  21.974  15.821  0.00  0.00    -0.016 S 
BRANCH  14  15
ATOM     15  C   UNL     1      29.841  21.998  17.460  0.00  0.00    +0.448 C 
ATOM     16  F   UNL     1      28.970  22.250  18.466  0.00  0.00    -0.160 F 
ATOM     17  F   UNL     1      30.433  20.812  17.736  0.00  0.00    -0.160 F 
ATOM     18  F   UNL     1      30.805  22.950  17.526  0.00  0.00    -0.160 F 
ENDBRANCH  14  15
ENDBRANCH  12  14
ENDBRANCH   5   8
BRANCH   1  20
ATOM     19  N   UNL     1      32.133  18.492  11.537  0.00  0.00    -0.329 N 
ATOM     20  C   UNL     1      32.895  18.152  12.616  0.00  0.00    +0.215 C 
ATOM     21  O   UNL     1      34.094  18.385  12.619  0.00  0.00    -0.276 OA
ATOM     22  H   UNL     1      32.604  18.919  10.749  0.00  0.00    +0.145 HD
ATOM     23  H   UNL     1      31.153  18.260  11.451  0.00  0.00    +0.145 HD
ENDBRANCH   1  20
TORSDOF 4
ENDMDL
MODEL 3
REMARK VINA RESULT:      -6.2      6.034      8.176
REMARK  Name = ZINC000826139982
REMARK  4 active torsions:
REMARK  status: ('A' for Active; 'I' for Inactive)
REMARK    1  A    between atoms: C_2  and  C_4
REMARK    2  A    between atoms: C_8  and  C_10
REMARK    3  A    between atoms: C_14  and  S_15
REMARK    4  A    between atoms: S_15  and  C_16
REMARK                            x       y       z     vdW  Elec       q    Type
REMARK                         _______ _______ _______ _____ _____    ______ ____
ROOT
ATOM      1  C   UNL     1      28.830  20.167  14.582  0.00  0.00    +0.093 C 
ATOM      2  C   UNL     1      29.796  18.983  14.706  0.00  0.00    +0.033 C 
ATOM      3  C   UNL     1      31.190  19.585  14.593  0.00  0.00    +0.109 C 
ATOM      4  N   UNL     1      30.997  20.781  13.799  0.00  0.00    -0.297 N 
ATOM      5  C   UNL     1      32.026  21.322  13.038  0.00  0.00    +0.247 C 
ATOM      6  O   UNL     1      33.117  20.760  12.941  0.00  0.00    -0.270 OA
ATOM      7  C   UNL     1      29.674  21.324  14.064  0.00  0.00    +0.120 C 
ENDROOT
BRANCH   5   8
ATOM      8  C   UNL     1      31.818  22.577  12.243  0.00  0.00    +0.038 A 
ATOM      9  C   UNL     1      30.804  23.501  12.512  0.00  0.00    +0.013 A 
ATOM     10  C   UNL     1      30.579  24.587  11.667  0.00  0.00    +0.002 A 
ATOM     11  C   UNL     1      31.435  24.821  10.596  0.00  0.00    +0.015 A 
ATOM     12  C   UNL     1      32.539  23.990  10.387  0.00  0.00    +0.017 A 
ATOM     13  C   UNL     1      32.705  22.851  11.188  0.00  0.00    +0.028 A 
BRANCH  12  14
ATOM     14  S   UNL     1      33.709  24.341   9.091  0.00  0.00    -0.016 S 
BRANCH  14  15
ATOM     15  C   UNL     1      32.901  23.573   7.672  0.00  0.00    +0.448 C 
ATOM     16  F   UNL     1      32.491  22.301   7.892  0.00  0.00    -0.160 F 
ATOM     17  F   UNL     1      31.809  24.282   7.296  0.00  0.00    -0.160 F 
ATOM     18  F   UNL     1      33.739  23.538   6.607  0.00  0.00    -0.160 F 
ENDBRANCH  14  15
ENDBRANCH  12  14
ENDBRANCH   5   8
BRANCH   1  20
ATOM     19  N   UNL     1      27.999  21.857  16.116  0.00  0.00    -0.329 N 
ATOM     20  C   UNL     1      28.104  20.520  15.866  0.00  0.00    +0.215 C 
ATOM     21  O   UNL     1      27.684  19.708  16.677  0.00  0.00    -0.276 OA
ATOM     22  H   UNL     1      27.583  22.135  16.997  0.00  0.00    +0.145 HD
ATOM     23  H   UNL     1      28.390  22.569  15.517  0.00  0.00    +0.145 HD
ENDBRANCH   1  20
TORSDOF 4
ENDMDL
MODEL 4
REMARK VINA RESULT:      -6.2      5.292      6.964
REMARK  Name = ZINC000826139982
REMARK  4 active torsions:
REMARK  status: ('A' for Active; 'I' for Inactive)
REMARK    1  A    between atoms: C_2  and  C_4
REMARK    2  A    between atoms: C_8  and  C_10
REMARK    3  A    between atoms: C_14  and  S_15
REMARK    4  A    between atoms: S_15  and  C_16
REMARK                            x       y       z     vdW  Elec       q    Type
REMARK                         _______ _______ _______ _____ _____    ______ ____
ROOT
ATOM      1  C   UNL     1      27.452  20.700  16.396  0.00  0.00    +0.093 C 
ATOM      2  C   UNL     1      26.183  19.856  16.559  0.00  0.00    +0.033 C 
ATOM      3  C   UNL     1      26.658  18.410  16.571  0.00  0.00    +0.109 C 
ATOM      4  N   UNL     1      27.884  18.432  15.800  0.00  0.00    -0.297 N 
ATOM      5  C   UNL     1      28.346  17.303  15.135  0.00  0.00    +0.247 C 
ATOM      6  O   UNL     1      27.690  16.262  15.106  0.00  0.00    -0.270 OA
ATOM      7  C   UNL     1      28.539  19.718  15.978  0.00  0.00    +0.120 C 
ENDROOT
BRANCH   5   8
ATOM      8  C   UNL     1      29.632  17.335  14.364  0.00  0.00    +0.038 A 
ATOM      9  C   UNL     1      30.107  18.472  13.704  0.00  0.00    +0.013 A 
ATOM     10  C   UNL     1      31.244  18.413  12.899  0.00  0.00    +0.002 A 
ATOM     11  C   UNL     1      31.984  17.238  12.830  0.00  0.00    +0.015 A 
ATOM     12  C   UNL     1      31.608  16.127  13.591  0.00  0.00    +0.017 A 
ATOM     13  C   UNL     1      30.414  16.168  14.325  0.00  0.00    +0.028 A 
BRANCH  12  14
ATOM     14  S   UNL     1      32.606  14.652  13.602  0.00  0.00    -0.016 S 
BRANCH  14  15
ATOM     15  C   UNL     1      31.860  13.714  12.252  0.00  0.00    +0.448 C 
ATOM     16  F   UNL     1      30.664  14.196  11.840  0.00  0.00    -0.160 F 
ATOM     17  F   UNL     1      32.674  13.695  11.170  0.00  0.00    -0.160 F 
ATOM     18  F   UNL     1      31.659  12.424  12.622  0.00  0.00    -0.160 F 
ENDBRANCH  14  15
ENDBRANCH  12  14
ENDBRANCH   5   8
BRANCH   1  20
ATOM     19  N   UNL     1      26.804  21.818  18.453  0.00  0.00    -0.329 N 
ATOM     20  C   UNL     1      27.841  21.491  17.631  0.00  0.00    +0.215 C 
ATOM     21  O   UNL     1      28.971  21.884  17.881  0.00  0.00    -0.276 OA
ATOM     22  H   UNL     1      27.009  22.405  19.253  0.00  0.00    +0.145 HD
ATOM     23  H   UNL     1      25.842  21.581  18.258  0.00  0.00    +0.145 HD
ENDBRANCH   1  20
TORSDOF 4
ENDMDL
MODEL 5
REMARK VINA RESULT:      -6.1      5.441      7.337
REMARK  Name = ZINC000826139982
REMARK  4 active torsions:
REMARK  status: ('A' for Active; 'I' for Inactive)
REMARK    1  A    between atoms: C_2  and  C_4
REMARK    2  A    between atoms: C_8  and  C_10
REMARK    3  A    between atoms: C_14  and  S_15
REMARK    4  A    between atoms: S_15  and  C_16
REMARK                            x       y       z     vdW  Elec       q    Type
REMARK                         _______ _______ _______ _____ _____    ______ ____
ROOT
ATOM      1  C   UNL     1      32.439  21.804  20.797  0.00  0.00    +0.093 C 
ATOM      2  C   UNL     1      33.831  21.698  20.165  0.00  0.00    +0.033 C 
ATOM      3  C   UNL     1      33.643  22.087  18.705  0.00  0.00    +0.109 C 
ATOM      4  N   UNL     1      32.266  21.742  18.419  0.00  0.00    -0.297 N 
ATOM      5  C   UNL     1      31.844  21.444  17.130  0.00  0.00    +0.247 C 
ATOM      6  O   UNL     1      32.639  21.379  16.193  0.00  0.00    -0.270 OA
ATOM      7  C   UNL     1      31.470  21.908  19.625  0.00  0.00    +0.120 C 
ENDROOT
BRANCH   5   8
ATOM      8  C   UNL     1      30.407  21.116  16.846  0.00  0.00    +0.038 A 
ATOM      9  C   UNL     1      29.332  21.775  17.449  0.00  0.00    +0.013 A 
ATOM     10  C   UNL     1      28.021  21.348  17.244  0.00  0.00    +0.002 A 
ATOM     11  C   UNL     1      27.760  20.319  16.347  0.00  0.00    +0.015 A 
ATOM     12  C   UNL     1      28.806  19.735  15.625  0.00  0.00    +0.017 A 
ATOM     13  C   UNL     1      30.128  20.111  15.905  0.00  0.00    +0.028 A 
BRANCH  12  14
ATOM     14  S   UNL     1      28.478  18.495  14.390  0.00  0.00    -0.016 S 
BRANCH  14  15
ATOM     15  C   UNL     1      27.537  17.288  15.346  0.00  0.00    +0.448 C 
ATOM     16  F   UNL     1      26.272  17.676  15.632  0.00  0.00    -0.160 F 
ATOM     17  F   UNL     1      27.451  16.109  14.683  0.00  0.00    -0.160 F 
ATOM     18  F   UNL     1      28.149  17.035  16.529  0.00  0.00    -0.160 F 
ENDBRANCH  14  15
ENDBRANCH  12  14
ENDBRANCH   5   8
BRANCH   1  20
ATOM     19  N   UNL     1      31.367  22.746  22.763  0.00  0.00    -0.329 N 
ATOM     20  C   UNL     1      32.280  22.956  21.772  0.00  0.00    +0.215 C 
ATOM     21  O   UNL     1      32.855  24.031  21.682  0.00  0.00    -0.276 OA
ATOM     22  H   UNL     1      31.179  23.515  23.394  0.00  0.00    +0.145 HD
ATOM     23  H   UNL     1      30.813  21.906  22.842  0.00  0.00    +0.145 HD
ENDBRANCH   1  20
TORSDOF 4
ENDMDL
MODEL 6
REMARK VINA RESULT:      -6.1      5.555      7.467
REMARK  Name = ZINC000826139982
REMARK  4 active torsions:
REMARK  status: ('A' for Active; 'I' for Inactive)
REMARK    1  A    between atoms: C_2  and  C_4
REMARK    2  A    between atoms: C_8  and  C_10
REMARK    3  A    between atoms: C_14  and  S_15
REMARK    4  A    between atoms: S_15  and  C_16
REMARK                            x       y       z     vdW  Elec       q    Type
REMARK                         _______ _______ _______ _____ _____    ______ ____
ROOT
ATOM      1  C   UNL     1      31.841  24.032  12.257  0.00  0.00    +0.093 C 
ATOM      2  C   UNL     1      32.843  23.119  11.541  0.00  0.00    +0.033 C 
ATOM      3  C   UNL     1      32.426  21.699  11.903  0.00  0.00    +0.109 C 
ATOM      4  N   UNL     1      31.773  21.837  13.188  0.00  0.00    -0.297 N 
ATOM      5  C   UNL     1      31.717  20.783  14.091  0.00  0.00    +0.247 C 
ATOM      6  O   UNL     1      32.291  19.717  13.871  0.00  0.00    -0.270 OA
ATOM      7  C   UNL     1      31.123  23.136  13.259  0.00  0.00    +0.120 C 
ENDROOT
BRANCH   5   8
ATOM      8  C   UNL     1      31.012  20.934  15.407  0.00  0.00    +0.038 A 
ATOM      9  C   UNL     1      31.669  21.234  16.604  0.00  0.00    +0.013 A 
ATOM     10  C   UNL     1      30.984  21.240  17.818  0.00  0.00    +0.002 A 
ATOM     11  C   UNL     1      29.606  21.050  17.837  0.00  0.00    +0.015 A 
ATOM     12  C   UNL     1      28.905  20.886  16.639  0.00  0.00    +0.017 A 
ATOM     13  C   UNL     1      29.614  20.792  15.433  0.00  0.00    +0.028 A 
BRANCH  12  14
ATOM     14  S   UNL     1      27.128  20.756  16.636  0.00  0.00    -0.016 S 
BRANCH  14  15
ATOM     15  C   UNL     1      26.905  19.027  16.167  0.00  0.00    +0.448 C 
ATOM     16  F   UNL     1      25.613  18.624  16.141  0.00  0.00    -0.160 F 
ATOM     17  F   UNL     1      27.420  18.790  14.937  0.00  0.00    -0.160 F 
ATOM     18  F   UNL     1      27.555  18.210  17.034  0.00  0.00    -0.160 F 
ENDBRANCH  14  15
ENDBRANCH  12  14
ENDBRANCH   5   8
BRANCH   1  20
ATOM     19  N   UNL     1      29.721  25.170  11.927  0.00  0.00    -0.329 N 
ATOM     20  C   UNL     1      30.873  24.747  11.333  0.00  0.00    +0.215 C 
ATOM     21  O   UNL     1      31.038  24.899  10.132  0.00  0.00    -0.276 OA
ATOM     22  H   UNL     1      29.017  25.591  11.333  0.00  0.00    +0.145 HD
ATOM     23  H   UNL     1      29.502  25.007  12.899  0.00  0.00    +0.145 HD
ENDBRANCH   1  20
TORSDOF 4
ENDMDL
MODEL 7
REMARK VINA RESULT:      -6.0      5.713      7.356
REMARK  Name = ZINC000826139982
REMARK  4 active torsions:
REMARK  status: ('A' for Active; 'I' for Inactive)
REMARK    1  A    between atoms: C_2  and  C_4
REMARK    2  A    between atoms: C_8  and  C_10
REMARK    3  A    between atoms: C_14  and  S_15
REMARK    4  A    between atoms: S_15  and  C_16
REMARK                            x       y       z     vdW  Elec       q    Type
REMARK                         _______ _______ _______ _____ _____    ______ ____
ROOT
ATOM      1  C   UNL     1      24.133  30.411  18.544  0.00  0.00    +0.093 C 
ATOM      2  C   UNL     1      25.091  31.109  19.516  0.00  0.00    +0.033 C 
ATOM      3  C   UNL     1      25.954  29.999  20.099  0.00  0.00    +0.109 C 
ATOM      4  N   UNL     1      25.118  28.819  20.021  0.00  0.00    -0.297 N 
ATOM      5  C   UNL     1      25.291  27.746  20.887  0.00  0.00    +0.247 C 
ATOM      6  O   UNL     1      26.107  27.790  21.807  0.00  0.00    -0.270 OA
ATOM      7  C   UNL     1      24.246  28.925  18.862  0.00  0.00    +0.120 C 
ENDROOT
BRANCH   5   8
ATOM      8  C   UNL     1      24.434  26.520  20.775  0.00  0.00    +0.038 A 
ATOM      9  C   UNL     1      23.339  26.266  21.606  0.00  0.00    +0.013 A 
ATOM     10  C   UNL     1      22.653  25.054  21.540  0.00  0.00    +0.002 A 
ATOM     11  C   UNL     1      22.988  24.120  20.566  0.00  0.00    +0.015 A 
ATOM     12  C   UNL     1      23.988  24.409  19.633  0.00  0.00    +0.017 A 
ATOM     13  C   UNL     1      24.731  25.591  19.764  0.00  0.00    +0.028 A 
BRANCH  12  14
ATOM     14  S   UNL     1      24.353  23.274  18.310  0.00  0.00    -0.016 S 
BRANCH  14  15
ATOM     15  C   UNL     1      23.130  23.767  17.078  0.00  0.00    +0.448 C 
ATOM     16  F   UNL     1      23.190  23.059  15.925  0.00  0.00    -0.160 F 
ATOM     17  F   UNL     1      21.873  23.628  17.563  0.00  0.00    -0.160 F 
ATOM     18  F   UNL     1      23.287  25.073  16.747  0.00  0.00    -0.160 F 
ENDBRANCH  14  15
ENDBRANCH  12  14
ENDBRANCH   5   8
BRANCH   1  20
ATOM     19  N   UNL     1      24.125  29.675  16.229  0.00  0.00    -0.329 N 
ATOM     20  C   UNL     1      24.403  30.703  17.079  0.00  0.00    +0.215 C 
ATOM     21  O   UNL     1      24.891  31.739  16.653  0.00  0.00    -0.276 OA
ATOM     22  H   UNL     1      24.355  29.802  15.251  0.00  0.00    +0.145 HD
ATOM     23  H   UNL     1      23.788  28.773  16.535  0.00  0.00    +0.145 HD
ENDBRANCH   1  20
TORSDOF 4
ENDMDL
MODEL 8
REMARK VINA RESULT:      -6.0      6.961      9.886
REMARK  Name = ZINC000826139982
REMARK  4 active torsions:
REMARK  status: ('A' for Active; 'I' for Inactive)
REMARK    1  A    between atoms: C_2  and  C_4
REMARK    2  A    between atoms: C_8  and  C_10
REMARK    3  A    between atoms: C_14  and  S_15
REMARK    4  A    between atoms: S_15  and  C_16
REMARK                            x       y       z     vdW  Elec       q    Type
REMARK                         _______ _______ _______ _____ _____    ______ ____
ROOT
ATOM      1  C   UNL     1      32.416  14.141  11.705  0.00  0.00    +0.093 C 
ATOM      2  C   UNL     1      33.789  14.169  12.386  0.00  0.00    +0.033 C 
ATOM      3  C   UNL     1      33.519  14.591  13.824  0.00  0.00    +0.109 C 
ATOM      4  N   UNL     1      32.305  15.377  13.741  0.00  0.00    -0.297 N 
ATOM      5  C   UNL     1      32.007  16.355  14.682  0.00  0.00    +0.247 C 
ATOM      6  O   UNL     1      32.801  16.650  15.575  0.00  0.00    -0.270 OA
ATOM      7  C   UNL     1      31.478  14.869  12.659  0.00  0.00    +0.120 C 
ENDROOT
BRANCH   5   8
ATOM      8  C   UNL     1      30.732  17.141  14.598  0.00  0.00    +0.038 A 
ATOM      9  C   UNL     1      29.462  16.558  14.634  0.00  0.00    +0.013 A 
ATOM     10  C   UNL     1      28.315  17.322  14.428  0.00  0.00    +0.002 A 
ATOM     11  C   UNL     1      28.417  18.702  14.287  0.00  0.00    +0.015 A 
ATOM     12  C   UNL     1      29.664  19.326  14.386  0.00  0.00    +0.017 A 
ATOM     13  C   UNL     1      30.819  18.541  14.504  0.00  0.00    +0.028 A 
BRANCH  12  14
ATOM     14  S   UNL     1      29.800  21.101  14.323  0.00  0.00    -0.016 S 
BRANCH  14  15
ATOM     15  C   UNL     1      29.115  21.563  15.928  0.00  0.00    +0.448 C 
ATOM     16  F   UNL     1      29.524  22.774  16.374  0.00  0.00    -0.160 F 
ATOM     17  F   UNL     1      27.762  21.591  15.885  0.00  0.00    -0.160 F 
ATOM     18  F   UNL     1      29.465  20.656  16.874  0.00  0.00    -0.160 F 
ENDBRANCH  14  15
ENDBRANCH  12  14
ENDBRANCH   5   8
BRANCH   1  20
ATOM     19  N   UNL     1      30.843  12.719  10.519  0.00  0.00    -0.329 N 
ATOM     20  C   UNL     1      31.915  12.750  11.361  0.00  0.00    +0.215 C 
ATOM     21  O   UNL     1      32.363  11.713  11.826  0.00  0.00    -0.276 OA
ATOM     22  H   UNL     1      30.434  11.815  10.319  0.00  0.00    +0.145 HD
ATOM     23  H   UNL     1      30.390  13.548  10.163  0.00  0.00    +0.145 HD
ENDBRANCH   1  20
TORSDOF 4
ENDMDL
MODEL 9
REMARK VINA RESULT:      -5.9      4.729      6.902
REMARK  Name = ZINC000826139982
REMARK  4 active torsions:
REMARK  status: ('A' for Active; 'I' for Inactive)
REMARK    1  A    between atoms: C_2  and  C_4
REMARK    2  A    between atoms: C_8  and  C_10
REMARK    3  A    between atoms: C_14  and  S_15
REMARK    4  A    between atoms: S_15  and  C_16
REMARK                            x       y       z     vdW  Elec       q    Type
REMARK                         _______ _______ _______ _____ _____    ______ ____
ROOT
ATOM      1  C   UNL     1      32.327  21.571  18.808  0.00  0.00    +0.093 C 
ATOM      2  C   UNL     1      33.166  22.127  17.652  0.00  0.00    +0.033 C 
ATOM      3  C   UNL     1      32.162  22.724  16.675  0.00  0.00    +0.109 C 
ATOM      4  N   UNL     1      30.950  21.964  16.902  0.00  0.00    -0.297 N 
ATOM      5  C   UNL     1      29.988  21.817  15.910  0.00  0.00    +0.247 C 
ATOM      6  O   UNL     1      30.165  22.255  14.774  0.00  0.00    -0.270 OA
ATOM      7  C   UNL     1      30.892  21.558  18.297  0.00  0.00    +0.120 C 
ENDROOT
BRANCH   5   8
ATOM      8  C   UNL     1      28.725  21.050  16.170  0.00  0.00    +0.038 A 
ATOM      9  C   UNL     1      27.516  21.653  16.526  0.00  0.00    +0.013 A 
ATOM     10  C   UNL     1      26.406  20.886  16.876  0.00  0.00    +0.002 A 
ATOM     11  C   UNL     1      26.460  19.500  16.772  0.00  0.00    +0.015 A 
ATOM     12  C   UNL     1      27.614  18.879  16.285  0.00  0.00    +0.017 A 
ATOM     13  C   UNL     1      28.753  19.653  16.021  0.00  0.00    +0.028 A 
BRANCH  12  14
ATOM     14  S   UNL     1      27.662  17.116  16.037  0.00  0.00    -0.016 S 
BRANCH  14  15
ATOM     15  C   UNL     1      28.497  17.009  14.440  0.00  0.00    +0.448 C 
ATOM     16  F   UNL     1      28.357  18.114  13.670  0.00  0.00    -0.160 F 
ATOM     17  F   UNL     1      29.826  16.804  14.602  0.00  0.00    -0.160 F 
ATOM     18  F   UNL     1      28.018  15.964  13.721  0.00  0.00    -0.160 F 
ENDBRANCH  14  15
ENDBRANCH  12  14
ENDBRANCH   5   8
BRANCH   1  20
ATOM     19  N   UNL     1      31.860  21.762  21.184  0.00  0.00    -0.329 N 
ATOM     20  C   UNL     1      32.464  22.341  20.108  0.00  0.00    +0.215 C 
ATOM     21  O   UNL     1      33.007  23.430  20.220  0.00  0.00    -0.276 OA
ATOM     22  H   UNL     1      31.867  22.276  22.056  0.00  0.00    +0.145 HD
ATOM     23  H   UNL     1      31.336  20.900  21.133  0.00  0.00    +0.145 HD
ENDBRANCH   1  20
TORSDOF 4
ENDMDL
