MODEL 1
REMARK VINA RESULT:      -6.7      0.000      0.000
REMARK  Name = ZINC000435351830
REMARK  5 active torsions:
REMARK  status: ('A' for Active; 'I' for Inactive)
REMARK    1  A    between atoms: C_2  and  C_3
REMARK    2  A    between atoms: C_7  and  C_8
REMARK    3  A    between atoms: C_8  and  C_9
REMARK    4  A    between atoms: N_11  and  C_12
REMARK    5  A    between atoms: C_12  and  C_13
REMARK                            x       y       z     vdW  Elec       q    Type
REMARK                         _______ _______ _______ _____ _____    ______ ____
ROOT
ATOM      1  C   UNL     1      34.128  18.225  14.808  0.00  0.00    +0.224 C 
ATOM      2  O   UNL     1      35.050  18.550  14.068  0.00  0.00    -0.275 OA
ATOM      3  N   UNL     1      33.248  17.206  14.549  0.00  0.00    -0.309 N 
ATOM      4  H   UNL     1      32.535  16.974  15.225  0.00  0.00    +0.149 HD
ENDROOT
BRANCH   1   5
ATOM      5  C   UNL     1      33.852  18.992  16.075  0.00  0.00    +0.072 C 
ATOM      6  C   UNL     1      34.314  18.397  17.400  0.00  0.00    +0.022 C 
ATOM      7  C   UNL     1      35.067  19.552  16.826  0.00  0.00    +0.022 C 
BRANCH   5  12
ATOM      8  C   UNL     1      31.483  21.759  14.871  0.00  0.00    +0.052 A 
ATOM      9  C   UNL     1      30.567  21.845  15.920  0.00  0.00    +0.019 A 
ATOM     10  C   UNL     1      30.670  20.972  17.003  0.00  0.00    +0.002 A 
ATOM     11  C   UNL     1      31.701  20.030  17.051  0.00  0.00    +0.005 A 
ATOM     12  C   UNL     1      32.656  19.942  16.024  0.00  0.00    -0.031 A 
ATOM     13  C   UNL     1      32.503  20.805  14.922  0.00  0.00    +0.023 A 
BRANCH   8  15
ATOM     14  N   UNL     1      31.352  23.402  12.869  0.00  0.00    -0.191 NA
ATOM     15  C   UNL     1      31.406  22.660  13.762  0.00  0.00    +0.099 C 
ENDBRANCH   8  15
ENDBRANCH   5  12
ENDBRANCH   1   5
BRANCH   3  16
ATOM     16  C   UNL     1      33.283  16.471  13.303  0.00  0.00    +0.159 C 
BRANCH  16  17
ATOM     17  C   UNL     1      32.463  15.201  13.336  0.00  0.00    +0.058 A 
ATOM     18  C   UNL     1      31.580  14.961  14.392  0.00  0.00    +0.028 A 
ATOM     19  C   UNL     1      30.854  13.771  14.414  0.00  0.00    +0.042 A 
ATOM     20  C   UNL     1      31.029  12.866  13.382  0.00  0.00    +0.141 A 
ATOM     21  F   UNL     1      30.354  11.709  13.373  0.00  0.00    -0.204 F 
ATOM     22  C   UNL     1      31.912  13.175  12.363  0.00  0.00    +0.149 A 
ATOM     23  N   UNL     1      32.630  14.323  12.311  0.00  0.00    -0.255 NA
ENDBRANCH  16  17
ENDBRANCH   3  16
TORSDOF 5
ENDMDL
MODEL 2
REMARK VINA RESULT:      -6.7      1.071      1.373
REMARK  Name = ZINC000435351830
REMARK  5 active torsions:
REMARK  status: ('A' for Active; 'I' for Inactive)
REMARK    1  A    between atoms: C_2  and  C_3
REMARK    2  A    between atoms: C_7  and  C_8
REMARK    3  A    between atoms: C_8  and  C_9
REMARK    4  A    between atoms: N_11  and  C_12
REMARK    5  A    between atoms: C_12  and  C_13
REMARK                            x       y       z     vdW  Elec       q    Type
REMARK                         _______ _______ _______ _____ _____    ______ ____
ROOT
ATOM      1  C   UNL     1      34.410  18.683  15.734  0.00  0.00    +0.224 C 
ATOM      2  O   UNL     1      35.501  18.967  15.252  0.00  0.00    -0.275 OA
ATOM      3  N   UNL     1      33.606  17.667  15.288  0.00  0.00    -0.309 N 
ATOM      4  H   UNL     1      32.735  17.471  15.760  0.00  0.00    +0.149 HD
ENDROOT
BRANCH   1   5
ATOM      5  C   UNL     1      33.829  19.503  16.857  0.00  0.00    +0.072 C 
ATOM      6  C   UNL     1      34.102  19.067  18.292  0.00  0.00    +0.022 C 
ATOM      7  C   UNL     1      34.822  20.258  17.750  0.00  0.00    +0.022 C 
BRANCH   5  12
ATOM      8  C   UNL     1      31.443  21.873  15.011  0.00  0.00    +0.052 A 
ATOM      9  C   UNL     1      30.346  21.922  15.872  0.00  0.00    +0.019 A 
ATOM     10  C   UNL     1      30.339  21.146  17.031  0.00  0.00    +0.002 A 
ATOM     11  C   UNL     1      31.438  20.340  17.344  0.00  0.00    +0.005 A 
ATOM     12  C   UNL     1      32.570  20.296  16.511  0.00  0.00    -0.031 A 
ATOM     13  C   UNL     1      32.531  21.055  15.326  0.00  0.00    +0.023 A 
BRANCH   8  15
ATOM     14  N   UNL     1      31.492  23.341  12.874  0.00  0.00    -0.191 NA
ATOM     15  C   UNL     1      31.476  22.678  13.829  0.00  0.00    +0.099 C 
ENDBRANCH   8  15
ENDBRANCH   5  12
ENDBRANCH   1   5
BRANCH   3  16
ATOM     16  C   UNL     1      33.949  16.884  14.121  0.00  0.00    +0.159 C 
BRANCH  16  17
ATOM     17  C   UNL     1      32.857  15.926  13.702  0.00  0.00    +0.058 A 
ATOM     18  C   UNL     1      32.495  15.816  12.357  0.00  0.00    +0.028 A 
ATOM     19  C   UNL     1      31.467  14.945  11.999  0.00  0.00    +0.042 A 
ATOM     20  C   UNL     1      30.840  14.211  12.991  0.00  0.00    +0.141 A 
ATOM     21  F   UNL     1      29.844  13.370  12.685  0.00  0.00    -0.204 F 
ATOM     22  C   UNL     1      31.259  14.362  14.301  0.00  0.00    +0.149 A 
ATOM     23  N   UNL     1      32.256  15.197  14.682  0.00  0.00    -0.255 NA
ENDBRANCH  16  17
ENDBRANCH   3  16
TORSDOF 5
ENDMDL
MODEL 3
REMARK VINA RESULT:      -6.2      2.368      3.740
REMARK  Name = ZINC000435351830
REMARK  5 active torsions:
REMARK  status: ('A' for Active; 'I' for Inactive)
REMARK    1  A    between atoms: C_2  and  C_3
REMARK    2  A    between atoms: C_7  and  C_8
REMARK    3  A    between atoms: C_8  and  C_9
REMARK    4  A    between atoms: N_11  and  C_12
REMARK    5  A    between atoms: C_12  and  C_13
REMARK                            x       y       z     vdW  Elec       q    Type
REMARK                         _______ _______ _______ _____ _____    ______ ____
ROOT
ATOM      1  C   UNL     1      32.928  19.596  14.842  0.00  0.00    +0.224 C 
ATOM      2  O   UNL     1      32.876  20.244  13.802  0.00  0.00    -0.275 OA
ATOM      3  N   UNL     1      33.281  18.274  14.915  0.00  0.00    -0.309 N 
ATOM      4  H   UNL     1      33.335  17.817  15.814  0.00  0.00    +0.149 HD
ENDROOT
BRANCH   1   5
ATOM      5  C   UNL     1      32.534  20.219  16.156  0.00  0.00    +0.072 C 
ATOM      6  C   UNL     1      31.488  21.328  16.150  0.00  0.00    +0.022 C 
ATOM      7  C   UNL     1      31.100  19.972  16.639  0.00  0.00    +0.022 C 
BRANCH   5  12
ATOM      8  C   UNL     1      35.566  21.133  18.321  0.00  0.00    +0.052 A 
ATOM      9  C   UNL     1      35.671  20.029  19.169  0.00  0.00    +0.019 A 
ATOM     10  C   UNL     1      34.730  19.003  19.090  0.00  0.00    +0.002 A 
ATOM     11  C   UNL     1      33.698  19.066  18.148  0.00  0.00    +0.005 A 
ATOM     12  C   UNL     1      33.587  20.150  17.261  0.00  0.00    -0.031 A 
ATOM     13  C   UNL     1      34.524  21.193  17.392  0.00  0.00    +0.023 A 
BRANCH   8  15
ATOM     14  N   UNL     1      37.319  23.041  18.430  0.00  0.00    -0.191 NA
ATOM     15  C   UNL     1      36.535  22.185  18.373  0.00  0.00    +0.099 C 
ENDBRANCH   8  15
ENDBRANCH   5  12
ENDBRANCH   1   5
BRANCH   3  16
ATOM     16  C   UNL     1      33.540  17.491  13.726  0.00  0.00    +0.159 C 
BRANCH  16  17
ATOM     17  C   UNL     1      32.660  16.266  13.615  0.00  0.00    +0.058 A 
ATOM     18  C   UNL     1      32.131  15.890  12.377  0.00  0.00    +0.028 A 
ATOM     19  C   UNL     1      31.301  14.772  12.305  0.00  0.00    +0.042 A 
ATOM     20  C   UNL     1      31.033  14.066  13.464  0.00  0.00    +0.141 A 
ATOM     21  F   UNL     1      30.235  12.991  13.433  0.00  0.00    -0.204 F 
ATOM     22  C   UNL     1      31.601  14.488  14.652  0.00  0.00    +0.149 A 
ATOM     23  N   UNL     1      32.413  15.568  14.756  0.00  0.00    -0.255 NA
ENDBRANCH  16  17
ENDBRANCH   3  16
TORSDOF 5
ENDMDL
MODEL 4
REMARK VINA RESULT:      -6.2      5.615      9.297
REMARK  Name = ZINC000435351830
REMARK  5 active torsions:
REMARK  status: ('A' for Active; 'I' for Inactive)
REMARK    1  A    between atoms: C_2  and  C_3
REMARK    2  A    between atoms: C_7  and  C_8
REMARK    3  A    between atoms: C_8  and  C_9
REMARK    4  A    between atoms: N_11  and  C_12
REMARK    5  A    between atoms: C_12  and  C_13
REMARK                            x       y       z     vdW  Elec       q    Type
REMARK                         _______ _______ _______ _____ _____    ______ ____
ROOT
ATOM      1  C   UNL     1      33.334  22.676  15.190  0.00  0.00    +0.224 C 
ATOM      2  O   UNL     1      34.177  22.374  14.353  0.00  0.00    -0.275 OA
ATOM      3  N   UNL     1      33.313  23.862  15.877  0.00  0.00    -0.309 N 
ATOM      4  H   UNL     1      32.565  24.053  16.528  0.00  0.00    +0.149 HD
ENDROOT
BRANCH   1   5
ATOM      5  C   UNL     1      32.255  21.699  15.581  0.00  0.00    +0.072 C 
ATOM      6  C   UNL     1      30.960  22.245  16.173  0.00  0.00    +0.022 C 
ATOM      7  C   UNL     1      30.955  21.739  14.768  0.00  0.00    +0.022 C 
BRANCH   5  12
ATOM      8  C   UNL     1      33.770  18.780  17.556  0.00  0.00    +0.052 A 
ATOM      9  C   UNL     1      33.793  17.758  16.607  0.00  0.00    +0.019 A 
ATOM     10  C   UNL     1      33.267  17.981  15.335  0.00  0.00    +0.002 A 
ATOM     11  C   UNL     1      32.741  19.233  15.001  0.00  0.00    +0.005 A 
ATOM     12  C   UNL     1      32.734  20.291  15.927  0.00  0.00    -0.031 A 
ATOM     13  C   UNL     1      33.230  20.024  17.218  0.00  0.00    +0.023 A 
BRANCH   8  15
ATOM     14  N   UNL     1      34.773  18.424  19.921  0.00  0.00    -0.191 NA
ATOM     15  C   UNL     1      34.325  18.576  18.860  0.00  0.00    +0.099 C 
ENDBRANCH   8  15
ENDBRANCH   5  12
ENDBRANCH   1   5
BRANCH   3  16
ATOM     16  C   UNL     1      34.366  24.843  15.729  0.00  0.00    +0.159 C 
BRANCH  16  17
ATOM     17  C   UNL     1      34.616  25.645  16.986  0.00  0.00    +0.058 A 
ATOM     18  C   UNL     1      33.685  25.628  18.028  0.00  0.00    +0.028 A 
ATOM     19  C   UNL     1      33.924  26.397  19.166  0.00  0.00    +0.042 A 
ATOM     20  C   UNL     1      35.084  27.150  19.229  0.00  0.00    +0.141 A 
ATOM     21  F   UNL     1      35.344  27.905  20.304  0.00  0.00    -0.204 F 
ATOM     22  C   UNL     1      35.967  27.109  18.165  0.00  0.00    +0.149 A 
ATOM     23  N   UNL     1      35.765  26.371  17.046  0.00  0.00    -0.255 NA
ENDBRANCH  16  17
ENDBRANCH   3  16
TORSDOF 5
ENDMDL
MODEL 5
REMARK VINA RESULT:      -6.1      1.270      1.877
REMARK  Name = ZINC000435351830
REMARK  5 active torsions:
REMARK  status: ('A' for Active; 'I' for Inactive)
REMARK    1  A    between atoms: C_2  and  C_3
REMARK    2  A    between atoms: C_7  and  C_8
REMARK    3  A    between atoms: C_8  and  C_9
REMARK    4  A    between atoms: N_11  and  C_12
REMARK    5  A    between atoms: C_12  and  C_13
REMARK                            x       y       z     vdW  Elec       q    Type
REMARK                         _______ _______ _______ _____ _____    ______ ____
ROOT
ATOM      1  C   UNL     1      34.586  18.240  14.119  0.00  0.00    +0.224 C 
ATOM      2  O   UNL     1      35.576  18.344  13.403  0.00  0.00    -0.275 OA
ATOM      3  N   UNL     1      33.628  17.270  13.980  0.00  0.00    -0.309 N 
ATOM      4  H   UNL     1      32.857  17.228  14.632  0.00  0.00    +0.149 HD
ENDROOT
BRANCH   1   5
ATOM      5  C   UNL     1      34.314  19.248  15.206  0.00  0.00    +0.072 C 
ATOM      6  C   UNL     1      34.496  18.818  16.657  0.00  0.00    +0.022 C 
ATOM      7  C   UNL     1      35.515  19.715  16.036  0.00  0.00    +0.022 C 
BRANCH   5  12
ATOM      8  C   UNL     1      31.387  21.714  15.465  0.00  0.00    +0.052 A 
ATOM      9  C   UNL     1      31.376  22.299  14.198  0.00  0.00    +0.019 A 
ATOM     10  C   UNL     1      32.349  21.945  13.264  0.00  0.00    +0.002 A 
ATOM     11  C   UNL     1      33.318  20.990  13.584  0.00  0.00    +0.005 A 
ATOM     12  C   UNL     1      33.333  20.361  14.842  0.00  0.00    -0.031 A 
ATOM     13  C   UNL     1      32.367  20.769  15.781  0.00  0.00    +0.023 A 
BRANCH   8  15
ATOM     14  N   UNL     1      29.559  22.322  17.201  0.00  0.00    -0.191 NA
ATOM     15  C   UNL     1      30.384  22.049  16.429  0.00  0.00    +0.099 C 
ENDBRANCH   8  15
ENDBRANCH   5  12
ENDBRANCH   1   5
BRANCH   3  16
ATOM     16  C   UNL     1      33.663  16.319  12.890  0.00  0.00    +0.159 C 
BRANCH  16  17
ATOM     17  C   UNL     1      32.751  15.132  13.105  0.00  0.00    +0.058 A 
ATOM     18  C   UNL     1      31.931  15.069  14.234  0.00  0.00    +0.028 A 
ATOM     19  C   UNL     1      31.119  13.952  14.423  0.00  0.00    +0.042 A 
ATOM     20  C   UNL     1      31.148  12.941  13.479  0.00  0.00    +0.141 A 
ATOM     21  F   UNL     1      30.386  11.850  13.631  0.00  0.00    -0.204 F 
ATOM     22  C   UNL     1      31.975  13.075  12.379  0.00  0.00    +0.149 A 
ATOM     23  N   UNL     1      32.775  14.148  12.164  0.00  0.00    -0.255 NA
ENDBRANCH  16  17
ENDBRANCH   3  16
TORSDOF 5
ENDMDL
MODEL 6
REMARK VINA RESULT:      -6.1      2.171      4.083
REMARK  Name = ZINC000435351830
REMARK  5 active torsions:
REMARK  status: ('A' for Active; 'I' for Inactive)
REMARK    1  A    between atoms: C_2  and  C_3
REMARK    2  A    between atoms: C_7  and  C_8
REMARK    3  A    between atoms: C_8  and  C_9
REMARK    4  A    between atoms: N_11  and  C_12
REMARK    5  A    between atoms: C_12  and  C_13
REMARK                            x       y       z     vdW  Elec       q    Type
REMARK                         _______ _______ _______ _____ _____    ______ ____
ROOT
ATOM      1  C   UNL     1      32.969  19.751  14.570  0.00  0.00    +0.224 C 
ATOM      2  O   UNL     1      32.873  20.333  13.495  0.00  0.00    -0.275 OA
ATOM      3  N   UNL     1      33.359  18.445  14.713  0.00  0.00    -0.309 N 
ATOM      4  H   UNL     1      33.447  18.045  15.636  0.00  0.00    +0.149 HD
ENDROOT
BRANCH   1   5
ATOM      5  C   UNL     1      32.592  20.443  15.855  0.00  0.00    +0.072 C 
ATOM      6  C   UNL     1      31.302  21.255  15.891  0.00  0.00    +0.022 C 
ATOM      7  C   UNL     1      31.341  19.930  16.578  0.00  0.00    +0.022 C 
BRANCH   5  12
ATOM      8  C   UNL     1      35.236  20.111  18.614  0.00  0.00    +0.052 A 
ATOM      9  C   UNL     1      35.793  21.390  18.649  0.00  0.00    +0.019 A 
ATOM     10  C   UNL     1      35.362  22.359  17.743  0.00  0.00    +0.002 A 
ATOM     11  C   UNL     1      34.356  22.059  16.819  0.00  0.00    +0.005 A 
ATOM     12  C   UNL     1      33.755  20.789  16.783  0.00  0.00    -0.031 A 
ATOM     13  C   UNL     1      34.240  19.818  17.679  0.00  0.00    +0.023 A 
BRANCH   8  15
ATOM     14  N   UNL     1      35.973  18.296  20.313  0.00  0.00    -0.191 NA
ATOM     15  C   UNL     1      35.650  19.111  19.550  0.00  0.00    +0.099 C 
ENDBRANCH   8  15
ENDBRANCH   5  12
ENDBRANCH   1   5
BRANCH   3  16
ATOM     16  C   UNL     1      33.608  17.598  13.567  0.00  0.00    +0.159 C 
BRANCH  16  17
ATOM     17  C   UNL     1      32.725  16.371  13.529  0.00  0.00    +0.058 A 
ATOM     18  C   UNL     1      32.192  15.926  12.316  0.00  0.00    +0.028 A 
ATOM     19  C   UNL     1      31.359  14.807  12.310  0.00  0.00    +0.042 A 
ATOM     20  C   UNL     1      31.093  14.169  13.509  0.00  0.00    +0.141 A 
ATOM     21  F   UNL     1      30.293  13.096  13.541  0.00  0.00    -0.204 F 
ATOM     22  C   UNL     1      31.666  14.658  14.669  0.00  0.00    +0.149 A 
ATOM     23  N   UNL     1      32.480  15.740  14.709  0.00  0.00    -0.255 NA
ENDBRANCH  16  17
ENDBRANCH   3  16
TORSDOF 5
ENDMDL
MODEL 7
REMARK VINA RESULT:      -6.0      3.847      7.580
REMARK  Name = ZINC000435351830
REMARK  5 active torsions:
REMARK  status: ('A' for Active; 'I' for Inactive)
REMARK    1  A    between atoms: C_2  and  C_3
REMARK    2  A    between atoms: C_7  and  C_8
REMARK    3  A    between atoms: C_8  and  C_9
REMARK    4  A    between atoms: N_11  and  C_12
REMARK    5  A    between atoms: C_12  and  C_13
REMARK                            x       y       z     vdW  Elec       q    Type
REMARK                         _______ _______ _______ _____ _____    ______ ____
ROOT
ATOM      1  C   UNL     1      34.816  17.842  15.530  0.00  0.00    +0.224 C 
ATOM      2  O   UNL     1      35.543  16.878  15.319  0.00  0.00    -0.275 OA
ATOM      3  N   UNL     1      35.088  18.838  16.431  0.00  0.00    -0.309 N 
ATOM      4  H   UNL     1      34.456  19.619  16.524  0.00  0.00    +0.149 HD
ENDROOT
BRANCH   1   5
ATOM      5  C   UNL     1      33.490  17.972  14.825  0.00  0.00    +0.072 C 
ATOM      6  C   UNL     1      32.414  18.848  15.457  0.00  0.00    +0.022 C 
ATOM      7  C   UNL     1      33.140  19.352  14.254  0.00  0.00    +0.022 C 
BRANCH   5  12
ATOM      8  C   UNL     1      31.929  14.672  13.646  0.00  0.00    +0.052 A 
ATOM      9  C   UNL     1      32.475  14.523  12.370  0.00  0.00    +0.019 A 
ATOM     10  C   UNL     1      33.308  15.515  11.853  0.00  0.00    +0.002 A 
ATOM     11  C   UNL     1      33.618  16.643  12.618  0.00  0.00    +0.005 A 
ATOM     12  C   UNL     1      33.108  16.804  13.918  0.00  0.00    -0.031 A 
ATOM     13  C   UNL     1      32.234  15.810  14.398  0.00  0.00    +0.023 A 
BRANCH   8  15
ATOM     14  N   UNL     1      30.406  12.823  14.639  0.00  0.00    -0.191 NA
ATOM     15  C   UNL     1      31.090  13.655  14.202  0.00  0.00    +0.099 C 
ENDBRANCH   8  15
ENDBRANCH   5  12
ENDBRANCH   1   5
BRANCH   3  16
ATOM     16  C   UNL     1      36.246  18.781  17.297  0.00  0.00    +0.159 C 
BRANCH  16  17
ATOM     17  C   UNL     1      35.943  19.170  18.726  0.00  0.00    +0.058 A 
ATOM     18  C   UNL     1      34.789  18.693  19.355  0.00  0.00    +0.028 A 
ATOM     19  C   UNL     1      34.517  19.086  20.665  0.00  0.00    +0.042 A 
ATOM     20  C   UNL     1      35.405  19.935  21.303  0.00  0.00    +0.141 A 
ATOM     21  F   UNL     1      35.173  20.338  22.559  0.00  0.00    -0.204 F 
ATOM     22  C   UNL     1      36.533  20.357  20.623  0.00  0.00    +0.149 A 
ATOM     23  N   UNL     1      36.828  19.992  19.352  0.00  0.00    -0.255 NA
ENDBRANCH  16  17
ENDBRANCH   3  16
TORSDOF 5
ENDMDL
MODEL 8
REMARK VINA RESULT:      -6.0      2.647      3.269
REMARK  Name = ZINC000435351830
REMARK  5 active torsions:
REMARK  status: ('A' for Active; 'I' for Inactive)
REMARK    1  A    between atoms: C_2  and  C_3
REMARK    2  A    between atoms: C_7  and  C_8
REMARK    3  A    between atoms: C_8  and  C_9
REMARK    4  A    between atoms: N_11  and  C_12
REMARK    5  A    between atoms: C_12  and  C_13
REMARK                            x       y       z     vdW  Elec       q    Type
REMARK                         _______ _______ _______ _____ _____    ______ ____
ROOT
ATOM      1  C   UNL     1      33.738  19.171  15.250  0.00  0.00    +0.224 C 
ATOM      2  O   UNL     1      34.962  19.127  15.198  0.00  0.00    -0.275 OA
ATOM      3  N   UNL     1      32.901  18.347  14.543  0.00  0.00    -0.309 N 
ATOM      4  H   UNL     1      31.901  18.421  14.666  0.00  0.00    +0.149 HD
ENDROOT
BRANCH   1   5
ATOM      5  C   UNL     1      33.041  20.216  16.083  0.00  0.00    +0.072 C 
ATOM      6  C   UNL     1      31.598  19.965  16.506  0.00  0.00    +0.022 C 
ATOM      7  C   UNL     1      32.683  19.830  17.523  0.00  0.00    +0.022 C 
BRANCH   5  12
ATOM      8  C   UNL     1      34.637  23.593  16.958  0.00  0.00    +0.052 A 
ATOM      9  C   UNL     1      34.436  24.330  15.790  0.00  0.00    +0.019 A 
ATOM     10  C   UNL     1      33.834  23.727  14.686  0.00  0.00    +0.002 A 
ATOM     11  C   UNL     1      33.410  22.397  14.755  0.00  0.00    +0.005 A 
ATOM     12  C   UNL     1      33.570  21.641  15.929  0.00  0.00    -0.031 A 
ATOM     13  C   UNL     1      34.220  22.260  17.014  0.00  0.00    +0.023 A 
BRANCH   8  15
ATOM     14  N   UNL     1      35.710  24.708  19.039  0.00  0.00    -0.191 NA
ATOM     15  C   UNL     1      35.233  24.201  18.108  0.00  0.00    +0.099 C 
ENDBRANCH   8  15
ENDBRANCH   5  12
ENDBRANCH   1   5
BRANCH   3  16
ATOM     16  C   UNL     1      33.410  17.392  13.583  0.00  0.00    +0.159 C 
BRANCH  16  17
ATOM     17  C   UNL     1      32.575  16.134  13.492  0.00  0.00    +0.058 A 
ATOM     18  C   UNL     1      32.099  15.694  12.254  0.00  0.00    +0.028 A 
ATOM     19  C   UNL     1      31.309  14.546  12.199  0.00  0.00    +0.042 A 
ATOM     20  C   UNL     1      31.027  13.875  13.376  0.00  0.00    +0.141 A 
ATOM     21  F   UNL     1      30.266  12.773  13.361  0.00  0.00    -0.204 F 
ATOM     22  C   UNL     1      31.542  14.362  14.564  0.00  0.00    +0.149 A 
ATOM     23  N   UNL     1      32.314  15.472  14.651  0.00  0.00    -0.255 NA
ENDBRANCH  16  17
ENDBRANCH   3  16
TORSDOF 5
ENDMDL
MODEL 9
REMARK VINA RESULT:      -6.0      3.300      5.865
REMARK  Name = ZINC000435351830
REMARK  5 active torsions:
REMARK  status: ('A' for Active; 'I' for Inactive)
REMARK    1  A    between atoms: C_2  and  C_3
REMARK    2  A    between atoms: C_7  and  C_8
REMARK    3  A    between atoms: C_8  and  C_9
REMARK    4  A    between atoms: N_11  and  C_12
REMARK    5  A    between atoms: C_12  and  C_13
REMARK                            x       y       z     vdW  Elec       q    Type
REMARK                         _______ _______ _______ _____ _____    ______ ____
ROOT
ATOM      1  C   UNL     1      31.796  21.994  14.161  0.00  0.00    +0.224 C 
ATOM      2  O   UNL     1      30.836  21.921  13.402  0.00  0.00    -0.275 OA
ATOM      3  N   UNL     1      33.061  22.359  13.780  0.00  0.00    -0.309 N 
ATOM      4  H   UNL     1      33.793  22.430  14.471  0.00  0.00    +0.149 HD
ENDROOT
BRANCH   1   5
ATOM      5  C   UNL     1      31.657  21.616  15.614  0.00  0.00    +0.072 C 
ATOM      6  C   UNL     1      31.266  22.698  16.613  0.00  0.00    +0.022 C 
ATOM      7  C   UNL     1      30.249  21.680  16.216  0.00  0.00    +0.022 C 
BRANCH   5  12
ATOM      8  C   UNL     1      33.086  18.057  15.712  0.00  0.00    +0.052 A 
ATOM      9  C   UNL     1      33.825  18.064  16.896  0.00  0.00    +0.019 A 
ATOM     10  C   UNL     1      33.918  19.235  17.647  0.00  0.00    +0.002 A 
ATOM     11  C   UNL     1      33.252  20.393  17.231  0.00  0.00    +0.005 A 
ATOM     12  C   UNL     1      32.475  20.404  16.060  0.00  0.00    -0.031 A 
ATOM     13  C   UNL     1      32.435  19.222  15.297  0.00  0.00    +0.023 A 
BRANCH   8  15
ATOM     14  N   UNL     1      32.877  15.884  14.313  0.00  0.00    -0.191 NA
ATOM     15  C   UNL     1      32.962  16.858  14.940  0.00  0.00    +0.099 C 
ENDBRANCH   8  15
ENDBRANCH   5  12
ENDBRANCH   1   5
BRANCH   3  16
ATOM     16  C   UNL     1      33.394  22.606  12.394  0.00  0.00    +0.159 C 
BRANCH  16  17
ATOM     17  C   UNL     1      34.000  21.405  11.703  0.00  0.00    +0.058 A 
ATOM     18  C   UNL     1      34.473  20.326  12.453  0.00  0.00    +0.028 A 
ATOM     19  C   UNL     1      35.052  19.242  11.795  0.00  0.00    +0.042 A 
ATOM     20  C   UNL     1      35.134  19.268  10.414  0.00  0.00    +0.141 A 
ATOM     21  F   UNL     1      35.690  18.248   9.749  0.00  0.00    -0.204 F 
ATOM     22  C   UNL     1      34.635  20.365   9.735  0.00  0.00    +0.149 A 
ATOM     23  N   UNL     1      34.064  21.432  10.344  0.00  0.00    -0.255 NA
ENDBRANCH  16  17
ENDBRANCH   3  16
TORSDOF 5
ENDMDL
