MODEL 1
REMARK VINA RESULT:      -6.7      0.000      0.000
REMARK  Name = ZINC000435351830
REMARK  5 active torsions:
REMARK  status: ('A' for Active; 'I' for Inactive)
REMARK    1  A    between atoms: C_2  and  C_3
REMARK    2  A    between atoms: C_7  and  C_8
REMARK    3  A    between atoms: C_8  and  C_9
REMARK    4  A    between atoms: N_11  and  C_12
REMARK    5  A    between atoms: C_12  and  C_13
REMARK                            x       y       z     vdW  Elec       q    Type
REMARK                         _______ _______ _______ _____ _____    ______ ____
ROOT
ATOM      1  C   UNL     1      34.064  18.191  14.802  0.00  0.00    +0.224 C 
ATOM      2  O   UNL     1      35.004  18.488  14.074  0.00  0.00    -0.275 OA
ATOM      3  N   UNL     1      33.154  17.203  14.530  0.00  0.00    -0.309 N 
ATOM      4  H   UNL     1      32.425  16.993  15.197  0.00  0.00    +0.149 HD
ENDROOT
BRANCH   1   5
ATOM      5  C   UNL     1      33.799  18.964  16.068  0.00  0.00    +0.072 C 
ATOM      6  C   UNL     1      34.251  18.363  17.394  0.00  0.00    +0.022 C 
ATOM      7  C   UNL     1      35.021  19.506  16.819  0.00  0.00    +0.022 C 
BRANCH   5  12
ATOM      8  C   UNL     1      31.470  21.764  14.862  0.00  0.00    +0.052 A 
ATOM      9  C   UNL     1      30.555  21.863  15.910  0.00  0.00    +0.019 A 
ATOM     10  C   UNL     1      30.643  20.988  16.993  0.00  0.00    +0.002 A 
ATOM     11  C   UNL     1      31.661  20.031  17.042  0.00  0.00    +0.005 A 
ATOM     12  C   UNL     1      32.617  19.930  16.016  0.00  0.00    -0.031 A 
ATOM     13  C   UNL     1      32.477  20.796  14.914  0.00  0.00    +0.023 A 
BRANCH   8  15
ATOM     14  N   UNL     1      31.364  23.411  12.862  0.00  0.00    -0.191 NA
ATOM     15  C   UNL     1      31.408  22.667  13.754  0.00  0.00    +0.099 C 
ENDBRANCH   8  15
ENDBRANCH   5  12
ENDBRANCH   1   5
BRANCH   3  16
ATOM     16  C   UNL     1      33.179  16.471  13.282  0.00  0.00    +0.159 C 
BRANCH  16  17
ATOM     17  C   UNL     1      32.381  15.187  13.327  0.00  0.00    +0.058 A 
ATOM     18  C   UNL     1      31.542  14.918  14.411  0.00  0.00    +0.028 A 
ATOM     19  C   UNL     1      30.837  13.715  14.443  0.00  0.00    +0.042 A 
ATOM     20  C   UNL     1      30.988  12.828  13.392  0.00  0.00    +0.141 A 
ATOM     21  F   UNL     1      30.332  11.660  13.392  0.00  0.00    -0.204 F 
ATOM     22  C   UNL     1      31.827  13.166  12.345  0.00  0.00    +0.149 A 
ATOM     23  N   UNL     1      32.524  14.326  12.283  0.00  0.00    -0.255 NA
ENDBRANCH  16  17
ENDBRANCH   3  16
TORSDOF 5
ENDMDL
MODEL 2
REMARK VINA RESULT:      -6.7      1.083      1.392
REMARK  Name = ZINC000435351830
REMARK  5 active torsions:
REMARK  status: ('A' for Active; 'I' for Inactive)
REMARK    1  A    between atoms: C_2  and  C_3
REMARK    2  A    between atoms: C_7  and  C_8
REMARK    3  A    between atoms: C_8  and  C_9
REMARK    4  A    between atoms: N_11  and  C_12
REMARK    5  A    between atoms: C_12  and  C_13
REMARK                            x       y       z     vdW  Elec       q    Type
REMARK                         _______ _______ _______ _____ _____    ______ ____
ROOT
ATOM      1  C   UNL     1      34.418  18.635  15.752  0.00  0.00    +0.224 C 
ATOM      2  O   UNL     1      35.526  18.886  15.292  0.00  0.00    -0.275 OA
ATOM      3  N   UNL     1      33.590  17.648  15.286  0.00  0.00    -0.309 N 
ATOM      4  H   UNL     1      32.704  17.479  15.741  0.00  0.00    +0.149 HD
ENDROOT
BRANCH   1   5
ATOM      5  C   UNL     1      33.843  19.470  16.868  0.00  0.00    +0.072 C 
ATOM      6  C   UNL     1      34.123  19.051  18.307  0.00  0.00    +0.022 C 
ATOM      7  C   UNL     1      34.839  20.236  17.746  0.00  0.00    +0.022 C 
BRANCH   5  12
ATOM      8  C   UNL     1      31.456  21.840  15.023  0.00  0.00    +0.052 A 
ATOM      9  C   UNL     1      30.353  21.876  15.875  0.00  0.00    +0.019 A 
ATOM     10  C   UNL     1      30.342  21.090  17.028  0.00  0.00    +0.002 A 
ATOM     11  C   UNL     1      31.443  20.288  17.343  0.00  0.00    +0.005 A 
ATOM     12  C   UNL     1      32.581  20.258  16.519  0.00  0.00    -0.031 A 
ATOM     13  C   UNL     1      32.548  21.026  15.339  0.00  0.00    +0.023 A 
BRANCH   8  15
ATOM     14  N   UNL     1      31.536  23.326  12.899  0.00  0.00    -0.191 NA
ATOM     15  C   UNL     1      31.494  22.655  13.847  0.00  0.00    +0.099 C 
ENDBRANCH   8  15
ENDBRANCH   5  12
ENDBRANCH   1   5
BRANCH   3  16
ATOM     16  C   UNL     1      33.930  16.859  14.122  0.00  0.00    +0.159 C 
BRANCH  16  17
ATOM     17  C   UNL     1      32.831  15.908  13.704  0.00  0.00    +0.058 A 
ATOM     18  C   UNL     1      32.459  15.810  12.361  0.00  0.00    +0.028 A 
ATOM     19  C   UNL     1      31.425  14.946  12.003  0.00  0.00    +0.042 A 
ATOM     20  C   UNL     1      30.803  14.206  12.994  0.00  0.00    +0.141 A 
ATOM     21  F   UNL     1      29.802  13.370  12.688  0.00  0.00    -0.204 F 
ATOM     22  C   UNL     1      31.232  14.344  14.301  0.00  0.00    +0.149 A 
ATOM     23  N   UNL     1      32.235  15.173  14.681  0.00  0.00    -0.255 NA
ENDBRANCH  16  17
ENDBRANCH   3  16
TORSDOF 5
ENDMDL
MODEL 3
REMARK VINA RESULT:      -6.3      2.369      3.726
REMARK  Name = ZINC000435351830
REMARK  5 active torsions:
REMARK  status: ('A' for Active; 'I' for Inactive)
REMARK    1  A    between atoms: C_2  and  C_3
REMARK    2  A    between atoms: C_7  and  C_8
REMARK    3  A    between atoms: C_8  and  C_9
REMARK    4  A    between atoms: N_11  and  C_12
REMARK    5  A    between atoms: C_12  and  C_13
REMARK                            x       y       z     vdW  Elec       q    Type
REMARK                         _______ _______ _______ _____ _____    ______ ____
ROOT
ATOM      1  C   UNL     1      32.883  19.613  14.818  0.00  0.00    +0.224 C 
ATOM      2  O   UNL     1      32.866  20.277  13.788  0.00  0.00    -0.275 OA
ATOM      3  N   UNL     1      33.187  18.279  14.877  0.00  0.00    -0.309 N 
ATOM      4  H   UNL     1      33.214  17.807  15.770  0.00  0.00    +0.149 HD
ENDROOT
BRANCH   1   5
ATOM      5  C   UNL     1      32.495  20.232  16.137  0.00  0.00    +0.072 C 
ATOM      6  C   UNL     1      31.444  21.336  16.141  0.00  0.00    +0.022 C 
ATOM      7  C   UNL     1      31.065  19.977  16.630  0.00  0.00    +0.022 C 
BRANCH   5  12
ATOM      8  C   UNL     1      35.542  21.150  18.279  0.00  0.00    +0.052 A 
ATOM      9  C   UNL     1      35.654  20.048  19.127  0.00  0.00    +0.019 A 
ATOM     10  C   UNL     1      34.712  19.022  19.057  0.00  0.00    +0.002 A 
ATOM     11  C   UNL     1      33.674  19.083  18.123  0.00  0.00    +0.005 A 
ATOM     12  C   UNL     1      33.556  20.165  17.234  0.00  0.00    -0.031 A 
ATOM     13  C   UNL     1      34.494  21.208  17.356  0.00  0.00    +0.023 A 
BRANCH   8  15
ATOM     14  N   UNL     1      37.290  23.065  18.347  0.00  0.00    -0.191 NA
ATOM     15  C   UNL     1      36.511  22.203  18.321  0.00  0.00    +0.099 C 
ENDBRANCH   8  15
ENDBRANCH   5  12
ENDBRANCH   1   5
BRANCH   3  16
ATOM     16  C   UNL     1      33.432  17.503  13.680  0.00  0.00    +0.159 C 
BRANCH  16  17
ATOM     17  C   UNL     1      32.581  16.257  13.591  0.00  0.00    +0.058 A 
ATOM     18  C   UNL     1      32.024  15.870  12.370  0.00  0.00    +0.028 A 
ATOM     19  C   UNL     1      31.222  14.732  12.318  0.00  0.00    +0.042 A 
ATOM     20  C   UNL     1      31.008  14.015  13.483  0.00  0.00    +0.141 A 
ATOM     21  F   UNL     1      30.237  12.920  13.472  0.00  0.00    -0.204 F 
ATOM     22  C   UNL     1      31.601  14.449  14.654  0.00  0.00    +0.149 A 
ATOM     23  N   UNL     1      32.388  15.550  14.737  0.00  0.00    -0.255 NA
ENDBRANCH  16  17
ENDBRANCH   3  16
TORSDOF 5
ENDMDL
MODEL 4
REMARK VINA RESULT:      -6.2      5.636      9.331
REMARK  Name = ZINC000435351830
REMARK  5 active torsions:
REMARK  status: ('A' for Active; 'I' for Inactive)
REMARK    1  A    between atoms: C_2  and  C_3
REMARK    2  A    between atoms: C_7  and  C_8
REMARK    3  A    between atoms: C_8  and  C_9
REMARK    4  A    between atoms: N_11  and  C_12
REMARK    5  A    between atoms: C_12  and  C_13
REMARK                            x       y       z     vdW  Elec       q    Type
REMARK                         _______ _______ _______ _____ _____    ______ ____
ROOT
ATOM      1  C   UNL     1      33.313  22.688  15.206  0.00  0.00    +0.224 C 
ATOM      2  O   UNL     1      34.136  22.395  14.346  0.00  0.00    -0.275 OA
ATOM      3  N   UNL     1      33.309  23.865  15.908  0.00  0.00    -0.309 N 
ATOM      4  H   UNL     1      32.575  24.049  16.577  0.00  0.00    +0.149 HD
ENDROOT
BRANCH   1   5
ATOM      5  C   UNL     1      32.241  21.707  15.609  0.00  0.00    +0.072 C 
ATOM      6  C   UNL     1      30.950  22.249  16.212  0.00  0.00    +0.022 C 
ATOM      7  C   UNL     1      30.933  21.742  14.808  0.00  0.00    +0.022 C 
BRANCH   5  12
ATOM      8  C   UNL     1      33.773  18.792  17.575  0.00  0.00    +0.052 A 
ATOM      9  C   UNL     1      33.803  17.772  16.623  0.00  0.00    +0.019 A 
ATOM     10  C   UNL     1      33.275  17.996  15.352  0.00  0.00    +0.002 A 
ATOM     11  C   UNL     1      32.741  19.246  15.022  0.00  0.00    +0.005 A 
ATOM     12  C   UNL     1      32.728  20.301  15.951  0.00  0.00    -0.031 A 
ATOM     13  C   UNL     1      33.227  20.034  17.240  0.00  0.00    +0.023 A 
BRANCH   8  15
ATOM     14  N   UNL     1      34.783  18.406  19.932  0.00  0.00    -0.191 NA
ATOM     15  C   UNL     1      34.330  18.587  18.878  0.00  0.00    +0.099 C 
ENDBRANCH   8  15
ENDBRANCH   5  12
ENDBRANCH   1   5
BRANCH   3  16
ATOM     16  C   UNL     1      34.360  24.846  15.749  0.00  0.00    +0.159 C 
BRANCH  16  17
ATOM     17  C   UNL     1      34.618  25.652  17.002  0.00  0.00    +0.058 A 
ATOM     18  C   UNL     1      33.698  25.633  18.053  0.00  0.00    +0.028 A 
ATOM     19  C   UNL     1      33.946  26.405  19.187  0.00  0.00    +0.042 A 
ATOM     20  C   UNL     1      35.103  27.163  19.237  0.00  0.00    +0.141 A 
ATOM     21  F   UNL     1      35.370  27.922  20.308  0.00  0.00    -0.204 F 
ATOM     22  C   UNL     1      35.975  27.124  18.164  0.00  0.00    +0.149 A 
ATOM     23  N   UNL     1      35.765  26.383  17.049  0.00  0.00    -0.255 NA
ENDBRANCH  16  17
ENDBRANCH   3  16
TORSDOF 5
ENDMDL
MODEL 5
REMARK VINA RESULT:      -6.0      2.190      4.076
REMARK  Name = ZINC000435351830
REMARK  5 active torsions:
REMARK  status: ('A' for Active; 'I' for Inactive)
REMARK    1  A    between atoms: C_2  and  C_3
REMARK    2  A    between atoms: C_7  and  C_8
REMARK    3  A    between atoms: C_8  and  C_9
REMARK    4  A    between atoms: N_11  and  C_12
REMARK    5  A    between atoms: C_12  and  C_13
REMARK                            x       y       z     vdW  Elec       q    Type
REMARK                         _______ _______ _______ _____ _____    ______ ____
ROOT
ATOM      1  C   UNL     1      33.200  19.675  14.556  0.00  0.00    +0.224 C 
ATOM      2  O   UNL     1      33.412  20.291  13.518  0.00  0.00    -0.275 OA
ATOM      3  N   UNL     1      33.280  18.313  14.680  0.00  0.00    -0.309 N 
ATOM      4  H   UNL     1      33.125  17.880  15.580  0.00  0.00    +0.149 HD
ENDROOT
BRANCH   1   5
ATOM      5  C   UNL     1      32.761  20.400  15.803  0.00  0.00    +0.072 C 
ATOM      6  C   UNL     1      31.471  21.211  15.756  0.00  0.00    +0.022 C 
ATOM      7  C   UNL     1      31.476  19.904  16.478  0.00  0.00    +0.022 C 
BRANCH   5  12
ATOM      8  C   UNL     1      35.332  20.105  18.635  0.00  0.00    +0.052 A 
ATOM      9  C   UNL     1      35.827  21.407  18.726  0.00  0.00    +0.019 A 
ATOM     10  C   UNL     1      35.378  22.382  17.835  0.00  0.00    +0.002 A 
ATOM     11  C   UNL     1      34.416  22.065  16.871  0.00  0.00    +0.005 A 
ATOM     12  C   UNL     1      33.877  20.770  16.778  0.00  0.00    -0.031 A 
ATOM     13  C   UNL     1      34.380  19.795  17.659  0.00  0.00    +0.023 A 
BRANCH   8  15
ATOM     14  N   UNL     1      36.104  18.270  20.297  0.00  0.00    -0.191 NA
ATOM     15  C   UNL     1      35.765  19.096  19.553  0.00  0.00    +0.099 C 
ENDBRANCH   8  15
ENDBRANCH   5  12
ENDBRANCH   1   5
BRANCH   3  16
ATOM     16  C   UNL     1      33.541  17.461  13.540  0.00  0.00    +0.159 C 
BRANCH  16  17
ATOM     17  C   UNL     1      32.659  16.233  13.499  0.00  0.00    +0.058 A 
ATOM     18  C   UNL     1      32.115  15.798  12.287  0.00  0.00    +0.028 A 
ATOM     19  C   UNL     1      31.284  14.679  12.279  0.00  0.00    +0.042 A 
ATOM     20  C   UNL     1      31.029  14.030  13.474  0.00  0.00    +0.141 A 
ATOM     21  F   UNL     1      30.230  12.956  13.504  0.00  0.00    -0.204 F 
ATOM     22  C   UNL     1      31.611  14.509  14.633  0.00  0.00    +0.149 A 
ATOM     23  N   UNL     1      32.425  15.592  14.676  0.00  0.00    -0.255 NA
ENDBRANCH  16  17
ENDBRANCH   3  16
TORSDOF 5
ENDMDL
MODEL 6
REMARK VINA RESULT:      -6.0      2.806      3.793
REMARK  Name = ZINC000435351830
REMARK  5 active torsions:
REMARK  status: ('A' for Active; 'I' for Inactive)
REMARK    1  A    between atoms: C_2  and  C_3
REMARK    2  A    between atoms: C_7  and  C_8
REMARK    3  A    between atoms: C_8  and  C_9
REMARK    4  A    between atoms: N_11  and  C_12
REMARK    5  A    between atoms: C_12  and  C_13
REMARK                            x       y       z     vdW  Elec       q    Type
REMARK                         _______ _______ _______ _____ _____    ______ ____
ROOT
ATOM      1  C   UNL     1      32.793  19.975  15.527  0.00  0.00    +0.224 C 
ATOM      2  O   UNL     1      33.101  19.936  16.713  0.00  0.00    -0.275 OA
ATOM      3  N   UNL     1      32.794  18.890  14.689  0.00  0.00    -0.309 N 
ATOM      4  H   UNL     1      32.494  18.995  13.731  0.00  0.00    +0.149 HD
ENDROOT
BRANCH   1   5
ATOM      5  C   UNL     1      32.434  21.282  14.869  0.00  0.00    +0.072 C 
ATOM      6  C   UNL     1      31.615  21.249  13.584  0.00  0.00    +0.022 C 
ATOM      7  C   UNL     1      30.949  21.667  14.854  0.00  0.00    +0.022 C 
BRANCH   5  12
ATOM      8  C   UNL     1      33.949  24.374  16.562  0.00  0.00    +0.052 A 
ATOM      9  C   UNL     1      34.978  24.720  15.686  0.00  0.00    +0.019 A 
ATOM     10  C   UNL     1      35.232  23.925  14.568  0.00  0.00    +0.002 A 
ATOM     11  C   UNL     1      34.443  22.801  14.310  0.00  0.00    +0.005 A 
ATOM     12  C   UNL     1      33.379  22.447  15.158  0.00  0.00    -0.031 A 
ATOM     13  C   UNL     1      33.173  23.240  16.303  0.00  0.00    +0.023 A 
BRANCH   8  15
ATOM     14  N   UNL     1      33.431  25.839  18.638  0.00  0.00    -0.191 NA
ATOM     15  C   UNL     1      33.660  25.188  17.703  0.00  0.00    +0.099 C 
ENDBRANCH   8  15
ENDBRANCH   5  12
ENDBRANCH   1   5
BRANCH   3  16
ATOM     16  C   UNL     1      33.261  17.593  15.128  0.00  0.00    +0.159 C 
BRANCH  16  17
ATOM     17  C   UNL     1      32.634  16.445  14.368  0.00  0.00    +0.058 A 
ATOM     18  C   UNL     1      32.514  16.504  12.978  0.00  0.00    +0.028 A 
ATOM     19  C   UNL     1      31.909  15.445  12.302  0.00  0.00    +0.042 A 
ATOM     20  C   UNL     1      31.451  14.364  13.035  0.00  0.00    +0.141 A 
ATOM     21  F   UNL     1      30.859  13.332  12.420  0.00  0.00    -0.204 F 
ATOM     22  C   UNL     1      31.614  14.368  14.408  0.00  0.00    +0.149 A 
ATOM     23  N   UNL     1      32.199  15.379  15.094  0.00  0.00    -0.255 NA
ENDBRANCH  16  17
ENDBRANCH   3  16
TORSDOF 5
ENDMDL
MODEL 7
REMARK VINA RESULT:      -6.0      2.404      3.085
REMARK  Name = ZINC000435351830
REMARK  5 active torsions:
REMARK  status: ('A' for Active; 'I' for Inactive)
REMARK    1  A    between atoms: C_2  and  C_3
REMARK    2  A    between atoms: C_7  and  C_8
REMARK    3  A    between atoms: C_8  and  C_9
REMARK    4  A    between atoms: N_11  and  C_12
REMARK    5  A    between atoms: C_12  and  C_13
REMARK                            x       y       z     vdW  Elec       q    Type
REMARK                         _______ _______ _______ _____ _____    ______ ____
ROOT
ATOM      1  C   UNL     1      33.239  17.258  15.478  0.00  0.00    +0.224 C 
ATOM      2  O   UNL     1      33.392  16.329  16.263  0.00  0.00    -0.275 OA
ATOM      3  N   UNL     1      32.675  17.139  14.236  0.00  0.00    -0.309 N 
ATOM      4  H   UNL     1      32.551  17.959  13.659  0.00  0.00    +0.149 HD
ENDROOT
BRANCH   1   5
ATOM      5  C   UNL     1      33.737  18.640  15.818  0.00  0.00    +0.072 C 
ATOM      6  C   UNL     1      34.585  18.819  17.072  0.00  0.00    +0.022 C 
ATOM      7  C   UNL     1      35.251  18.872  15.736  0.00  0.00    +0.022 C 
BRANCH   5  12
ATOM      8  C   UNL     1      31.138  21.457  15.664  0.00  0.00    +0.052 A 
ATOM      9  C   UNL     1      31.184  21.833  14.321  0.00  0.00    +0.019 A 
ATOM     10  C   UNL     1      32.096  21.221  13.462  0.00  0.00    +0.002 A 
ATOM     11  C   UNL     1      32.944  20.216  13.936  0.00  0.00    +0.005 A 
ATOM     12  C   UNL     1      32.897  19.795  15.276  0.00  0.00    -0.031 A 
ATOM     13  C   UNL     1      31.998  20.460  16.132  0.00  0.00    +0.023 A 
BRANCH   8  15
ATOM     14  N   UNL     1      29.433  22.561  17.276  0.00  0.00    -0.191 NA
ATOM     15  C   UNL     1      30.194  22.059  16.556  0.00  0.00    +0.099 C 
ENDBRANCH   8  15
ENDBRANCH   5  12
ENDBRANCH   1   5
BRANCH   3  16
ATOM     16  C   UNL     1      32.285  15.853  13.699  0.00  0.00    +0.159 C 
BRANCH  16  17
ATOM     17  C   UNL     1      33.255  15.316  12.671  0.00  0.00    +0.058 A 
ATOM     18  C   UNL     1      34.249  16.144  12.142  0.00  0.00    +0.028 A 
ATOM     19  C   UNL     1      35.115  15.633  11.177  0.00  0.00    +0.042 A 
ATOM     20  C   UNL     1      34.965  14.317  10.777  0.00  0.00    +0.141 A 
ATOM     21  F   UNL     1      35.775  13.795   9.847  0.00  0.00    -0.204 F 
ATOM     22  C   UNL     1      33.967  13.552  11.352  0.00  0.00    +0.149 A 
ATOM     23  N   UNL     1      33.110  14.017  12.294  0.00  0.00    -0.255 NA
ENDBRANCH  16  17
ENDBRANCH   3  16
TORSDOF 5
ENDMDL
MODEL 8
REMARK VINA RESULT:      -6.0      2.945      7.033
REMARK  Name = ZINC000435351830
REMARK  5 active torsions:
REMARK  status: ('A' for Active; 'I' for Inactive)
REMARK    1  A    between atoms: C_2  and  C_3
REMARK    2  A    between atoms: C_7  and  C_8
REMARK    3  A    between atoms: C_8  and  C_9
REMARK    4  A    between atoms: N_11  and  C_12
REMARK    5  A    between atoms: C_12  and  C_13
REMARK                            x       y       z     vdW  Elec       q    Type
REMARK                         _______ _______ _______ _____ _____    ______ ____
ROOT
ATOM      1  C   UNL     1      34.883  17.484  13.897  0.00  0.00    +0.224 C 
ATOM      2  O   UNL     1      35.492  16.821  14.729  0.00  0.00    -0.275 OA
ATOM      3  N   UNL     1      34.280  18.687  14.155  0.00  0.00    -0.309 N 
ATOM      4  H   UNL     1      33.826  19.192  13.407  0.00  0.00    +0.149 HD
ENDROOT
BRANCH   1   5
ATOM      5  C   UNL     1      34.700  16.973  12.491  0.00  0.00    +0.072 C 
ATOM      6  C   UNL     1      34.789  17.966  11.338  0.00  0.00    +0.022 C 
ATOM      7  C   UNL     1      35.924  17.023  11.569  0.00  0.00    +0.022 C 
BRANCH   5  12
ATOM      8  C   UNL     1      31.937  14.380  13.095  0.00  0.00    +0.052 A 
ATOM      9  C   UNL     1      32.349  13.313  12.296  0.00  0.00    +0.019 A 
ATOM     10  C   UNL     1      33.493  13.439  11.508  0.00  0.00    +0.002 A 
ATOM     11  C   UNL     1      34.240  14.620  11.536  0.00  0.00    +0.005 A 
ATOM     12  C   UNL     1      33.867  15.699  12.357  0.00  0.00    -0.031 A 
ATOM     13  C   UNL     1      32.684  15.561  13.108  0.00  0.00    +0.023 A 
BRANCH   8  15
ATOM     14  N   UNL     1      29.844  14.175  14.611  0.00  0.00    -0.191 NA
ATOM     15  C   UNL     1      30.779  14.261  13.927  0.00  0.00    +0.099 C 
ENDBRANCH   8  15
ENDBRANCH   5  12
ENDBRANCH   1   5
BRANCH   3  16
ATOM     16  C   UNL     1      34.233  19.242  15.490  0.00  0.00    +0.159 C 
BRANCH  16  17
ATOM     17  C   UNL     1      32.962  20.011  15.774  0.00  0.00    +0.058 A 
ATOM     18  C   UNL     1      32.222  19.744  16.928  0.00  0.00    +0.028 A 
ATOM     19  C   UNL     1      31.040  20.448  17.155  0.00  0.00    +0.042 A 
ATOM     20  C   UNL     1      30.640  21.394  16.227  0.00  0.00    +0.141 A 
ATOM     21  F   UNL     1      29.506  22.083  16.409  0.00  0.00    -0.204 F 
ATOM     22  C   UNL     1      31.429  21.613  15.113  0.00  0.00    +0.149 A 
ATOM     23  N   UNL     1      32.584  20.949  14.865  0.00  0.00    -0.255 NA
ENDBRANCH  16  17
ENDBRANCH   3  16
TORSDOF 5
ENDMDL
MODEL 9
REMARK VINA RESULT:      -5.9      1.899      3.382
REMARK  Name = ZINC000435351830
REMARK  5 active torsions:
REMARK  status: ('A' for Active; 'I' for Inactive)
REMARK    1  A    between atoms: C_2  and  C_3
REMARK    2  A    between atoms: C_7  and  C_8
REMARK    3  A    between atoms: C_8  and  C_9
REMARK    4  A    between atoms: N_11  and  C_12
REMARK    5  A    between atoms: C_12  and  C_13
REMARK                            x       y       z     vdW  Elec       q    Type
REMARK                         _______ _______ _______ _____ _____    ______ ____
ROOT
ATOM      1  C   UNL     1      34.739  19.174  13.112  0.00  0.00    +0.224 C 
ATOM      2  O   UNL     1      35.820  19.116  12.537  0.00  0.00    -0.275 OA
ATOM      3  N   UNL     1      33.908  18.103  13.313  0.00  0.00    -0.309 N 
ATOM      4  H   UNL     1      33.048  18.224  13.828  0.00  0.00    +0.149 HD
ENDROOT
BRANCH   1   5
ATOM      5  C   UNL     1      34.202  20.493  13.606  0.00  0.00    +0.072 C 
ATOM      6  C   UNL     1      34.929  21.771  13.202  0.00  0.00    +0.022 C 
ATOM      7  C   UNL     1      33.624  21.446  12.553  0.00  0.00    +0.022 C 
BRANCH   5  12
ATOM      8  C   UNL     1      33.257  19.700  17.239  0.00  0.00    +0.052 A 
ATOM      9  C   UNL     1      31.932  20.132  17.304  0.00  0.00    +0.019 A 
ATOM     10  C   UNL     1      31.346  20.737  16.192  0.00  0.00    +0.002 A 
ATOM     11  C   UNL     1      32.073  20.888  15.008  0.00  0.00    +0.005 A 
ATOM     12  C   UNL     1      33.399  20.433  14.904  0.00  0.00    -0.031 A 
ATOM     13  C   UNL     1      33.981  19.867  16.055  0.00  0.00    +0.023 A 
BRANCH   8  15
ATOM     14  N   UNL     1      34.376  18.529  19.265  0.00  0.00    -0.191 NA
ATOM     15  C   UNL     1      33.869  19.058  18.362  0.00  0.00    +0.099 C 
ENDBRANCH   8  15
ENDBRANCH   5  12
ENDBRANCH   1   5
BRANCH   3  16
ATOM     16  C   UNL     1      34.207  16.798  12.765  0.00  0.00    +0.159 C 
BRANCH  16  17
ATOM     17  C   UNL     1      33.068  15.814  12.913  0.00  0.00    +0.058 A 
ATOM     18  C   UNL     1      32.400  15.336  11.783  0.00  0.00    +0.028 A 
ATOM     19  C   UNL     1      31.337  14.449  11.946  0.00  0.00    +0.042 A 
ATOM     20  C   UNL     1      30.981  14.066  13.227  0.00  0.00    +0.141 A 
ATOM     21  F   UNL     1      29.960  13.221  13.422  0.00  0.00    -0.204 F 
ATOM     22  C   UNL     1      31.694  14.569  14.299  0.00  0.00    +0.149 A 
ATOM     23  N   UNL     1      32.734  15.430  14.175  0.00  0.00    -0.255 NA
ENDBRANCH  16  17
ENDBRANCH   3  16
TORSDOF 5
ENDMDL
