MODEL 1
REMARK VINA RESULT:      -6.7      0.000      0.000
REMARK  Name = ZINC000870248439
REMARK  2 active torsions:
REMARK  status: ('A' for Active; 'I' for Inactive)
REMARK    1  A    between atoms: C_2  and  C_4
REMARK    2  A    between atoms: C_7  and  C_8
REMARK                            x       y       z     vdW  Elec       q    Type
REMARK                         _______ _______ _______ _____ _____    ______ ____
ROOT
ATOM      1  C   UNL     1      31.380  22.034  15.628  0.00  0.00    +0.247 C 
ATOM      2  O   UNL     1      32.062  21.193  16.212  0.00  0.00    -0.270 OA
ATOM      3  N   UNL     1      31.813  22.712  14.480  0.00  0.00    -0.297 N 
ATOM      4  C   UNL     1      31.059  23.745  13.766  0.00  0.00    +0.108 C 
ATOM      5  C   UNL     1      31.223  23.673  12.253  0.00  0.00    +0.026 C 
ATOM      6  C   UNL     1      32.694  23.592  11.792  0.00  0.00    -0.025 C 
ATOM      7  C   UNL     1      32.687  23.304  10.269  0.00  0.00    +0.017 C 
ATOM      8  C   UNL     1      34.064  23.226   9.623  0.00  0.00    +0.069 C 
ATOM      9  S   UNL     1      34.997  24.772   9.797  0.00  0.00    -0.161 S 
ATOM     10  C   UNL     1      34.851  25.008  11.589  0.00  0.00    +0.069 C 
ATOM     11  C   UNL     1      33.401  24.947  12.055  0.00  0.00    +0.017 C 
ATOM     12  C   UNL     1      33.350  22.419  12.565  0.00  0.00    +0.026 C 
ATOM     13  C   UNL     1      33.209  22.548  14.081  0.00  0.00    +0.108 C 
ENDROOT
BRANCH   1  17
ATOM     14  C   UNL     1      27.515  22.563  17.364  0.00  0.00    +0.037 A 
ATOM     15  C   UNL     1      27.652  21.750  16.234  0.00  0.00    +0.014 A 
ATOM     16  C   UNL     1      28.891  21.648  15.601  0.00  0.00    +0.014 A 
ATOM     17  C   UNL     1      30.013  22.278  16.152  0.00  0.00    +0.037 A 
ATOM     18  C   UNL     1      29.857  23.162  17.227  0.00  0.00    +0.014 A 
ATOM     19  C   UNL     1      28.604  23.313  17.827  0.00  0.00    +0.014 A 
BRANCH  14  21
ATOM     20  N   UNL     1      26.065  23.704  18.946  0.00  0.00    -0.325 N 
ATOM     21  C   UNL     1      26.223  22.651  18.089  0.00  0.00    +0.242 C 
ATOM     22  O   UNL     1      25.321  21.851  17.892  0.00  0.00    -0.270 OA
ATOM     23  H   UNL     1      25.140  23.823  19.339  0.00  0.00    +0.145 HD
ATOM     24  H   UNL     1      26.673  24.511  18.930  0.00  0.00    +0.145 HD
ENDBRANCH  14  21
ENDBRANCH   1  17
TORSDOF 2
ENDMDL
MODEL 2
REMARK VINA RESULT:      -6.5      2.092      2.951
REMARK  Name = ZINC000870248439
REMARK  2 active torsions:
REMARK  status: ('A' for Active; 'I' for Inactive)
REMARK    1  A    between atoms: C_2  and  C_4
REMARK    2  A    between atoms: C_7  and  C_8
REMARK                            x       y       z     vdW  Elec       q    Type
REMARK                         _______ _______ _______ _____ _____    ______ ____
ROOT
ATOM      1  C   UNL     1      30.219  24.010  13.432  0.00  0.00    +0.247 C 
ATOM      2  O   UNL     1      29.591  25.044  13.210  0.00  0.00    -0.270 OA
ATOM      3  N   UNL     1      31.451  23.716  12.832  0.00  0.00    -0.297 N 
ATOM      4  C   UNL     1      32.224  22.488  13.031  0.00  0.00    +0.108 C 
ATOM      5  C   UNL     1      33.729  22.724  13.075  0.00  0.00    +0.026 C 
ATOM      6  C   UNL     1      34.258  23.567  11.895  0.00  0.00    -0.025 C 
ATOM      7  C   UNL     1      35.741  23.903  12.193  0.00  0.00    +0.017 C 
ATOM      8  C   UNL     1      36.449  24.707  11.111  0.00  0.00    +0.069 C 
ATOM      9  S   UNL     1      36.482  23.842   9.518  0.00  0.00    -0.161 S 
ATOM     10  C   UNL     1      34.718  23.457   9.350  0.00  0.00    +0.069 C 
ATOM     11  C   UNL     1      34.171  22.745  10.582  0.00  0.00    +0.017 C 
ATOM     12  C   UNL     1      33.407  24.863  11.843  0.00  0.00    +0.026 C 
ATOM     13  C   UNL     1      31.905  24.589  11.752  0.00  0.00    +0.108 C 
ENDROOT
BRANCH   1  17
ATOM     14  C   UNL     1      28.313  21.414  16.235  0.00  0.00    +0.037 A 
ATOM     15  C   UNL     1      28.981  22.552  16.701  0.00  0.00    +0.014 A 
ATOM     16  C   UNL     1      29.688  23.354  15.804  0.00  0.00    +0.014 A 
ATOM     17  C   UNL     1      29.650  23.075  14.434  0.00  0.00    +0.037 A 
ATOM     18  C   UNL     1      29.059  21.888  13.982  0.00  0.00    +0.014 A 
ATOM     19  C   UNL     1      28.399  21.051  14.885  0.00  0.00    +0.014 A 
BRANCH  14  21
ATOM     20  N   UNL     1      27.918  19.279  17.328  0.00  0.00    -0.325 N 
ATOM     21  C   UNL     1      27.509  20.572  17.155  0.00  0.00    +0.242 C 
ATOM     22  O   UNL     1      26.556  21.025  17.771  0.00  0.00    -0.270 OA
ATOM     23  H   UNL     1      27.439  18.753  18.047  0.00  0.00    +0.145 HD
ATOM     24  H   UNL     1      28.835  18.960  17.048  0.00  0.00    +0.145 HD
ENDBRANCH  14  21
ENDBRANCH   1  17
TORSDOF 2
ENDMDL
MODEL 3
REMARK VINA RESULT:      -6.5      2.383      3.270
REMARK  Name = ZINC000870248439
REMARK  2 active torsions:
REMARK  status: ('A' for Active; 'I' for Inactive)
REMARK    1  A    between atoms: C_2  and  C_4
REMARK    2  A    between atoms: C_7  and  C_8
REMARK                            x       y       z     vdW  Elec       q    Type
REMARK                         _______ _______ _______ _____ _____    ______ ____
ROOT
ATOM      1  C   UNL     1      31.327  22.979  13.874  0.00  0.00    +0.247 C 
ATOM      2  O   UNL     1      31.207  24.202  13.940  0.00  0.00    -0.270 OA
ATOM      3  N   UNL     1      32.288  22.344  13.075  0.00  0.00    -0.297 N 
ATOM      4  C   UNL     1      32.453  20.896  12.931  0.00  0.00    +0.108 C 
ATOM      5  C   UNL     1      33.910  20.463  12.827  0.00  0.00    +0.026 C 
ATOM      6  C   UNL     1      34.718  21.255  11.778  0.00  0.00    -0.025 C 
ATOM      7  C   UNL     1      36.207  20.859  11.944  0.00  0.00    +0.017 C 
ATOM      8  C   UNL     1      37.163  21.520  10.960  0.00  0.00    +0.069 C 
ATOM      9  S   UNL     1      36.768  21.115   9.237  0.00  0.00    -0.161 S 
ATOM     10  C   UNL     1      35.009  21.555   9.223  0.00  0.00    +0.069 C 
ATOM     11  C   UNL     1      34.242  20.874  10.352  0.00  0.00    +0.017 C 
ATOM     12  C   UNL     1      34.518  22.761  12.089  0.00  0.00    +0.026 C 
ATOM     13  C   UNL     1      33.045  23.170  12.139  0.00  0.00    +0.108 C 
ENDROOT
BRANCH   1  17
ATOM     14  C   UNL     1      28.579  20.864  16.364  0.00  0.00    +0.037 A 
ATOM     15  C   UNL     1      29.770  21.347  16.916  0.00  0.00    +0.014 A 
ATOM     16  C   UNL     1      30.718  21.953  16.091  0.00  0.00    +0.014 A 
ATOM     17  C   UNL     1      30.436  22.165  14.737  0.00  0.00    +0.037 A 
ATOM     18  C   UNL     1      29.286  21.602  14.170  0.00  0.00    +0.014 A 
ATOM     19  C   UNL     1      28.361  20.941  14.983  0.00  0.00    +0.014 A 
BRANCH  14  21
ATOM     20  N   UNL     1      27.670  18.940  17.539  0.00  0.00    -0.325 N 
ATOM     21  C   UNL     1      27.529  20.262  17.223  0.00  0.00    +0.242 C 
ATOM     22  O   UNL     1      26.609  20.928  17.673  0.00  0.00    -0.270 OA
ATOM     23  H   UNL     1      27.019  18.573  18.222  0.00  0.00    +0.145 HD
ATOM     24  H   UNL     1      28.539  18.442  17.407  0.00  0.00    +0.145 HD
ENDBRANCH  14  21
ENDBRANCH   1  17
TORSDOF 2
ENDMDL
MODEL 4
REMARK VINA RESULT:      -6.3      4.094      8.492
REMARK  Name = ZINC000870248439
REMARK  2 active torsions:
REMARK  status: ('A' for Active; 'I' for Inactive)
REMARK    1  A    between atoms: C_2  and  C_4
REMARK    2  A    between atoms: C_7  and  C_8
REMARK                            x       y       z     vdW  Elec       q    Type
REMARK                         _______ _______ _______ _____ _____    ______ ____
ROOT
ATOM      1  C   UNL     1      31.646  24.195  11.383  0.00  0.00    +0.247 C 
ATOM      2  O   UNL     1      30.595  24.634  10.916  0.00  0.00    -0.270 OA
ATOM      3  N   UNL     1      31.848  23.982  12.753  0.00  0.00    -0.297 N 
ATOM      4  C   UNL     1      33.087  23.498  13.366  0.00  0.00    +0.108 C 
ATOM      5  C   UNL     1      32.850  22.552  14.536  0.00  0.00    +0.026 C 
ATOM      6  C   UNL     1      31.851  23.095  15.580  0.00  0.00    -0.025 C 
ATOM      7  C   UNL     1      31.550  21.947  16.576  0.00  0.00    +0.017 C 
ATOM      8  C   UNL     1      30.601  22.310  17.710  0.00  0.00    +0.069 C 
ATOM      9  S   UNL     1      31.241  23.660  18.739  0.00  0.00    -0.161 S 
ATOM     10  C   UNL     1      31.610  24.874  17.445  0.00  0.00    +0.069 C 
ATOM     11  C   UNL     1      32.486  24.285  16.345  0.00  0.00    +0.017 C 
ATOM     12  C   UNL     1      30.565  23.500  14.812  0.00  0.00    +0.026 C 
ATOM     13  C   UNL     1      30.834  24.486  13.675  0.00  0.00    +0.108 C 
ENDROOT
BRANCH   1  17
ATOM     14  C   UNL     1      34.624  23.362   8.439  0.00  0.00    +0.037 A 
ATOM     15  C   UNL     1      33.515  22.516   8.549  0.00  0.00    +0.014 A 
ATOM     16  C   UNL     1      32.587  22.723   9.570  0.00  0.00    +0.014 A 
ATOM     17  C   UNL     1      32.713  23.828  10.418  0.00  0.00    +0.037 A 
ATOM     18  C   UNL     1      33.867  24.619  10.364  0.00  0.00    +0.014 A 
ATOM     19  C   UNL     1      34.830  24.379   9.380  0.00  0.00    +0.014 A 
BRANCH  14  21
ATOM     20  N   UNL     1      35.552  24.124   6.325  0.00  0.00    -0.325 N 
ATOM     21  C   UNL     1      35.600  23.201   7.332  0.00  0.00    +0.242 C 
ATOM     22  O   UNL     1      36.444  22.318   7.345  0.00  0.00    -0.270 OA
ATOM     23  H   UNL     1      36.298  24.077   5.643  0.00  0.00    +0.145 HD
ATOM     24  H   UNL     1      35.057  25.000   6.417  0.00  0.00    +0.145 HD
ENDBRANCH  14  21
ENDBRANCH   1  17
TORSDOF 2
ENDMDL
MODEL 5
REMARK VINA RESULT:      -6.3     23.737     25.693
REMARK  Name = ZINC000870248439
REMARK  2 active torsions:
REMARK  status: ('A' for Active; 'I' for Inactive)
REMARK    1  A    between atoms: C_2  and  C_4
REMARK    2  A    between atoms: C_7  and  C_8
REMARK                            x       y       z     vdW  Elec       q    Type
REMARK                         _______ _______ _______ _____ _____    ______ ____
ROOT
ATOM      1  C   UNL     1      20.108   8.017  29.687  0.00  0.00    +0.247 C 
ATOM      2  O   UNL     1      20.286   8.988  28.953  0.00  0.00    -0.270 OA
ATOM      3  N   UNL     1      21.155   7.326  30.314  0.00  0.00    -0.297 N 
ATOM      4  C   UNL     1      21.005   6.146  31.168  0.00  0.00    +0.108 C 
ATOM      5  C   UNL     1      21.967   6.130  32.349  0.00  0.00    +0.026 C 
ATOM      6  C   UNL     1      23.437   6.388  31.953  0.00  0.00    -0.025 C 
ATOM      7  C   UNL     1      24.247   6.560  33.264  0.00  0.00    +0.017 C 
ATOM      8  C   UNL     1      25.740   6.789  33.073  0.00  0.00    +0.069 C 
ATOM      9  S   UNL     1      26.544   5.411  32.210  0.00  0.00    -0.161 S 
ATOM     10  C   UNL     1      25.456   5.287  30.765  0.00  0.00    +0.069 C 
ATOM     11  C   UNL     1      23.990   5.172  31.165  0.00  0.00    +0.017 C 
ATOM     12  C   UNL     1      23.463   7.697  31.122  0.00  0.00    +0.026 C 
ATOM     13  C   UNL     1      22.521   7.660  29.919  0.00  0.00    +0.108 C 
ENDROOT
BRANCH   1  17
ATOM     14  C   UNL     1      16.161   6.742  30.699  0.00  0.00    +0.037 A 
ATOM     15  C   UNL     1      16.859   6.072  29.688  0.00  0.00    +0.014 A 
ATOM     16  C   UNL     1      18.109   6.541  29.283  0.00  0.00    +0.014 A 
ATOM     17  C   UNL     1      18.704   7.616  29.951  0.00  0.00    +0.037 A 
ATOM     18  C   UNL     1      17.969   8.340  30.899  0.00  0.00    +0.014 A 
ATOM     19  C   UNL     1      16.691   7.908  31.265  0.00  0.00    +0.014 A 
BRANCH  14  21
ATOM     20  N   UNL     1      13.930   7.173  31.563  0.00  0.00    -0.325 N 
ATOM     21  C   UNL     1      14.854   6.237  31.187  0.00  0.00    +0.242 C 
ATOM     22  O   UNL     1      14.592   5.044  31.204  0.00  0.00    -0.270 OA
ATOM     23  H   UNL     1      13.004   6.824  31.776  0.00  0.00    +0.145 HD
ATOM     24  H   UNL     1      14.016   8.148  31.314  0.00  0.00    +0.145 HD
ENDBRANCH  14  21
ENDBRANCH   1  17
TORSDOF 2
ENDMDL
MODEL 6
REMARK VINA RESULT:      -6.3      4.455      5.909
REMARK  Name = ZINC000870248439
REMARK  2 active torsions:
REMARK  status: ('A' for Active; 'I' for Inactive)
REMARK    1  A    between atoms: C_2  and  C_4
REMARK    2  A    between atoms: C_7  and  C_8
REMARK                            x       y       z     vdW  Elec       q    Type
REMARK                         _______ _______ _______ _____ _____    ______ ____
ROOT
ATOM      1  C   UNL     1      31.760  22.652  16.722  0.00  0.00    +0.247 C 
ATOM      2  O   UNL     1      32.510  22.197  15.859  0.00  0.00    -0.270 OA
ATOM      3  N   UNL     1      32.188  23.536  17.722  0.00  0.00    -0.297 N 
ATOM      4  C   UNL     1      31.350  24.080  18.793  0.00  0.00    +0.108 C 
ATOM      5  C   UNL     1      31.672  25.531  19.131  0.00  0.00    +0.026 C 
ATOM      6  C   UNL     1      33.174  25.793  19.369  0.00  0.00    -0.025 C 
ATOM      7  C   UNL     1      33.365  27.326  19.481  0.00  0.00    +0.017 C 
ATOM      8  C   UNL     1      34.793  27.780  19.754  0.00  0.00    +0.069 C 
ATOM      9  S   UNL     1      35.439  27.118  21.315  0.00  0.00    -0.161 S 
ATOM     10  C   UNL     1      35.081  25.359  21.065  0.00  0.00    +0.069 C 
ATOM     11  C   UNL     1      33.621  25.122  20.694  0.00  0.00    +0.017 C 
ATOM     12  C   UNL     1      33.934  25.238  18.135  0.00  0.00    +0.026 C 
ATOM     13  C   UNL     1      33.624  23.768  17.854  0.00  0.00    +0.108 C 
ENDROOT
BRANCH   1  17
ATOM     14  C   UNL     1      27.599  21.695  16.750  0.00  0.00    +0.037 A 
ATOM     15  C   UNL     1      28.537  20.678  16.958  0.00  0.00    +0.014 A 
ATOM     16  C   UNL     1      29.899  20.961  16.854  0.00  0.00    +0.014 A 
ATOM     17  C   UNL     1      30.327  22.276  16.640  0.00  0.00    +0.037 A 
ATOM     18  C   UNL     1      29.390  23.273  16.343  0.00  0.00    +0.014 A 
ATOM     19  C   UNL     1      28.024  22.980  16.388  0.00  0.00    +0.014 A 
BRANCH  14  21
ATOM     20  N   UNL     1      25.752  20.130  16.963  0.00  0.00    -0.325 N 
ATOM     21  C   UNL     1      26.146  21.437  16.906  0.00  0.00    +0.242 C 
ATOM     22  O   UNL     1      25.343  22.349  17.032  0.00  0.00    -0.270 OA
ATOM     23  H   UNL     1      24.780  19.967  17.192  0.00  0.00    +0.145 HD
ATOM     24  H   UNL     1      26.404  19.375  17.128  0.00  0.00    +0.145 HD
ENDBRANCH  14  21
ENDBRANCH   1  17
TORSDOF 2
ENDMDL
MODEL 7
REMARK VINA RESULT:      -6.3     10.441     12.296
REMARK  Name = ZINC000870248439
REMARK  2 active torsions:
REMARK  status: ('A' for Active; 'I' for Inactive)
REMARK    1  A    between atoms: C_2  and  C_4
REMARK    2  A    between atoms: C_7  and  C_8
REMARK                            x       y       z     vdW  Elec       q    Type
REMARK                         _______ _______ _______ _____ _____    ______ ____
ROOT
ATOM      1  C   UNL     1      21.373  25.678  20.981  0.00  0.00    +0.247 C 
ATOM      2  O   UNL     1      20.279  25.485  21.510  0.00  0.00    -0.270 OA
ATOM      3  N   UNL     1      22.488  26.165  21.678  0.00  0.00    -0.297 N 
ATOM      4  C   UNL     1      23.801  26.446  21.094  0.00  0.00    +0.108 C 
ATOM      5  C   UNL     1      24.960  26.086  22.015  0.00  0.00    +0.026 C 
ATOM      6  C   UNL     1      24.816  26.656  23.443  0.00  0.00    -0.025 C 
ATOM      7  C   UNL     1      25.939  26.030  24.308  0.00  0.00    +0.017 C 
ATOM      8  C   UNL     1      25.981  26.506  25.753  0.00  0.00    +0.069 C 
ATOM      9  S   UNL     1      26.241  28.296  25.883  0.00  0.00    -0.161 S 
ATOM     10  C   UNL     1      24.923  28.871  24.778  0.00  0.00    +0.069 C 
ATOM     11  C   UNL     1      24.990  28.197  23.412  0.00  0.00    +0.017 C 
ATOM     12  C   UNL     1      23.422  26.225  23.967  0.00  0.00    +0.026 C 
ATOM     13  C   UNL     1      22.279  26.644  23.042  0.00  0.00    +0.108 C 
ENDROOT
BRANCH   1  17
ATOM     14  C   UNL     1      21.465  24.581  16.856  0.00  0.00    +0.037 A 
ATOM     15  C   UNL     1      21.954  23.685  17.813  0.00  0.00    +0.014 A 
ATOM     16  C   UNL     1      22.018  24.072  19.152  0.00  0.00    +0.014 A 
ATOM     17  C   UNL     1      21.506  25.312  19.549  0.00  0.00    +0.037 A 
ATOM     18  C   UNL     1      21.102  26.240  18.581  0.00  0.00    +0.014 A 
ATOM     19  C   UNL     1      21.091  25.877  17.231  0.00  0.00    +0.014 A 
BRANCH  14  21
ATOM     20  N   UNL     1      20.555  24.972  14.636  0.00  0.00    -0.325 N 
ATOM     21  C   UNL     1      21.334  24.180  15.433  0.00  0.00    +0.242 C 
ATOM     22  O   UNL     1      21.937  23.219  14.979  0.00  0.00    -0.270 OA
ATOM     23  H   UNL     1      20.572  24.762  13.646  0.00  0.00    +0.145 HD
ATOM     24  H   UNL     1      20.268  25.901  14.912  0.00  0.00    +0.145 HD
ENDBRANCH  14  21
ENDBRANCH   1  17
TORSDOF 2
ENDMDL
MODEL 8
REMARK VINA RESULT:      -6.2      5.694      7.907
REMARK  Name = ZINC000870248439
REMARK  2 active torsions:
REMARK  status: ('A' for Active; 'I' for Inactive)
REMARK    1  A    between atoms: C_2  and  C_4
REMARK    2  A    between atoms: C_7  and  C_8
REMARK                            x       y       z     vdW  Elec       q    Type
REMARK                         _______ _______ _______ _____ _____    ______ ____
ROOT
ATOM      1  C   UNL     1      31.589  24.281  19.002  0.00  0.00    +0.247 C 
ATOM      2  O   UNL     1      30.923  25.219  19.439  0.00  0.00    -0.270 OA
ATOM      3  N   UNL     1      32.663  23.712  19.699  0.00  0.00    -0.297 N 
ATOM      4  C   UNL     1      33.511  22.621  19.214  0.00  0.00    +0.108 C 
ATOM      5  C   UNL     1      33.918  21.641  20.308  0.00  0.00    +0.026 C 
ATOM      6  C   UNL     1      34.500  22.324  21.565  0.00  0.00    -0.025 C 
ATOM      7  C   UNL     1      34.656  21.233  22.654  0.00  0.00    +0.017 C 
ATOM      8  C   UNL     1      35.256  21.716  23.968  0.00  0.00    +0.069 C 
ATOM      9  S   UNL     1      36.922  22.400  23.755  0.00  0.00    -0.161 S 
ATOM     10  C   UNL     1      36.592  23.584  22.422  0.00  0.00    +0.069 C 
ATOM     11  C   UNL     1      35.890  22.927  21.238  0.00  0.00    +0.017 C 
ATOM     12  C   UNL     1      33.475  23.399  22.014  0.00  0.00    +0.026 C 
ATOM     13  C   UNL     1      33.126  24.392  20.906  0.00  0.00    +0.108 C 
ENDROOT
BRANCH   1  17
ATOM     14  C   UNL     1      30.169  22.817  15.251  0.00  0.00    +0.037 A 
ATOM     15  C   UNL     1      30.005  22.033  16.398  0.00  0.00    +0.014 A 
ATOM     16  C   UNL     1      30.551  22.458  17.610  0.00  0.00    +0.014 A 
ATOM     17  C   UNL     1      31.175  23.707  17.698  0.00  0.00    +0.037 A 
ATOM     18  C   UNL     1      31.417  24.448  16.534  0.00  0.00    +0.014 A 
ATOM     19  C   UNL     1      30.923  23.997  15.307  0.00  0.00    +0.014 A 
BRANCH  14  21
ATOM     20  N   UNL     1      29.921  23.134  12.854  0.00  0.00    -0.325 N 
ATOM     21  C   UNL     1      29.555  22.419  13.960  0.00  0.00    +0.242 C 
ATOM     22  O   UNL     1      28.799  21.463  13.877  0.00  0.00    -0.270 OA
ATOM     23  H   UNL     1      29.594  22.777  11.965  0.00  0.00    +0.145 HD
ATOM     24  H   UNL     1      30.728  23.742  12.845  0.00  0.00    +0.145 HD
ENDBRANCH  14  21
ENDBRANCH   1  17
TORSDOF 2
ENDMDL
MODEL 9
REMARK VINA RESULT:      -6.1      3.223      5.185
REMARK  Name = ZINC000870248439
REMARK  2 active torsions:
REMARK  status: ('A' for Active; 'I' for Inactive)
REMARK    1  A    between atoms: C_2  and  C_4
REMARK    2  A    between atoms: C_7  and  C_8
REMARK                            x       y       z     vdW  Elec       q    Type
REMARK                         _______ _______ _______ _____ _____    ______ ____
ROOT
ATOM      1  C   UNL     1      33.195  24.971  10.930  0.00  0.00    +0.247 C 
ATOM      2  O   UNL     1      33.339  26.179  10.742  0.00  0.00    -0.270 OA
ATOM      3  N   UNL     1      33.999  23.998  10.323  0.00  0.00    -0.297 N 
ATOM      4  C   UNL     1      33.850  22.549  10.483  0.00  0.00    +0.108 C 
ATOM      5  C   UNL     1      35.181  21.810  10.537  0.00  0.00    +0.026 C 
ATOM      6  C   UNL     1      36.143  22.179   9.387  0.00  0.00    -0.025 C 
ATOM      7  C   UNL     1      37.512  21.525   9.699  0.00  0.00    +0.017 C 
ATOM      8  C   UNL     1      38.589  21.752   8.646  0.00  0.00    +0.069 C 
ATOM      9  S   UNL     1      38.119  21.089   7.025  0.00  0.00    -0.161 S 
ATOM     10  C   UNL     1      36.495  21.874   6.841  0.00  0.00    +0.069 C 
ATOM     11  C   UNL     1      35.599  21.618   8.048  0.00  0.00    +0.017 C 
ATOM     12  C   UNL     1      36.268  23.725   9.377  0.00  0.00    +0.026 C 
ATOM     13  C   UNL     1      34.917  24.434   9.274  0.00  0.00    +0.108 C 
ENDROOT
BRANCH   1  17
ATOM     14  C   UNL     1      30.248  23.503  13.649  0.00  0.00    +0.037 A 
ATOM     15  C   UNL     1      29.838  24.091  12.447  0.00  0.00    +0.014 A 
ATOM     16  C   UNL     1      30.786  24.661  11.598  0.00  0.00    +0.014 A 
ATOM     17  C   UNL     1      32.149  24.558  11.899  0.00  0.00    +0.037 A 
ATOM     18  C   UNL     1      32.550  24.052  13.142  0.00  0.00    +0.014 A 
ATOM     19  C   UNL     1      31.597  23.533  14.022  0.00  0.00    +0.014 A 
BRANCH  14  21
ATOM     20  N   UNL     1      28.970  23.485  15.716  0.00  0.00    -0.325 N 
ATOM     21  C   UNL     1      29.269  22.842  14.548  0.00  0.00    +0.242 C 
ATOM     22  O   UNL     1      28.714  21.799  14.236  0.00  0.00    -0.270 OA
ATOM     23  H   UNL     1      28.214  23.089  16.261  0.00  0.00    +0.145 HD
ATOM     24  H   UNL     1      29.203  24.455  15.876  0.00  0.00    +0.145 HD
ENDBRANCH  14  21
ENDBRANCH   1  17
TORSDOF 2
ENDMDL
