MODEL 1
REMARK VINA RESULT:      -6.5      0.000      0.000
REMARK  Name = ZINC000543478179
REMARK  8 active torsions:
REMARK  status: ('A' for Active; 'I' for Inactive)
REMARK    1  A    between atoms: C_1  and  C_2
REMARK    2  A    between atoms: C_2  and  N_3
REMARK    3  A    between atoms: N_9  and  C_10
REMARK    4  A    between atoms: C_10  and  C_11
REMARK    5  A    between atoms: C_10  and  C_12
REMARK    6  A    between atoms: C_15  and  O_16
REMARK    7  A    between atoms: O_16  and  C_17
REMARK    8  A    between atoms: C_17  and  C_18
REMARK                            x       y       z     vdW  Elec       q    Type
REMARK                         _______ _______ _______ _____ _____    ______ ____
ROOT
ATOM      1  C   UNL     1      30.404  22.784  15.093  0.00  0.00    +0.102 C 
ATOM      2  C   UNL     1      30.545  21.255  15.062  0.00  0.00    +0.033 C 
ENDROOT
BRANCH   1   9
ATOM      3  N   UNL     1      31.766  24.794  21.007  0.00  0.00    -0.299 N 
ATOM      4  C   UNL     1      30.525  24.025  20.912  0.00  0.00    +0.127 C 
ATOM      5  C   UNL     1      29.675  24.456  19.712  0.00  0.00    +0.129 C 
ATOM      6  N   UNL     1      30.453  24.291  18.488  0.00  0.00    -0.275 N 
ATOM      7  C   UNL     1      29.928  23.569  17.424  0.00  0.00    +0.303 C 
ATOM      8  O   UNL     1      28.805  23.084  17.435  0.00  0.00    -0.253 OA
ATOM      9  N   UNL     1      30.785  23.409  16.363  0.00  0.00    -0.293 N 
ATOM     10  C   UNL     1      31.778  24.913  18.512  0.00  0.00    +0.205 C 
ATOM     11  C   UNL     1      32.342  25.362  19.873  0.00  0.00    +0.233 C 
ATOM     12  O   UNL     1      33.343  26.077  19.926  0.00  0.00    -0.274 OA
ATOM     13  H   UNL     1      31.453  24.152  16.255  0.00  0.00    +0.151 HD
BRANCH   3  15
ATOM     14  C   UNL     1      31.916  23.784  23.256  0.00  0.00    +0.024 C 
ATOM     15  C   UNL     1      32.584  24.668  22.212  0.00  0.00    +0.104 C 
ENDBRANCH   3  15
ENDBRANCH   1   9
BRANCH   1  16
ATOM     16  C   UNL     1      31.265  23.402  13.998  0.00  0.00    -0.024 A 
ATOM     17  C   UNL     1      32.596  22.974  13.834  0.00  0.00    +0.009 A 
ATOM     18  C   UNL     1      33.437  23.575  12.902  0.00  0.00    +0.049 A 
ATOM     19  C   UNL     1      32.982  24.652  12.141  0.00  0.00    +0.156 A 
ATOM     20  C   UNL     1      31.644  25.040  12.250  0.00  0.00    +0.165 A 
ATOM     21  F   UNL     1      31.166  26.041  11.497  0.00  0.00    -0.202 F 
ATOM     22  C   UNL     1      30.788  24.428  13.171  0.00  0.00    +0.047 A 
BRANCH  19  23
ATOM     23  O   UNL     1      33.785  25.375  11.298  0.00  0.00    -0.489 OA
BRANCH  23  24
ATOM     24  C   UNL     1      34.571  26.379  11.947  0.00  0.00    +0.232 C 
BRANCH  24  25
ATOM     25  C   UNL     1      34.084  27.726  11.522  0.00  0.00    +0.027 C 
ATOM     26  C   UNL     1      34.647  28.971  12.156  0.00  0.00    +0.007 C 
ATOM     27  C   UNL     1      33.227  28.562  12.441  0.00  0.00    +0.007 C 
ENDBRANCH  24  25
ENDBRANCH  23  24
ENDBRANCH  19  23
ENDBRANCH   1  16
TORSDOF 6
ENDMDL
MODEL 2
REMARK VINA RESULT:      -6.3      4.037      9.346
REMARK  Name = ZINC000543478179
REMARK  8 active torsions:
REMARK  status: ('A' for Active; 'I' for Inactive)
REMARK    1  A    between atoms: C_1  and  C_2
REMARK    2  A    between atoms: C_2  and  N_3
REMARK    3  A    between atoms: N_9  and  C_10
REMARK    4  A    between atoms: C_10  and  C_11
REMARK    5  A    between atoms: C_10  and  C_12
REMARK    6  A    between atoms: C_15  and  O_16
REMARK    7  A    between atoms: O_16  and  C_17
REMARK    8  A    between atoms: C_17  and  C_18
REMARK                            x       y       z     vdW  Elec       q    Type
REMARK                         _______ _______ _______ _____ _____    ______ ____
ROOT
ATOM      1  C   UNL     1      32.433  25.140  13.901  0.00  0.00    +0.102 C 
ATOM      2  C   UNL     1      33.476  25.884  14.746  0.00  0.00    +0.033 C 
ENDROOT
BRANCH   1   9
ATOM      3  N   UNL     1      35.094  22.666   8.641  0.00  0.00    -0.299 N 
ATOM      4  C   UNL     1      34.463  23.970   8.431  0.00  0.00    +0.127 C 
ATOM      5  C   UNL     1      33.087  24.053   9.100  0.00  0.00    +0.129 C 
ATOM      6  N   UNL     1      33.230  23.800  10.530  0.00  0.00    -0.275 N 
ATOM      7  C   UNL     1      32.707  24.698  11.450  0.00  0.00    +0.303 C 
ATOM      8  O   UNL     1      32.078  25.696  11.127  0.00  0.00    -0.253 OA
ATOM      9  N   UNL     1      32.981  24.398  12.763  0.00  0.00    -0.293 N 
ATOM     10  C   UNL     1      33.965  22.579  10.868  0.00  0.00    +0.205 C 
ATOM     11  C   UNL     1      34.776  21.891   9.754  0.00  0.00    +0.233 C 
ATOM     12  O   UNL     1      35.230  20.759   9.924  0.00  0.00    -0.274 OA
ATOM     13  H   UNL     1      33.096  23.416  12.947  0.00  0.00    +0.151 HD
BRANCH   3  15
ATOM     14  C   UNL     1      35.975  21.697   6.547  0.00  0.00    +0.024 C 
ATOM     15  C   UNL     1      36.304  22.338   7.889  0.00  0.00    +0.104 C 
ENDBRANCH   3  15
ENDBRANCH   1   9
BRANCH   1  16
ATOM     16  C   UNL     1      31.675  24.149  14.776  0.00  0.00    -0.024 A 
ATOM     17  C   UNL     1      30.692  23.321  14.201  0.00  0.00    +0.009 A 
ATOM     18  C   UNL     1      29.922  22.465  14.982  0.00  0.00    +0.049 A 
ATOM     19  C   UNL     1      30.081  22.450  16.368  0.00  0.00    +0.156 A 
ATOM     20  C   UNL     1      31.097  23.219  16.941  0.00  0.00    +0.165 A 
ATOM     21  F   UNL     1      31.306  23.189  18.265  0.00  0.00    -0.202 F 
ATOM     22  C   UNL     1      31.889  24.067  16.158  0.00  0.00    +0.047 A 
BRANCH  19  23
ATOM     23  O   UNL     1      29.277  21.733  17.214  0.00  0.00    -0.489 OA
BRANCH  23  24
ATOM     24  C   UNL     1      27.894  22.100  17.169  0.00  0.00    +0.232 C 
BRANCH  24  25
ATOM     25  C   UNL     1      27.219  21.599  18.403  0.00  0.00    +0.027 C 
ATOM     26  C   UNL     1      25.897  22.178  18.834  0.00  0.00    +0.007 C 
ATOM     27  C   UNL     1      27.135  22.459  19.641  0.00  0.00    +0.007 C 
ENDBRANCH  24  25
ENDBRANCH  23  24
ENDBRANCH  19  23
ENDBRANCH   1  16
TORSDOF 6
ENDMDL
MODEL 3
REMARK VINA RESULT:      -6.3      1.198      1.437
REMARK  Name = ZINC000543478179
REMARK  8 active torsions:
REMARK  status: ('A' for Active; 'I' for Inactive)
REMARK    1  A    between atoms: C_1  and  C_2
REMARK    2  A    between atoms: C_2  and  N_3
REMARK    3  A    between atoms: N_9  and  C_10
REMARK    4  A    between atoms: C_10  and  C_11
REMARK    5  A    between atoms: C_10  and  C_12
REMARK    6  A    between atoms: C_15  and  O_16
REMARK    7  A    between atoms: O_16  and  C_17
REMARK    8  A    between atoms: C_17  and  C_18
REMARK                            x       y       z     vdW  Elec       q    Type
REMARK                         _______ _______ _______ _____ _____    ______ ____
ROOT
ATOM      1  C   UNL     1      31.035  23.625  15.014  0.00  0.00    +0.102 C 
ATOM      2  C   UNL     1      31.551  22.216  14.688  0.00  0.00    +0.033 C 
ENDROOT
BRANCH   1   9
ATOM      3  N   UNL     1      31.987  24.826  21.220  0.00  0.00    -0.299 N 
ATOM      4  C   UNL     1      30.814  23.995  20.949  0.00  0.00    +0.127 C 
ATOM      5  C   UNL     1      29.985  24.539  19.781  0.00  0.00    +0.129 C 
ATOM      6  N   UNL     1      30.824  24.612  18.588  0.00  0.00    -0.275 N 
ATOM      7  C   UNL     1      30.402  24.021  17.405  0.00  0.00    +0.303 C 
ATOM      8  O   UNL     1      29.320  23.462  17.286  0.00  0.00    -0.253 OA
ATOM      9  N   UNL     1      31.313  24.080  16.379  0.00  0.00    -0.293 N 
ATOM     10  C   UNL     1      32.095  25.315  18.772  0.00  0.00    +0.205 C 
ATOM     11  C   UNL     1      32.565  25.595  20.212  0.00  0.00    +0.233 C 
ATOM     12  O   UNL     1      33.504  26.363  20.421  0.00  0.00    -0.274 OA
ATOM     13  H   UNL     1      31.926  24.876  16.415  0.00  0.00    +0.151 HD
BRANCH   3  15
ATOM     14  C   UNL     1      31.970  23.768  23.452  0.00  0.00    +0.024 C 
ATOM     15  C   UNL     1      32.761  24.581  22.436  0.00  0.00    +0.104 C 
ENDBRANCH   3  15
ENDBRANCH   1   9
BRANCH   1  16
ATOM     16  C   UNL     1      31.657  24.634  14.056  0.00  0.00    -0.024 A 
ATOM     17  C   UNL     1      32.652  25.514  14.521  0.00  0.00    +0.009 A 
ATOM     18  C   UNL     1      33.182  26.503  13.698  0.00  0.00    +0.049 A 
ATOM     19  C   UNL     1      32.695  26.670  12.401  0.00  0.00    +0.156 A 
ATOM     20  C   UNL     1      31.755  25.760  11.910  0.00  0.00    +0.165 A 
ATOM     21  F   UNL     1      31.304  25.865  10.651  0.00  0.00    -0.202 F 
ATOM     22  C   UNL     1      31.233  24.750  12.725  0.00  0.00    +0.047 A 
BRANCH  19  23
ATOM     23  O   UNL     1      33.073  27.697  11.578  0.00  0.00    -0.489 OA
BRANCH  23  24
ATOM     24  C   UNL     1      34.487  27.812  11.385  0.00  0.00    +0.232 C 
BRANCH  24  25
ATOM     25  C   UNL     1      34.954  29.102  11.975  0.00  0.00    +0.027 C 
ATOM     26  C   UNL     1      36.318  29.643  11.633  0.00  0.00    +0.007 C 
ATOM     27  C   UNL     1      36.044  29.123  13.018  0.00  0.00    +0.007 C 
ENDBRANCH  24  25
ENDBRANCH  23  24
ENDBRANCH  19  23
ENDBRANCH   1  16
TORSDOF 6
ENDMDL
MODEL 4
REMARK VINA RESULT:      -6.3      1.343      2.072
REMARK  Name = ZINC000543478179
REMARK  8 active torsions:
REMARK  status: ('A' for Active; 'I' for Inactive)
REMARK    1  A    between atoms: C_1  and  C_2
REMARK    2  A    between atoms: C_2  and  N_3
REMARK    3  A    between atoms: N_9  and  C_10
REMARK    4  A    between atoms: C_10  and  C_11
REMARK    5  A    between atoms: C_10  and  C_12
REMARK    6  A    between atoms: C_15  and  O_16
REMARK    7  A    between atoms: O_16  and  C_17
REMARK    8  A    between atoms: C_17  and  C_18
REMARK                            x       y       z     vdW  Elec       q    Type
REMARK                         _______ _______ _______ _____ _____    ______ ____
ROOT
ATOM      1  C   UNL     1      30.488  22.776  15.122  0.00  0.00    +0.102 C 
ATOM      2  C   UNL     1      30.732  21.261  15.068  0.00  0.00    +0.033 C 
ENDROOT
BRANCH   1   9
ATOM      3  N   UNL     1      31.750  24.819  21.047  0.00  0.00    -0.299 N 
ATOM      4  C   UNL     1      30.521  24.033  20.938  0.00  0.00    +0.127 C 
ATOM      5  C   UNL     1      29.680  24.450  19.727  0.00  0.00    +0.129 C 
ATOM      6  N   UNL     1      30.475  24.292  18.512  0.00  0.00    -0.275 N 
ATOM      7  C   UNL     1      29.973  23.561  17.445  0.00  0.00    +0.303 C 
ATOM      8  O   UNL     1      28.856  23.061  17.442  0.00  0.00    -0.253 OA
ATOM      9  N   UNL     1      30.846  23.409  16.394  0.00  0.00    -0.293 N 
ATOM     10  C   UNL     1      31.791  24.932  18.552  0.00  0.00    +0.205 C 
ATOM     11  C   UNL     1      32.332  25.392  19.918  0.00  0.00    +0.233 C 
ATOM     12  O   UNL     1      33.323  26.121  19.982  0.00  0.00    -0.274 OA
ATOM     13  H   UNL     1      31.505  24.161  16.293  0.00  0.00    +0.151 HD
BRANCH   3  15
ATOM     14  C   UNL     1      31.932  23.742  23.263  0.00  0.00    +0.024 C 
ATOM     15  C   UNL     1      32.555  24.708  22.262  0.00  0.00    +0.104 C 
ENDBRANCH   3  15
ENDBRANCH   1   9
BRANCH   1  16
ATOM     16  C   UNL     1      31.290  23.465  14.023  0.00  0.00    -0.024 A 
ATOM     17  C   UNL     1      32.644  23.131  13.836  0.00  0.00    +0.009 A 
ATOM     18  C   UNL     1      33.429  23.799  12.901  0.00  0.00    +0.049 A 
ATOM     19  C   UNL     1      32.891  24.852  12.160  0.00  0.00    +0.156 A 
ATOM     20  C   UNL     1      31.531  25.146  12.292  0.00  0.00    +0.165 A 
ATOM     21  F   UNL     1      30.975  26.121  11.558  0.00  0.00    -0.202 F 
ATOM     22  C   UNL     1      30.732  24.466  13.216  0.00  0.00    +0.047 A 
BRANCH  19  23
ATOM     23  O   UNL     1      33.630  25.638  11.316  0.00  0.00    -0.489 OA
BRANCH  23  24
ATOM     24  C   UNL     1      34.562  24.919  10.501  0.00  0.00    +0.232 C 
BRANCH  24  25
ATOM     25  C   UNL     1      33.850  24.396   9.297  0.00  0.00    +0.027 C 
ATOM     26  C   UNL     1      33.490  22.936   9.202  0.00  0.00    +0.007 C 
ATOM     27  C   UNL     1      34.560  23.503   8.308  0.00  0.00    +0.007 C 
ENDBRANCH  24  25
ENDBRANCH  23  24
ENDBRANCH  19  23
ENDBRANCH   1  16
TORSDOF 6
ENDMDL
MODEL 5
REMARK VINA RESULT:      -6.1      4.088      7.913
REMARK  Name = ZINC000543478179
REMARK  8 active torsions:
REMARK  status: ('A' for Active; 'I' for Inactive)
REMARK    1  A    between atoms: C_1  and  C_2
REMARK    2  A    between atoms: C_2  and  N_3
REMARK    3  A    between atoms: N_9  and  C_10
REMARK    4  A    between atoms: C_10  and  C_11
REMARK    5  A    between atoms: C_10  and  C_12
REMARK    6  A    between atoms: C_15  and  O_16
REMARK    7  A    between atoms: O_16  and  C_17
REMARK    8  A    between atoms: C_17  and  C_18
REMARK                            x       y       z     vdW  Elec       q    Type
REMARK                         _______ _______ _______ _____ _____    ______ ____
ROOT
ATOM      1  C   UNL     1      31.831  22.510  17.429  0.00  0.00    +0.102 C 
ATOM      2  C   UNL     1      32.535  23.163  18.627  0.00  0.00    +0.033 C 
ENDROOT
BRANCH   1   9
ATOM      3  N   UNL     1      32.666  25.923  12.089  0.00  0.00    -0.299 N 
ATOM      4  C   UNL     1      31.375  26.146  12.741  0.00  0.00    +0.127 C 
ATOM      5  C   UNL     1      30.723  24.832  13.182  0.00  0.00    +0.129 C 
ATOM      6  N   UNL     1      31.621  24.131  14.094  0.00  0.00    -0.275 N 
ATOM      7  C   UNL     1      31.159  23.702  15.331  0.00  0.00    +0.303 C 
ATOM      8  O   UNL     1      30.000  23.842  15.697  0.00  0.00    -0.253 OA
ATOM      9  N   UNL     1      32.117  23.134  16.135  0.00  0.00    -0.293 N 
ATOM     10  C   UNL     1      32.989  23.961  13.601  0.00  0.00    +0.205 C 
ATOM     11  C   UNL     1      33.428  24.794  12.382  0.00  0.00    +0.233 C 
ATOM     12  O   UNL     1      34.481  24.537  11.798  0.00  0.00    -0.274 OA
ATOM     13  H   UNL     1      32.864  22.684  15.634  0.00  0.00    +0.151 HD
BRANCH   3  15
ATOM     14  C   UNL     1      33.541  28.219  12.353  0.00  0.00    +0.024 C 
ATOM     15  C   UNL     1      33.317  27.043  11.411  0.00  0.00    +0.104 C 
ENDBRANCH   3  15
ENDBRANCH   1   9
BRANCH   1  16
ATOM     16  C   UNL     1      32.234  21.043  17.334  0.00  0.00    -0.024 A 
ATOM     17  C   UNL     1      33.293  20.559  18.126  0.00  0.00    +0.009 A 
ATOM     18  C   UNL     1      33.744  19.249  18.003  0.00  0.00    +0.049 A 
ATOM     19  C   UNL     1      33.180  18.400  17.051  0.00  0.00    +0.156 A 
ATOM     20  C   UNL     1      32.086  18.851  16.307  0.00  0.00    +0.165 A 
ATOM     21  F   UNL     1      31.492  18.042  15.417  0.00  0.00    -0.202 F 
ATOM     22  C   UNL     1      31.614  20.161  16.439  0.00  0.00    +0.047 A 
BRANCH  19  23
ATOM     23  O   UNL     1      33.653  17.142  16.783  0.00  0.00    -0.489 OA
BRANCH  23  24
ATOM     24  C   UNL     1      34.781  17.109  15.903  0.00  0.00    +0.232 C 
BRANCH  24  25
ATOM     25  C   UNL     1      34.427  16.313  14.690  0.00  0.00    +0.027 C 
ATOM     26  C   UNL     1      35.322  16.336  13.479  0.00  0.00    +0.007 C 
ATOM     27  C   UNL     1      33.971  16.997  13.424  0.00  0.00    +0.007 C 
ENDBRANCH  24  25
ENDBRANCH  23  24
ENDBRANCH  19  23
ENDBRANCH   1  16
TORSDOF 6
ENDMDL
MODEL 6
REMARK VINA RESULT:      -6.0      3.625      7.467
REMARK  Name = ZINC000543478179
REMARK  8 active torsions:
REMARK  status: ('A' for Active; 'I' for Inactive)
REMARK    1  A    between atoms: C_1  and  C_2
REMARK    2  A    between atoms: C_2  and  N_3
REMARK    3  A    between atoms: N_9  and  C_10
REMARK    4  A    between atoms: C_10  and  C_11
REMARK    5  A    between atoms: C_10  and  C_12
REMARK    6  A    between atoms: C_15  and  O_16
REMARK    7  A    between atoms: O_16  and  C_17
REMARK    8  A    between atoms: C_17  and  C_18
REMARK                            x       y       z     vdW  Elec       q    Type
REMARK                         _______ _______ _______ _____ _____    ______ ____
ROOT
ATOM      1  C   UNL     1      30.300  23.462  15.958  0.00  0.00    +0.102 C 
ATOM      2  C   UNL     1      29.969  23.860  17.403  0.00  0.00    +0.033 C 
ENDROOT
BRANCH   1   9
ATOM      3  N   UNL     1      33.893  27.633  12.707  0.00  0.00    -0.299 N 
ATOM      4  C   UNL     1      32.696  27.193  11.990  0.00  0.00    +0.127 C 
ATOM      5  C   UNL     1      32.491  25.678  12.092  0.00  0.00    +0.129 C 
ATOM      6  N   UNL     1      32.389  25.300  13.498  0.00  0.00    -0.275 N 
ATOM      7  C   UNL     1      31.311  24.545  13.938  0.00  0.00    +0.303 C 
ATOM      8  O   UNL     1      30.437  24.128  13.189  0.00  0.00    -0.253 OA
ATOM      9  N   UNL     1      31.280  24.327  15.294  0.00  0.00    -0.293 N 
ATOM     10  C   UNL     1      33.473  25.797  14.348  0.00  0.00    +0.205 C 
ATOM     11  C   UNL     1      34.386  26.902  13.785  0.00  0.00    +0.233 C 
ATOM     12  O   UNL     1      35.432  27.200  14.364  0.00  0.00    -0.274 OA
ATOM     13  H   UNL     1      32.185  24.311  15.731  0.00  0.00    +0.151 HD
BRANCH   3  15
ATOM     14  C   UNL     1      35.569  29.074  11.604  0.00  0.00    +0.024 C 
ATOM     15  C   UNL     1      34.360  29.006  12.528  0.00  0.00    +0.104 C 
ENDBRANCH   3  15
ENDBRANCH   1   9
BRANCH   1  16
ATOM     16  C   UNL     1      30.847  22.040  15.930  0.00  0.00    -0.024 A 
ATOM     17  C   UNL     1      31.655  21.583  16.989  0.00  0.00    +0.009 A 
ATOM     18  C   UNL     1      32.240  20.321  16.956  0.00  0.00    +0.049 A 
ATOM     19  C   UNL     1      32.072  19.500  15.842  0.00  0.00    +0.156 A 
ATOM     20  C   UNL     1      31.219  19.917  14.816  0.00  0.00    +0.165 A 
ATOM     21  F   UNL     1      31.000  19.129  13.754  0.00  0.00    -0.202 F 
ATOM     22  C   UNL     1      30.611  21.177  14.851  0.00  0.00    +0.047 A 
BRANCH  19  23
ATOM     23  O   UNL     1      32.717  18.302  15.680  0.00  0.00    -0.489 OA
BRANCH  23  24
ATOM     24  C   UNL     1      34.085  18.416  15.276  0.00  0.00    +0.232 C 
BRANCH  24  25
ATOM     25  C   UNL     1      34.212  17.962  13.859  0.00  0.00    +0.027 C 
ATOM     26  C   UNL     1      33.349  16.841  13.341  0.00  0.00    +0.007 C 
ATOM     27  C   UNL     1      34.826  16.623  13.531  0.00  0.00    +0.007 C 
ENDBRANCH  24  25
ENDBRANCH  23  24
ENDBRANCH  19  23
ENDBRANCH   1  16
TORSDOF 6
ENDMDL
MODEL 7
REMARK VINA RESULT:      -6.0      4.086      9.268
REMARK  Name = ZINC000543478179
REMARK  8 active torsions:
REMARK  status: ('A' for Active; 'I' for Inactive)
REMARK    1  A    between atoms: C_1  and  C_2
REMARK    2  A    between atoms: C_2  and  N_3
REMARK    3  A    between atoms: N_9  and  C_10
REMARK    4  A    between atoms: C_10  and  C_11
REMARK    5  A    between atoms: C_10  and  C_12
REMARK    6  A    between atoms: C_15  and  O_16
REMARK    7  A    between atoms: O_16  and  C_17
REMARK    8  A    between atoms: C_17  and  C_18
REMARK                            x       y       z     vdW  Elec       q    Type
REMARK                         _______ _______ _______ _____ _____    ______ ____
ROOT
ATOM      1  C   UNL     1      32.804  25.706  13.162  0.00  0.00    +0.102 C 
ATOM      2  C   UNL     1      33.833  26.669  13.772  0.00  0.00    +0.033 C 
ENDROOT
BRANCH   1   9
ATOM      3  N   UNL     1      35.372  22.671   8.156  0.00  0.00    -0.299 N 
ATOM      4  C   UNL     1      34.779  23.967   7.825  0.00  0.00    +0.127 C 
ATOM      5  C   UNL     1      33.408  24.153   8.484  0.00  0.00    +0.129 C 
ATOM      6  N   UNL     1      33.550  24.032   9.932  0.00  0.00    -0.275 N 
ATOM      7  C   UNL     1      33.056  25.027  10.764  0.00  0.00    +0.303 C 
ATOM      8  O   UNL     1      32.455  26.009  10.348  0.00  0.00    -0.253 OA
ATOM      9  N   UNL     1      33.326  24.844  12.098  0.00  0.00    -0.293 N 
ATOM     10  C   UNL     1      34.250  22.827  10.382  0.00  0.00    +0.205 C 
ATOM     11  C   UNL     1      35.037  22.014   9.337  0.00  0.00    +0.233 C 
ATOM     12  O   UNL     1      35.458  20.890   9.612  0.00  0.00    -0.274 OA
ATOM     13  H   UNL     1      33.414  23.881  12.374  0.00  0.00    +0.151 HD
BRANCH   3  15
ATOM     14  C   UNL     1      36.218  21.543   6.127  0.00  0.00    +0.024 C 
ATOM     15  C   UNL     1      36.569  22.238   7.437  0.00  0.00    +0.104 C 
ENDBRANCH   3  15
ENDBRANCH   1   9
BRANCH   1  16
ATOM     16  C   UNL     1      32.238  24.803  14.251  0.00  0.00    -0.024 A 
ATOM     17  C   UNL     1      32.905  24.699  15.486  0.00  0.00    +0.009 A 
ATOM     18  C   UNL     1      32.464  23.820  16.472  0.00  0.00    +0.049 A 
ATOM     19  C   UNL     1      31.372  22.987  16.230  0.00  0.00    +0.156 A 
ATOM     20  C   UNL     1      30.665  23.130  15.033  0.00  0.00    +0.165 A 
ATOM     21  F   UNL     1      29.582  22.376  14.792  0.00  0.00    -0.202 F 
ATOM     22  C   UNL     1      31.090  24.025  14.046  0.00  0.00    +0.047 A 
BRANCH  19  23
ATOM     23  O   UNL     1      30.959  22.011  17.097  0.00  0.00    -0.489 OA
BRANCH  23  24
ATOM     24  C   UNL     1      31.739  20.812  17.053  0.00  0.00    +0.232 C 
BRANCH  24  25
ATOM     25  C   UNL     1      31.022  19.796  16.225  0.00  0.00    +0.027 C 
ATOM     26  C   UNL     1      31.656  18.459  15.946  0.00  0.00    +0.007 C 
ATOM     27  C   UNL     1      31.499  19.459  14.834  0.00  0.00    +0.007 C 
ENDBRANCH  24  25
ENDBRANCH  23  24
ENDBRANCH  19  23
ENDBRANCH   1  16
TORSDOF 6
ENDMDL
MODEL 8
REMARK VINA RESULT:      -6.0      4.689      9.370
REMARK  Name = ZINC000543478179
REMARK  8 active torsions:
REMARK  status: ('A' for Active; 'I' for Inactive)
REMARK    1  A    between atoms: C_1  and  C_2
REMARK    2  A    between atoms: C_2  and  N_3
REMARK    3  A    between atoms: N_9  and  C_10
REMARK    4  A    between atoms: C_10  and  C_11
REMARK    5  A    between atoms: C_10  and  C_12
REMARK    6  A    between atoms: C_15  and  O_16
REMARK    7  A    between atoms: O_16  and  C_17
REMARK    8  A    between atoms: C_17  and  C_18
REMARK                            x       y       z     vdW  Elec       q    Type
REMARK                         _______ _______ _______ _____ _____    ______ ____
ROOT
ATOM      1  C   UNL     1      32.717  19.538  14.040  0.00  0.00    +0.102 C 
ATOM      2  C   UNL     1      31.876  18.296  13.715  0.00  0.00    +0.033 C 
ENDROOT
BRANCH   1   9
ATOM      3  N   UNL     1      35.452  21.817   8.730  0.00  0.00    -0.299 N 
ATOM      4  C   UNL     1      36.266  20.830   9.442  0.00  0.00    +0.127 C 
ATOM      5  C   UNL     1      36.285  21.087  10.952  0.00  0.00    +0.129 C 
ATOM      6  N   UNL     1      34.917  21.057  11.462  0.00  0.00    -0.275 N 
ATOM      7  C   UNL     1      34.595  20.242  12.538  0.00  0.00    +0.303 C 
ATOM      8  O   UNL     1      35.419  19.558  13.129  0.00  0.00    -0.253 OA
ATOM      9  N   UNL     1      33.262  20.234  12.871  0.00  0.00    -0.293 N 
ATOM     10  C   UNL     1      33.974  21.914  10.741  0.00  0.00    +0.205 C 
ATOM     11  C   UNL     1      34.403  22.471   9.371  0.00  0.00    +0.233 C 
ATOM     12  O   UNL     1      33.747  23.360   8.828  0.00  0.00    -0.274 OA
ATOM     13  H   UNL     1      32.776  21.087  12.655  0.00  0.00    +0.151 HD
BRANCH   3  15
ATOM     14  C   UNL     1      36.749  22.580   6.771  0.00  0.00    +0.024 C 
ATOM     15  C   UNL     1      35.506  21.855   7.270  0.00  0.00    +0.104 C 
ENDBRANCH   3  15
ENDBRANCH   1   9
BRANCH   1  16
ATOM     16  C   UNL     1      31.874  20.539  14.821  0.00  0.00    -0.024 A 
ATOM     17  C   UNL     1      31.112  20.100  15.920  0.00  0.00    +0.009 A 
ATOM     18  C   UNL     1      30.265  20.968  16.603  0.00  0.00    +0.049 A 
ATOM     19  C   UNL     1      30.123  22.288  16.176  0.00  0.00    +0.156 A 
ATOM     20  C   UNL     1      30.924  22.750  15.128  0.00  0.00    +0.165 A 
ATOM     21  F   UNL     1      30.844  24.027  14.725  0.00  0.00    -0.202 F 
ATOM     22  C   UNL     1      31.792  21.888  14.449  0.00  0.00    +0.047 A 
BRANCH  19  23
ATOM     23  O   UNL     1      29.218  23.164  16.714  0.00  0.00    -0.489 OA
BRANCH  23  24
ATOM     24  C   UNL     1      28.633  22.729  17.945  0.00  0.00    +0.232 C 
BRANCH  24  25
ATOM     25  C   UNL     1      27.220  22.316  17.692  0.00  0.00    +0.027 C 
ATOM     26  C   UNL     1      26.295  22.028  18.846  0.00  0.00    +0.007 C 
ATOM     27  C   UNL     1      26.768  20.902  17.967  0.00  0.00    +0.007 C 
ENDBRANCH  24  25
ENDBRANCH  23  24
ENDBRANCH  19  23
ENDBRANCH   1  16
TORSDOF 6
ENDMDL
MODEL 9
REMARK VINA RESULT:      -5.9      4.385      7.973
REMARK  Name = ZINC000543478179
REMARK  8 active torsions:
REMARK  status: ('A' for Active; 'I' for Inactive)
REMARK    1  A    between atoms: C_1  and  C_2
REMARK    2  A    between atoms: C_2  and  N_3
REMARK    3  A    between atoms: N_9  and  C_10
REMARK    4  A    between atoms: C_10  and  C_11
REMARK    5  A    between atoms: C_10  and  C_12
REMARK    6  A    between atoms: C_15  and  O_16
REMARK    7  A    between atoms: O_16  and  C_17
REMARK    8  A    between atoms: C_17  and  C_18
REMARK                            x       y       z     vdW  Elec       q    Type
REMARK                         _______ _______ _______ _____ _____    ______ ____
ROOT
ATOM      1  C   UNL     1      31.430  21.450  15.266  0.00  0.00    +0.102 C 
ATOM      2  C   UNL     1      32.133  21.626  16.620  0.00  0.00    +0.033 C 
ENDROOT
BRANCH   1   9
ATOM      3  N   UNL     1      32.774  26.550  11.654  0.00  0.00    -0.299 N 
ATOM      4  C   UNL     1      31.948  26.851  12.824  0.00  0.00    +0.127 C 
ATOM      5  C   UNL     1      30.821  25.830  13.006  0.00  0.00    +0.129 C 
ATOM      6  N   UNL     1      31.398  24.495  13.141  0.00  0.00    -0.275 N 
ATOM      7  C   UNL     1      31.049  23.693  14.218  0.00  0.00    +0.303 C 
ATOM      8  O   UNL     1      30.231  24.029  15.065  0.00  0.00    -0.253 OA
ATOM      9  N   UNL     1      31.721  22.497  14.283  0.00  0.00    -0.293 N 
ATOM     10  C   UNL     1      32.347  24.127  12.089  0.00  0.00    +0.205 C 
ATOM     11  C   UNL     1      32.888  25.246  11.178  0.00  0.00    +0.233 C 
ATOM     12  O   UNL     1      33.512  24.966  10.154  0.00  0.00    -0.274 OA
ATOM     13  H   UNL     1      32.008  22.135  13.390  0.00  0.00    +0.151 HD
BRANCH   3  15
ATOM     14  C   UNL     1      34.027  28.585  12.277  0.00  0.00    +0.024 C 
ATOM     15  C   UNL     1      33.750  27.541  11.204  0.00  0.00    +0.104 C 
ENDBRANCH   3  15
ENDBRANCH   1   9
BRANCH   1  16
ATOM     16  C   UNL     1      31.831  20.115  14.650  0.00  0.00    -0.024 A 
ATOM     17  C   UNL     1      31.574  18.920  15.349  0.00  0.00    +0.009 A 
ATOM     18  C   UNL     1      32.002  17.690  14.857  0.00  0.00    +0.049 A 
ATOM     19  C   UNL     1      32.739  17.628  13.675  0.00  0.00    +0.156 A 
ATOM     20  C   UNL     1      32.942  18.800  12.941  0.00  0.00    +0.165 A 
ATOM     21  F   UNL     1      33.606  18.764  11.776  0.00  0.00    -0.202 F 
ATOM     22  C   UNL     1      32.498  20.037  13.420  0.00  0.00    +0.047 A 
BRANCH  19  23
ATOM     23  O   UNL     1      33.302  16.475  13.194  0.00  0.00    -0.489 OA
BRANCH  23  24
ATOM     24  C   UNL     1      34.508  16.084  13.858  0.00  0.00    +0.232 C 
BRANCH  24  25
ATOM     25  C   UNL     1      35.670  16.388  12.971  0.00  0.00    +0.027 C 
ATOM     26  C   UNL     1      37.073  16.075  13.424  0.00  0.00    +0.007 C 
ATOM     27  C   UNL     1      36.626  17.507  13.307  0.00  0.00    +0.007 C 
ENDBRANCH  24  25
ENDBRANCH  23  24
ENDBRANCH  19  23
ENDBRANCH   1  16
TORSDOF 6
ENDMDL
