MODEL 1
REMARK VINA RESULT:      -6.7      0.000      0.000
REMARK  Name = ZINC000543478179
REMARK  8 active torsions:
REMARK  status: ('A' for Active; 'I' for Inactive)
REMARK    1  A    between atoms: C_1  and  C_2
REMARK    2  A    between atoms: C_2  and  N_3
REMARK    3  A    between atoms: N_9  and  C_10
REMARK    4  A    between atoms: C_10  and  C_11
REMARK    5  A    between atoms: C_10  and  C_12
REMARK    6  A    between atoms: C_15  and  O_16
REMARK    7  A    between atoms: O_16  and  C_17
REMARK    8  A    between atoms: C_17  and  C_18
REMARK                            x       y       z     vdW  Elec       q    Type
REMARK                         _______ _______ _______ _____ _____    ______ ____
ROOT
ATOM      1  C   UNL     1      30.139  22.624  14.218  0.00  0.00    +0.102 C 
ATOM      2  C   UNL     1      29.991  21.128  13.903  0.00  0.00    +0.033 C 
ENDROOT
BRANCH   1   9
ATOM      3  N   UNL     1      32.523  23.188  20.122  0.00  0.00    -0.299 N 
ATOM      4  C   UNL     1      31.169  22.634  20.078  0.00  0.00    +0.127 C 
ATOM      5  C   UNL     1      30.263  23.412  19.119  0.00  0.00    +0.129 C 
ATOM      6  N   UNL     1      30.848  23.392  17.782  0.00  0.00    -0.275 N 
ATOM      7  C   UNL     1      30.086  22.980  16.697  0.00  0.00    +0.303 C 
ATOM      8  O   UNL     1      28.908  22.664  16.789  0.00  0.00    -0.253 OA
ATOM      9  N   UNL     1      30.770  22.920  15.507  0.00  0.00    -0.293 N 
ATOM     10  C   UNL     1      32.251  23.806  17.718  0.00  0.00    +0.205 C 
ATOM     11  C   UNL     1      33.042  23.888  19.036  0.00  0.00    +0.233 C 
ATOM     12  O   UNL     1      34.147  24.432  19.066  0.00  0.00    -0.274 OA
ATOM     13  H   UNL     1      31.533  23.570  15.436  0.00  0.00    +0.151 HD
BRANCH   3  15
ATOM     14  C   UNL     1      32.727  21.927  22.237  0.00  0.00    +0.024 C 
ATOM     15  C   UNL     1      33.449  22.709  21.147  0.00  0.00    +0.104 C 
ENDBRANCH   3  15
ENDBRANCH   1   9
BRANCH   1  16
ATOM     16  C   UNL     1      30.970  23.297  13.132  0.00  0.00    -0.024 A 
ATOM     17  C   UNL     1      32.267  22.827  12.856  0.00  0.00    +0.009 A 
ATOM     18  C   UNL     1      33.086  23.470  11.932  0.00  0.00    +0.049 A 
ATOM     19  C   UNL     1      32.645  24.629  11.294  0.00  0.00    +0.156 A 
ATOM     20  C   UNL     1      31.336  25.066  11.513  0.00  0.00    +0.165 A 
ATOM     21  F   UNL     1      30.868  26.150  10.877  0.00  0.00    -0.202 F 
ATOM     22  C   UNL     1      30.501  24.413  12.425  0.00  0.00    +0.047 A 
BRANCH  19  23
ATOM     23  O   UNL     1      33.437  25.387  10.472  0.00  0.00    -0.489 OA
BRANCH  23  24
ATOM     24  C   UNL     1      33.941  24.690   9.329  0.00  0.00    +0.232 C 
BRANCH  24  25
ATOM     25  C   UNL     1      32.837  24.519   8.338  0.00  0.00    +0.027 C 
ATOM     26  C   UNL     1      32.699  23.230   7.570  0.00  0.00    +0.007 C 
ATOM     27  C   UNL     1      33.126  24.484   6.857  0.00  0.00    +0.007 C 
ENDBRANCH  24  25
ENDBRANCH  23  24
ENDBRANCH  19  23
ENDBRANCH   1  16
TORSDOF 6
ENDMDL
MODEL 2
REMARK VINA RESULT:      -6.3      1.043      1.456
REMARK  Name = ZINC000543478179
REMARK  8 active torsions:
REMARK  status: ('A' for Active; 'I' for Inactive)
REMARK    1  A    between atoms: C_1  and  C_2
REMARK    2  A    between atoms: C_2  and  N_3
REMARK    3  A    between atoms: N_9  and  C_10
REMARK    4  A    between atoms: C_10  and  C_11
REMARK    5  A    between atoms: C_10  and  C_12
REMARK    6  A    between atoms: C_15  and  O_16
REMARK    7  A    between atoms: O_16  and  C_17
REMARK    8  A    between atoms: C_17  and  C_18
REMARK                            x       y       z     vdW  Elec       q    Type
REMARK                         _______ _______ _______ _____ _____    ______ ____
ROOT
ATOM      1  C   UNL     1      30.372  23.019  14.163  0.00  0.00    +0.102 C 
ATOM      2  C   UNL     1      30.224  21.544  13.766  0.00  0.00    +0.033 C 
ENDROOT
BRANCH   1   9
ATOM      3  N   UNL     1      32.605  23.242  20.149  0.00  0.00    -0.299 N 
ATOM      4  C   UNL     1      31.260  22.676  20.037  0.00  0.00    +0.127 C 
ATOM      5  C   UNL     1      30.367  23.502  19.106  0.00  0.00    +0.129 C 
ATOM      6  N   UNL     1      30.984  23.572  17.784  0.00  0.00    -0.275 N 
ATOM      7  C   UNL     1      30.255  23.220  16.657  0.00  0.00    +0.303 C 
ATOM      8  O   UNL     1      29.078  22.884  16.700  0.00  0.00    -0.253 OA
ATOM      9  N   UNL     1      30.967  23.242  15.483  0.00  0.00    -0.293 N 
ATOM     10  C   UNL     1      32.383  24.006  17.781  0.00  0.00    +0.205 C 
ATOM     11  C   UNL     1      33.141  24.014  19.121  0.00  0.00    +0.233 C 
ATOM     12  O   UNL     1      34.237  24.569  19.213  0.00  0.00    -0.274 OA
ATOM     13  H   UNL     1      31.724  23.904  15.471  0.00  0.00    +0.151 HD
BRANCH   3  15
ATOM     14  C   UNL     1      32.764  21.918  22.229  0.00  0.00    +0.024 C 
ATOM     15  C   UNL     1      33.512  22.711  21.165  0.00  0.00    +0.104 C 
ENDBRANCH   3  15
ENDBRANCH   1   9
BRANCH   1  16
ATOM     16  C   UNL     1      31.238  23.742  13.138  0.00  0.00    -0.024 A 
ATOM     17  C   UNL     1      30.664  24.725  12.310  0.00  0.00    +0.009 A 
ATOM     18  C   UNL     1      31.403  25.344  11.307  0.00  0.00    +0.049 A 
ATOM     19  C   UNL     1      32.724  24.963  11.074  0.00  0.00    +0.156 A 
ATOM     20  C   UNL     1      33.322  24.037  11.933  0.00  0.00    +0.165 A 
ATOM     21  F   UNL     1      34.606  23.686  11.764  0.00  0.00    -0.202 F 
ATOM     22  C   UNL     1      32.591  23.424  12.956  0.00  0.00    +0.047 A 
BRANCH  19  23
ATOM     23  O   UNL     1      33.474  25.433  10.029  0.00  0.00    -0.489 OA
BRANCH  23  24
ATOM     24  C   UNL     1      33.023  25.008   8.739  0.00  0.00    +0.232 C 
BRANCH  24  25
ATOM     25  C   UNL     1      33.395  23.575   8.542  0.00  0.00    +0.027 C 
ATOM     26  C   UNL     1      33.766  23.068   7.173  0.00  0.00    +0.007 C 
ATOM     27  C   UNL     1      32.473  22.632   7.808  0.00  0.00    +0.007 C 
ENDBRANCH  24  25
ENDBRANCH  23  24
ENDBRANCH  19  23
ENDBRANCH   1  16
TORSDOF 6
ENDMDL
MODEL 3
REMARK VINA RESULT:      -6.1      3.642      9.191
REMARK  Name = ZINC000543478179
REMARK  8 active torsions:
REMARK  status: ('A' for Active; 'I' for Inactive)
REMARK    1  A    between atoms: C_1  and  C_2
REMARK    2  A    between atoms: C_2  and  N_3
REMARK    3  A    between atoms: N_9  and  C_10
REMARK    4  A    between atoms: C_10  and  C_11
REMARK    5  A    between atoms: C_10  and  C_12
REMARK    6  A    between atoms: C_15  and  O_16
REMARK    7  A    between atoms: O_16  and  C_17
REMARK    8  A    between atoms: C_17  and  C_18
REMARK                            x       y       z     vdW  Elec       q    Type
REMARK                         _______ _______ _______ _____ _____    ______ ____
ROOT
ATOM      1  C   UNL     1      32.385  20.026  12.830  0.00  0.00    +0.102 C 
ATOM      2  C   UNL     1      31.781  18.737  12.256  0.00  0.00    +0.033 C 
ENDROOT
BRANCH   1   9
ATOM      3  N   UNL     1      34.125  23.774   7.953  0.00  0.00    -0.299 N 
ATOM      4  C   UNL     1      34.950  22.575   8.104  0.00  0.00    +0.127 C 
ATOM      5  C   UNL     1      35.337  22.327   9.566  0.00  0.00    +0.129 C 
ATOM      6  N   UNL     1      34.124  22.197  10.369  0.00  0.00    -0.275 N 
ATOM      7  C   UNL     1      33.952  21.093  11.192  0.00  0.00    +0.303 C 
ATOM      8  O   UNL     1      34.797  20.217  11.322  0.00  0.00    -0.253 OA
ATOM      9  N   UNL     1      32.737  21.038  11.829  0.00  0.00    -0.293 N 
ATOM     10  C   UNL     1      33.156  23.283  10.202  0.00  0.00    +0.205 C 
ATOM     11  C   UNL     1      33.335  24.233   9.003  0.00  0.00    +0.233 C 
ATOM     12  O   UNL     1      32.688  25.279   8.937  0.00  0.00    -0.274 OA
ATOM     13  H   UNL     1      32.324  21.936  12.011  0.00  0.00    +0.151 HD
BRANCH   3  15
ATOM     14  C   UNL     1      35.104  24.251   5.735  0.00  0.00    +0.024 C 
ATOM     15  C   UNL     1      33.856  24.281   6.608  0.00  0.00    +0.104 C 
ENDBRANCH   3  15
ENDBRANCH   1   9
BRANCH   1  16
ATOM     16  C   UNL     1      31.402  20.664  13.805  0.00  0.00    -0.024 A 
ATOM     17  C   UNL     1      30.090  20.163  13.898  0.00  0.00    +0.009 A 
ATOM     18  C   UNL     1      29.142  20.774  14.714  0.00  0.00    +0.049 A 
ATOM     19  C   UNL     1      29.468  21.930  15.422  0.00  0.00    +0.156 A 
ATOM     20  C   UNL     1      30.785  22.396  15.387  0.00  0.00    +0.165 A 
ATOM     21  F   UNL     1      31.140  23.478  16.095  0.00  0.00    -0.202 F 
ATOM     22  C   UNL     1      31.748  21.776  14.584  0.00  0.00    +0.047 A 
BRANCH  19  23
ATOM     23  O   UNL     1      28.557  22.658  16.142  0.00  0.00    -0.489 OA
BRANCH  23  24
ATOM     24  C   UNL     1      27.820  21.898  17.104  0.00  0.00    +0.232 C 
BRANCH  24  25
ATOM     25  C   UNL     1      27.963  22.541  18.444  0.00  0.00    +0.027 C 
ATOM     26  C   UNL     1      29.214  23.306  18.789  0.00  0.00    +0.007 C 
ATOM     27  C   UNL     1      28.931  21.991  19.464  0.00  0.00    +0.007 C 
ENDBRANCH  24  25
ENDBRANCH  23  24
ENDBRANCH  19  23
ENDBRANCH   1  16
TORSDOF 6
ENDMDL
MODEL 4
REMARK VINA RESULT:      -5.9      4.452      6.722
REMARK  Name = ZINC000543478179
REMARK  8 active torsions:
REMARK  status: ('A' for Active; 'I' for Inactive)
REMARK    1  A    between atoms: C_1  and  C_2
REMARK    2  A    between atoms: C_2  and  N_3
REMARK    3  A    between atoms: N_9  and  C_10
REMARK    4  A    between atoms: C_10  and  C_11
REMARK    5  A    between atoms: C_10  and  C_12
REMARK    6  A    between atoms: C_15  and  O_16
REMARK    7  A    between atoms: O_16  and  C_17
REMARK    8  A    between atoms: C_17  and  C_18
REMARK                            x       y       z     vdW  Elec       q    Type
REMARK                         _______ _______ _______ _____ _____    ______ ____
ROOT
ATOM      1  C   UNL     1      33.437  23.207  16.819  0.00  0.00    +0.102 C 
ATOM      2  C   UNL     1      33.968  24.598  16.445  0.00  0.00    +0.033 C 
ENDROOT
BRANCH   1   9
ATOM      3  N   UNL     1      35.619  21.678  22.630  0.00  0.00    -0.299 N 
ATOM      4  C   UNL     1      36.631  21.603  21.576  0.00  0.00    +0.127 C 
ATOM      5  C   UNL     1      36.099  20.903  20.321  0.00  0.00    +0.129 C 
ATOM      6  N   UNL     1      34.928  21.623  19.829  0.00  0.00    -0.275 N 
ATOM      7  C   UNL     1      34.870  22.030  18.503  0.00  0.00    +0.303 C 
ATOM      8  O   UNL     1      35.747  21.779  17.687  0.00  0.00    -0.253 OA
ATOM      9  N   UNL     1      33.760  22.772  18.181  0.00  0.00    -0.293 N 
ATOM     10  C   UNL     1      33.894  21.874  20.834  0.00  0.00    +0.205 C 
ATOM     11  C   UNL     1      34.262  21.677  22.316  0.00  0.00    +0.233 C 
ATOM     12  O   UNL     1      33.383  21.663  23.179  0.00  0.00    -0.274 OA
ATOM     13  H   UNL     1      32.948  22.564  18.735  0.00  0.00    +0.151 HD
BRANCH   3  15
ATOM     14  C   UNL     1      36.186  23.623  24.044  0.00  0.00    +0.024 C 
ATOM     15  C   UNL     1      36.022  22.110  23.967  0.00  0.00    +0.104 C 
ENDBRANCH   3  15
ENDBRANCH   1   9
BRANCH   1  16
ATOM     16  C   UNL     1      31.920  23.180  16.674  0.00  0.00    -0.024 A 
ATOM     17  C   UNL     1      31.111  23.624  17.737  0.00  0.00    +0.009 A 
ATOM     18  C   UNL     1      29.724  23.535  17.674  0.00  0.00    +0.049 A 
ATOM     19  C   UNL     1      29.110  22.955  16.564  0.00  0.00    +0.156 A 
ATOM     20  C   UNL     1      29.900  22.571  15.477  0.00  0.00    +0.165 A 
ATOM     21  F   UNL     1      29.334  22.055  14.377  0.00  0.00    -0.202 F 
ATOM     22  C   UNL     1      31.294  22.676  15.526  0.00  0.00    +0.047 A 
BRANCH  19  23
ATOM     23  O   UNL     1      27.763  22.716  16.484  0.00  0.00    -0.489 OA
BRANCH  23  24
ATOM     24  C   UNL     1      27.260  21.823  17.482  0.00  0.00    +0.232 C 
BRANCH  24  25
ATOM     25  C   UNL     1      26.946  20.509  16.845  0.00  0.00    +0.027 C 
ATOM     26  C   UNL     1      26.643  19.305  17.698  0.00  0.00    +0.007 C 
ATOM     27  C   UNL     1      27.926  19.364  16.914  0.00  0.00    +0.007 C 
ENDBRANCH  24  25
ENDBRANCH  23  24
ENDBRANCH  19  23
ENDBRANCH   1  16
TORSDOF 6
ENDMDL
MODEL 5
REMARK VINA RESULT:      -5.9      3.258      5.015
REMARK  Name = ZINC000543478179
REMARK  8 active torsions:
REMARK  status: ('A' for Active; 'I' for Inactive)
REMARK    1  A    between atoms: C_1  and  C_2
REMARK    2  A    between atoms: C_2  and  N_3
REMARK    3  A    between atoms: N_9  and  C_10
REMARK    4  A    between atoms: C_10  and  C_11
REMARK    5  A    between atoms: C_10  and  C_12
REMARK    6  A    between atoms: C_15  and  O_16
REMARK    7  A    between atoms: O_16  and  C_17
REMARK    8  A    between atoms: C_17  and  C_18
REMARK                            x       y       z     vdW  Elec       q    Type
REMARK                         _______ _______ _______ _____ _____    ______ ____
ROOT
ATOM      1  C   UNL     1      32.270  24.873  11.193  0.00  0.00    +0.102 C 
ATOM      2  C   UNL     1      31.383  26.066  10.811  0.00  0.00    +0.033 C 
ENDROOT
BRANCH   1   9
ATOM      3  N   UNL     1      29.314  21.393  15.667  0.00  0.00    -0.299 N 
ATOM      4  C   UNL     1      29.994  22.579  16.190  0.00  0.00    +0.127 C 
ATOM      5  C   UNL     1      31.396  22.744  15.593  0.00  0.00    +0.129 C 
ATOM      6  N   UNL     1      31.293  22.835  14.140  0.00  0.00    -0.275 N 
ATOM      7  C   UNL     1      31.888  23.892  13.466  0.00  0.00    +0.303 C 
ATOM      8  O   UNL     1      32.549  24.756  14.028  0.00  0.00    -0.253 OA
ATOM      9  N   UNL     1      31.649  23.917  12.114  0.00  0.00    -0.293 N 
ATOM     10  C   UNL     1      30.518  21.764  13.510  0.00  0.00    +0.205 C 
ATOM     11  C   UNL     1      29.637  20.880  14.414  0.00  0.00    +0.233 C 
ATOM     12  O   UNL     1      29.141  19.842  13.975  0.00  0.00    -0.274 OA
ATOM     13  H   UNL     1      31.497  23.012  11.704  0.00  0.00    +0.151 HD
BRANCH   3  15
ATOM     14  C   UNL     1      27.387  22.104  17.039  0.00  0.00    +0.024 C 
ATOM     15  C   UNL     1      28.065  20.963  16.293  0.00  0.00    +0.104 C 
ENDBRANCH   3  15
ENDBRANCH   1   9
BRANCH   1  16
ATOM     16  C   UNL     1      32.672  24.109   9.937  0.00  0.00    -0.024 A 
ATOM     17  C   UNL     1      33.238  22.825  10.054  0.00  0.00    +0.009 A 
ATOM     18  C   UNL     1      33.694  22.134   8.936  0.00  0.00    +0.049 A 
ATOM     19  C   UNL     1      33.640  22.728   7.675  0.00  0.00    +0.156 A 
ATOM     20  C   UNL     1      33.021  23.973   7.540  0.00  0.00    +0.165 A 
ATOM     21  F   UNL     1      32.911  24.549   6.334  0.00  0.00    -0.202 F 
ATOM     22  C   UNL     1      32.542  24.666   8.658  0.00  0.00    +0.047 A 
BRANCH  19  23
ATOM     23  O   UNL     1      34.183  22.166   6.550  0.00  0.00    -0.489 OA
BRANCH  23  24
ATOM     24  C   UNL     1      35.613  22.197   6.504  0.00  0.00    +0.232 C 
BRANCH  24  25
ATOM     25  C   UNL     1      36.048  23.411   5.751  0.00  0.00    +0.027 C 
ATOM     26  C   UNL     1      37.513  23.737   5.616  0.00  0.00    +0.007 C 
ATOM     27  C   UNL     1      36.629  24.601   6.474  0.00  0.00    +0.007 C 
ENDBRANCH  24  25
ENDBRANCH  23  24
ENDBRANCH  19  23
ENDBRANCH   1  16
TORSDOF 6
ENDMDL
MODEL 6
REMARK VINA RESULT:      -5.9      5.321      8.176
REMARK  Name = ZINC000543478179
REMARK  8 active torsions:
REMARK  status: ('A' for Active; 'I' for Inactive)
REMARK    1  A    between atoms: C_1  and  C_2
REMARK    2  A    between atoms: C_2  and  N_3
REMARK    3  A    between atoms: N_9  and  C_10
REMARK    4  A    between atoms: C_10  and  C_11
REMARK    5  A    between atoms: C_10  and  C_12
REMARK    6  A    between atoms: C_15  and  O_16
REMARK    7  A    between atoms: O_16  and  C_17
REMARK    8  A    between atoms: C_17  and  C_18
REMARK                            x       y       z     vdW  Elec       q    Type
REMARK                         _______ _______ _______ _____ _____    ______ ____
ROOT
ATOM      1  C   UNL     1      33.719  22.220  21.358  0.00  0.00    +0.102 C 
ATOM      2  C   UNL     1      33.022  21.797  22.659  0.00  0.00    +0.033 C 
ENDROOT
BRANCH   1   9
ATOM      3  N   UNL     1      37.471  17.468  19.307  0.00  0.00    -0.299 N 
ATOM      4  C   UNL     1      38.087  18.311  20.332  0.00  0.00    +0.127 C 
ATOM      5  C   UNL     1      37.858  19.801  20.060  0.00  0.00    +0.129 C 
ATOM      6  N   UNL     1      36.423  20.065  20.002  0.00  0.00    -0.275 N 
ATOM      7  C   UNL     1      35.869  21.068  20.784  0.00  0.00    +0.303 C 
ATOM      8  O   UNL     1      36.534  21.795  21.510  0.00  0.00    -0.253 OA
ATOM      9  N   UNL     1      34.501  21.163  20.709  0.00  0.00    -0.293 N 
ATOM     10  C   UNL     1      35.673  19.190  19.099  0.00  0.00    +0.205 C 
ATOM     11  C   UNL     1      36.368  17.915  18.583  0.00  0.00    +0.233 C 
ATOM     12  O   UNL     1      35.872  17.265  17.663  0.00  0.00    -0.274 OA
ATOM     13  H   UNL     1      34.113  20.865  19.831  0.00  0.00    +0.151 HD
BRANCH   3  15
ATOM     14  C   UNL     1      38.793  15.668  20.363  0.00  0.00    +0.024 C 
ATOM     15  C   UNL     1      37.781  16.039  19.288  0.00  0.00    +0.104 C 
ENDBRANCH   3  15
ENDBRANCH   1   9
BRANCH   1  16
ATOM     16  C   UNL     1      32.681  22.708  20.355  0.00  0.00    -0.024 A 
ATOM     17  C   UNL     1      31.313  22.503  20.613  0.00  0.00    +0.009 A 
ATOM     18  C   UNL     1      30.342  22.858  19.681  0.00  0.00    +0.049 A 
ATOM     19  C   UNL     1      30.717  23.386  18.446  0.00  0.00    +0.156 A 
ATOM     20  C   UNL     1      32.068  23.654  18.207  0.00  0.00    +0.165 A 
ATOM     21  F   UNL     1      32.455  24.205  17.047  0.00  0.00    -0.202 F 
ATOM     22  C   UNL     1      33.048  23.317  19.147  0.00  0.00    +0.047 A 
BRANCH  19  23
ATOM     23  O   UNL     1      29.833  23.641  17.431  0.00  0.00    -0.489 OA
BRANCH  23  24
ATOM     24  C   UNL     1      29.699  22.578  16.482  0.00  0.00    +0.232 C 
BRANCH  24  25
ATOM     25  C   UNL     1      28.251  22.256  16.314  0.00  0.00    +0.027 C 
ATOM     26  C   UNL     1      27.364  22.100  17.522  0.00  0.00    +0.007 C 
ATOM     27  C   UNL     1      27.715  20.896  16.691  0.00  0.00    +0.007 C 
ENDBRANCH  24  25
ENDBRANCH  23  24
ENDBRANCH  19  23
ENDBRANCH   1  16
TORSDOF 6
ENDMDL
MODEL 7
REMARK VINA RESULT:      -5.9      6.265      8.355
REMARK  Name = ZINC000543478179
REMARK  8 active torsions:
REMARK  status: ('A' for Active; 'I' for Inactive)
REMARK    1  A    between atoms: C_1  and  C_2
REMARK    2  A    between atoms: C_2  and  N_3
REMARK    3  A    between atoms: N_9  and  C_10
REMARK    4  A    between atoms: C_10  and  C_11
REMARK    5  A    between atoms: C_10  and  C_12
REMARK    6  A    between atoms: C_15  and  O_16
REMARK    7  A    between atoms: O_16  and  C_17
REMARK    8  A    between atoms: C_17  and  C_18
REMARK                            x       y       z     vdW  Elec       q    Type
REMARK                         _______ _______ _______ _____ _____    ______ ____
ROOT
ATOM      1  C   UNL     1      32.298  17.820  12.623  0.00  0.00    +0.102 C 
ATOM      2  C   UNL     1      32.884  18.473  11.363  0.00  0.00    +0.033 C 
ENDROOT
BRANCH   1   9
ATOM      3  N   UNL     1      37.056  15.401  16.141  0.00  0.00    -0.299 N 
ATOM      4  C   UNL     1      36.666  14.559  15.009  0.00  0.00    +0.127 C 
ATOM      5  C   UNL     1      35.144  14.437  14.885  0.00  0.00    +0.129 C 
ATOM      6  N   UNL     1      34.566  15.768  14.731  0.00  0.00    -0.275 N 
ATOM      7  C   UNL     1      33.704  16.034  13.676  0.00  0.00    +0.303 C 
ATOM      8  O   UNL     1      33.357  15.184  12.866  0.00  0.00    -0.253 OA
ATOM      9  N   UNL     1      33.294  17.342  13.586  0.00  0.00    -0.293 N 
ATOM     10  C   UNL     1      34.988  16.742  15.740  0.00  0.00    +0.205 C 
ATOM     11  C   UNL     1      36.204  16.394  16.618  0.00  0.00    +0.233 C 
ATOM     12  O   UNL     1      36.467  17.070  17.613  0.00  0.00    -0.274 OA
ATOM     13  H   UNL     1      33.261  17.826  14.466  0.00  0.00    +0.151 HD
BRANCH   3  15
ATOM     14  C   UNL     1      38.965  14.072  16.975  0.00  0.00    +0.024 C 
ATOM     15  C   UNL     1      38.462  15.442  16.539  0.00  0.00    +0.104 C 
ENDBRANCH   3  15
ENDBRANCH   1   9
BRANCH   1  16
ATOM     16  C   UNL     1      31.399  18.816  13.346  0.00  0.00    -0.024 A 
ATOM     17  C   UNL     1      30.427  18.348  14.251  0.00  0.00    +0.009 A 
ATOM     18  C   UNL     1      29.534  19.221  14.864  0.00  0.00    +0.049 A 
ATOM     19  C   UNL     1      29.557  20.580  14.553  0.00  0.00    +0.156 A 
ATOM     20  C   UNL     1      30.560  21.063  13.708  0.00  0.00    +0.165 A 
ATOM     21  F   UNL     1      30.638  22.372  13.428  0.00  0.00    -0.202 F 
ATOM     22  C   UNL     1      31.474  20.194  13.103  0.00  0.00    +0.047 A 
BRANCH  19  23
ATOM     23  O   UNL     1      28.632  21.478  15.016  0.00  0.00    -0.489 OA
BRANCH  23  24
ATOM     24  C   UNL     1      29.017  22.161  16.213  0.00  0.00    +0.232 C 
BRANCH  24  25
ATOM     25  C   UNL     1      28.088  21.771  17.315  0.00  0.00    +0.027 C 
ATOM     26  C   UNL     1      27.011  20.745  17.072  0.00  0.00    +0.007 C 
ATOM     27  C   UNL     1      26.637  22.187  17.284  0.00  0.00    +0.007 C 
ENDBRANCH  24  25
ENDBRANCH  23  24
ENDBRANCH  19  23
ENDBRANCH   1  16
TORSDOF 6
ENDMDL
MODEL 8
REMARK VINA RESULT:      -5.8      4.752      9.206
REMARK  Name = ZINC000543478179
REMARK  8 active torsions:
REMARK  status: ('A' for Active; 'I' for Inactive)
REMARK    1  A    between atoms: C_1  and  C_2
REMARK    2  A    between atoms: C_2  and  N_3
REMARK    3  A    between atoms: N_9  and  C_10
REMARK    4  A    between atoms: C_10  and  C_11
REMARK    5  A    between atoms: C_10  and  C_12
REMARK    6  A    between atoms: C_15  and  O_16
REMARK    7  A    between atoms: O_16  and  C_17
REMARK    8  A    between atoms: C_17  and  C_18
REMARK                            x       y       z     vdW  Elec       q    Type
REMARK                         _______ _______ _______ _____ _____    ______ ____
ROOT
ATOM      1  C   UNL     1      30.583  17.193  14.107  0.00  0.00    +0.102 C 
ATOM      2  C   UNL     1      29.775  16.201  13.258  0.00  0.00    +0.033 C 
ENDROOT
BRANCH   1   9
ATOM      3  N   UNL     1      34.334  20.552  10.168  0.00  0.00    -0.299 N 
ATOM      4  C   UNL     1      34.643  19.122  10.209  0.00  0.00    +0.127 C 
ATOM      5  C   UNL     1      34.664  18.582  11.642  0.00  0.00    +0.129 C 
ATOM      6  N   UNL     1      33.366  18.823  12.266  0.00  0.00    -0.275 N 
ATOM      7  C   UNL     1      32.679  17.777  12.865  0.00  0.00    +0.303 C 
ATOM      8  O   UNL     1      33.125  16.640  12.941  0.00  0.00    -0.253 OA
ATOM      9  N   UNL     1      31.433  18.107  13.339  0.00  0.00    -0.293 N 
ATOM     10  C   UNL     1      32.887  20.203  12.174  0.00  0.00    +0.205 C 
ATOM     11  C   UNL     1      33.590  21.149  11.183  0.00  0.00    +0.233 C 
ATOM     12  O   UNL     1      33.374  22.361  11.220  0.00  0.00    -0.274 OA
ATOM     13  H   UNL     1      31.339  19.068  13.621  0.00  0.00    +0.151 HD
BRANCH   3  15
ATOM     14  C   UNL     1      35.909  21.806   8.738  0.00  0.00    +0.024 C 
ATOM     15  C   UNL     1      34.493  21.273   8.907  0.00  0.00    +0.104 C 
ENDBRANCH   3  15
ENDBRANCH   1   9
BRANCH   1  16
ATOM     16  C   UNL     1      29.635  18.040  14.947  0.00  0.00    -0.024 A 
ATOM     17  C   UNL     1      29.591  19.434  14.754  0.00  0.00    +0.009 A 
ATOM     18  C   UNL     1      28.801  20.249  15.560  0.00  0.00    +0.049 A 
ATOM     19  C   UNL     1      28.071  19.696  16.612  0.00  0.00    +0.156 A 
ATOM     20  C   UNL     1      28.057  18.308  16.771  0.00  0.00    +0.165 A 
ATOM     21  F   UNL     1      27.327  17.743  17.743  0.00  0.00    -0.202 F 
ATOM     22  C   UNL     1      28.833  17.481  15.951  0.00  0.00    +0.047 A 
BRANCH  19  23
ATOM     23  O   UNL     1      27.374  20.444  17.525  0.00  0.00    -0.489 OA
BRANCH  23  24
ATOM     24  C   UNL     1      27.607  21.853  17.436  0.00  0.00    +0.232 C 
BRANCH  24  25
ATOM     25  C   UNL     1      28.572  22.253  18.503  0.00  0.00    +0.027 C 
ATOM     26  C   UNL     1      28.565  23.659  19.044  0.00  0.00    +0.007 C 
ATOM     27  C   UNL     1      29.717  23.189  18.197  0.00  0.00    +0.007 C 
ENDBRANCH  24  25
ENDBRANCH  23  24
ENDBRANCH  19  23
ENDBRANCH   1  16
TORSDOF 6
ENDMDL
MODEL 9
REMARK VINA RESULT:      -5.8      2.894      9.065
REMARK  Name = ZINC000543478179
REMARK  8 active torsions:
REMARK  status: ('A' for Active; 'I' for Inactive)
REMARK    1  A    between atoms: C_1  and  C_2
REMARK    2  A    between atoms: C_2  and  N_3
REMARK    3  A    between atoms: N_9  and  C_10
REMARK    4  A    between atoms: C_10  and  C_11
REMARK    5  A    between atoms: C_10  and  C_12
REMARK    6  A    between atoms: C_15  and  O_16
REMARK    7  A    between atoms: O_16  and  C_17
REMARK    8  A    between atoms: C_17  and  C_18
REMARK                            x       y       z     vdW  Elec       q    Type
REMARK                         _______ _______ _______ _____ _____    ______ ____
ROOT
ATOM      1  C   UNL     1      31.361  21.389  14.023  0.00  0.00    +0.102 C 
ATOM      2  C   UNL     1      29.845  21.148  14.020  0.00  0.00    +0.033 C 
ENDROOT
BRANCH   1   9
ATOM      3  N   UNL     1      33.504  23.680   8.453  0.00  0.00    -0.299 N 
ATOM      4  C   UNL     1      33.910  22.300   8.724  0.00  0.00    +0.127 C 
ATOM      5  C   UNL     1      34.400  22.121  10.165  0.00  0.00    +0.129 C 
ATOM      6  N   UNL     1      33.338  22.513  11.087  0.00  0.00    -0.275 N 
ATOM      7  C   UNL     1      32.938  21.645  12.094  0.00  0.00    +0.303 C 
ATOM      8  O   UNL     1      33.465  20.558  12.288  0.00  0.00    -0.253 OA
ATOM      9  N   UNL     1      31.873  22.087  12.841  0.00  0.00    -0.293 N 
ATOM     10  C   UNL     1      32.759  23.833  10.832  0.00  0.00    +0.205 C 
ATOM     11  C   UNL     1      33.061  24.508   9.481  0.00  0.00    +0.233 C 
ATOM     12  O   UNL     1      32.784  25.695   9.303  0.00  0.00    -0.274 OA
ATOM     13  H   UNL     1      31.802  23.088  12.908  0.00  0.00    +0.151 HD
BRANCH   3  15
ATOM     14  C   UNL     1      34.500  24.191   6.251  0.00  0.00    +0.024 C 
ATOM     15  C   UNL     1      33.223  24.075   7.074  0.00  0.00    +0.104 C 
ENDBRANCH   3  15
ENDBRANCH   1   9
BRANCH   1  16
ATOM     16  C   UNL     1      31.747  22.212  15.247  0.00  0.00    -0.024 A 
ATOM     17  C   UNL     1      33.097  22.284  15.640  0.00  0.00    +0.009 A 
ATOM     18  C   UNL     1      33.476  22.955  16.799  0.00  0.00    +0.049 A 
ATOM     19  C   UNL     1      32.508  23.531  17.622  0.00  0.00    +0.156 A 
ATOM     20  C   UNL     1      31.174  23.521  17.208  0.00  0.00    +0.165 A 
ATOM     21  F   UNL     1      30.227  24.108  17.954  0.00  0.00    -0.202 F 
ATOM     22  C   UNL     1      30.789  22.865  16.033  0.00  0.00    +0.047 A 
BRANCH  19  23
ATOM     23  O   UNL     1      32.789  24.095  18.839  0.00  0.00    -0.489 OA
BRANCH  23  24
ATOM     24  C   UNL     1      33.621  23.294  19.685  0.00  0.00    +0.232 C 
BRANCH  24  25
ATOM     25  C   UNL     1      32.805  22.180  20.254  0.00  0.00    +0.027 C 
ATOM     26  C   UNL     1      31.461  22.463  20.872  0.00  0.00    +0.007 C 
ATOM     27  C   UNL     1      32.614  22.048  21.746  0.00  0.00    +0.007 C 
ENDBRANCH  24  25
ENDBRANCH  23  24
ENDBRANCH  19  23
ENDBRANCH   1  16
TORSDOF 6
ENDMDL
