MODEL 1
REMARK VINA RESULT:      -6.6      0.000      0.000
REMARK  Name = ZINC000826139982
REMARK  4 active torsions:
REMARK  status: ('A' for Active; 'I' for Inactive)
REMARK    1  A    between atoms: C_2  and  C_4
REMARK    2  A    between atoms: C_8  and  C_10
REMARK    3  A    between atoms: C_14  and  S_15
REMARK    4  A    between atoms: S_15  and  C_16
REMARK                            x       y       z     vdW  Elec       q    Type
REMARK                         _______ _______ _______ _____ _____    ______ ____
ROOT
ATOM      1  C   UNL     1      31.902  23.018  20.361  0.00  0.00    +0.093 C 
ATOM      2  C   UNL     1      33.235  23.735  20.118  0.00  0.00    +0.033 C 
ATOM      3  C   UNL     1      33.111  24.361  18.736  0.00  0.00    +0.109 C 
ATOM      4  N   UNL     1      32.167  23.509  18.042  0.00  0.00    -0.297 N 
ATOM      5  C   UNL     1      32.169  23.400  16.657  0.00  0.00    +0.247 C 
ATOM      6  O   UNL     1      33.024  23.957  15.970  0.00  0.00    -0.270 OA
ATOM      7  C   UNL     1      31.218  22.967  19.000  0.00  0.00    +0.120 C 
ENDROOT
BRANCH   5   8
ATOM      8  C   UNL     1      31.166  22.535  15.952  0.00  0.00    +0.038 A 
ATOM      9  C   UNL     1      29.786  22.750  16.008  0.00  0.00    +0.013 A 
ATOM     10  C   UNL     1      28.894  21.844  15.437  0.00  0.00    +0.002 A 
ATOM     11  C   UNL     1      29.376  20.762  14.709  0.00  0.00    +0.015 A 
ATOM     12  C   UNL     1      30.752  20.601  14.520  0.00  0.00    +0.017 A 
ATOM     13  C   UNL     1      31.642  21.466  15.173  0.00  0.00    +0.028 A 
BRANCH  12  14
ATOM     14  S   UNL     1      31.382  19.287  13.496  0.00  0.00    -0.016 S 
BRANCH  14  15
ATOM     15  C   UNL     1      31.177  17.864  14.587  0.00  0.00    +0.448 C 
ATOM     16  F   UNL     1      29.889  17.493  14.775  0.00  0.00    -0.160 F 
ATOM     17  F   UNL     1      31.834  16.784  14.100  0.00  0.00    -0.160 F 
ATOM     18  F   UNL     1      31.695  18.125  15.813  0.00  0.00    -0.160 F 
ENDBRANCH  14  15
ENDBRANCH  12  14
ENDBRANCH   5   8
BRANCH   1  20
ATOM     19  N   UNL     1      31.685  24.073  22.538  0.00  0.00    -0.329 N 
ATOM     20  C   UNL     1      31.025  23.665  21.416  0.00  0.00    +0.215 C 
ATOM     21  O   UNL     1      29.811  23.778  21.342  0.00  0.00    -0.276 OA
ATOM     22  H   UNL     1      31.128  24.447  23.297  0.00  0.00    +0.145 HD
ATOM     23  H   UNL     1      32.675  23.939  22.683  0.00  0.00    +0.145 HD
ENDBRANCH   1  20
TORSDOF 4
ENDMDL
MODEL 2
REMARK VINA RESULT:      -6.6      2.098      2.734
REMARK  Name = ZINC000826139982
REMARK  4 active torsions:
REMARK  status: ('A' for Active; 'I' for Inactive)
REMARK    1  A    between atoms: C_2  and  C_4
REMARK    2  A    between atoms: C_8  and  C_10
REMARK    3  A    between atoms: C_14  and  S_15
REMARK    4  A    between atoms: S_15  and  C_16
REMARK                            x       y       z     vdW  Elec       q    Type
REMARK                         _______ _______ _______ _____ _____    ______ ____
ROOT
ATOM      1  C   UNL     1      30.512  24.241  19.176  0.00  0.00    +0.093 C 
ATOM      2  C   UNL     1      29.000  24.341  19.405  0.00  0.00    +0.033 C 
ATOM      3  C   UNL     1      28.397  23.172  18.638  0.00  0.00    +0.109 C 
ATOM      4  N   UNL     1      29.343  22.921  17.571  0.00  0.00    -0.297 N 
ATOM      5  C   UNL     1      28.952  22.327  16.377  0.00  0.00    +0.247 C 
ATOM      6  O   UNL     1      27.772  22.067  16.146  0.00  0.00    -0.270 OA
ATOM      7  C   UNL     1      30.683  23.252  18.030  0.00  0.00    +0.120 C 
ENDROOT
BRANCH   5   8
ATOM      8  C   UNL     1      29.951  22.048  15.293  0.00  0.00    +0.038 A 
ATOM      9  C   UNL     1      30.377  23.009  14.371  0.00  0.00    +0.013 A 
ATOM     10  C   UNL     1      31.212  22.665  13.308  0.00  0.00    +0.002 A 
ATOM     11  C   UNL     1      31.717  21.373  13.215  0.00  0.00    +0.015 A 
ATOM     12  C   UNL     1      31.418  20.430  14.202  0.00  0.00    +0.017 A 
ATOM     13  C   UNL     1      30.507  20.760  15.216  0.00  0.00    +0.028 A 
BRANCH  12  14
ATOM     14  S   UNL     1      32.147  18.806  14.160  0.00  0.00    -0.016 S 
BRANCH  14  15
ATOM     15  C   UNL     1      30.719  17.791  13.723  0.00  0.00    +0.448 C 
ATOM     16  F   UNL     1      29.897  17.519  14.763  0.00  0.00    -0.160 F 
ATOM     17  F   UNL     1      29.969  18.398  12.772  0.00  0.00    -0.160 F 
ATOM     18  F   UNL     1      31.119  16.599  13.214  0.00  0.00    -0.160 F 
ENDBRANCH  14  15
ENDBRANCH  12  14
ENDBRANCH   5   8
BRANCH   1  20
ATOM     19  N   UNL     1      30.633  23.946  21.585  0.00  0.00    -0.329 N 
ATOM     20  C   UNL     1      31.306  23.834  20.404  0.00  0.00    +0.215 C 
ATOM     21  O   UNL     1      32.477  23.488  20.395  0.00  0.00    -0.276 OA
ATOM     22  H   UNL     1      31.147  23.751  22.435  0.00  0.00    +0.145 HD
ATOM     23  H   UNL     1      29.688  24.295  21.657  0.00  0.00    +0.145 HD
ENDBRANCH   1  20
TORSDOF 4
ENDMDL
MODEL 3
REMARK VINA RESULT:      -6.5      4.560      6.870
REMARK  Name = ZINC000826139982
REMARK  4 active torsions:
REMARK  status: ('A' for Active; 'I' for Inactive)
REMARK    1  A    between atoms: C_2  and  C_4
REMARK    2  A    between atoms: C_8  and  C_10
REMARK    3  A    between atoms: C_14  and  S_15
REMARK    4  A    between atoms: S_15  and  C_16
REMARK                            x       y       z     vdW  Elec       q    Type
REMARK                         _______ _______ _______ _____ _____    ______ ____
ROOT
ATOM      1  C   UNL     1      32.661  24.110  12.839  0.00  0.00    +0.093 C 
ATOM      2  C   UNL     1      33.402  22.804  12.527  0.00  0.00    +0.033 C 
ATOM      3  C   UNL     1      32.543  21.699  13.127  0.00  0.00    +0.109 C 
ATOM      4  N   UNL     1      31.845  22.345  14.220  0.00  0.00    -0.297 N 
ATOM      5  C   UNL     1      31.389  21.625  15.317  0.00  0.00    +0.247 C 
ATOM      6  O   UNL     1      31.632  20.425  15.444  0.00  0.00    -0.270 OA
ATOM      7  C   UNL     1      31.615  23.740  13.883  0.00  0.00    +0.120 C 
ENDROOT
BRANCH   5   8
ATOM      8  C   UNL     1      30.643  22.304  16.427  0.00  0.00    +0.038 A 
ATOM      9  C   UNL     1      29.248  22.352  16.503  0.00  0.00    +0.013 A 
ATOM     10  C   UNL     1      28.607  23.102  17.488  0.00  0.00    +0.002 A 
ATOM     11  C   UNL     1      29.356  23.729  18.478  0.00  0.00    +0.015 A 
ATOM     12  C   UNL     1      30.746  23.581  18.506  0.00  0.00    +0.017 A 
ATOM     13  C   UNL     1      31.386  22.901  17.460  0.00  0.00    +0.028 A 
BRANCH  12  14
ATOM     14  S   UNL     1      31.709  24.282  19.829  0.00  0.00    -0.016 S 
BRANCH  14  15
ATOM     15  C   UNL     1      31.079  23.360  21.248  0.00  0.00    +0.448 C 
ATOM     16  F   UNL     1      29.853  23.759  21.664  0.00  0.00    -0.160 F 
ATOM     17  F   UNL     1      30.991  22.039  20.964  0.00  0.00    -0.160 F 
ATOM     18  F   UNL     1      31.915  23.485  22.307  0.00  0.00    -0.160 F 
ENDBRANCH  14  15
ENDBRANCH  12  14
ENDBRANCH   5   8
BRANCH   1  20
ATOM     19  N   UNL     1      32.069  26.149  11.659  0.00  0.00    -0.329 N 
ATOM     20  C   UNL     1      32.045  24.786  11.628  0.00  0.00    +0.215 C 
ATOM     21  O   UNL     1      31.502  24.200  10.703  0.00  0.00    -0.276 OA
ATOM     22  H   UNL     1      31.607  26.640  10.903  0.00  0.00    +0.145 HD
ATOM     23  H   UNL     1      32.441  26.683  12.431  0.00  0.00    +0.145 HD
ENDBRANCH   1  20
TORSDOF 4
ENDMDL
MODEL 4
REMARK VINA RESULT:      -6.5      4.273      6.307
REMARK  Name = ZINC000826139982
REMARK  4 active torsions:
REMARK  status: ('A' for Active; 'I' for Inactive)
REMARK    1  A    between atoms: C_2  and  C_4
REMARK    2  A    between atoms: C_8  and  C_10
REMARK    3  A    between atoms: C_14  and  S_15
REMARK    4  A    between atoms: S_15  and  C_16
REMARK                            x       y       z     vdW  Elec       q    Type
REMARK                         _______ _______ _______ _____ _____    ______ ____
ROOT
ATOM      1  C   UNL     1      32.383  18.855  14.622  0.00  0.00    +0.093 C 
ATOM      2  C   UNL     1      32.259  19.173  13.127  0.00  0.00    +0.033 C 
ATOM      3  C   UNL     1      32.023  20.676  13.052  0.00  0.00    +0.109 C 
ATOM      4  N   UNL     1      31.385  20.999  14.312  0.00  0.00    -0.297 N 
ATOM      5  C   UNL     1      30.552  22.103  14.443  0.00  0.00    +0.247 C 
ATOM      6  O   UNL     1      30.257  22.802  13.474  0.00  0.00    -0.270 OA
ATOM      7  C   UNL     1      31.876  20.097  15.343  0.00  0.00    +0.120 C 
ENDROOT
BRANCH   5   8
ATOM      8  C   UNL     1      29.921  22.439  15.762  0.00  0.00    +0.038 A 
ATOM      9  C   UNL     1      28.611  22.089  16.102  0.00  0.00    +0.013 A 
ATOM     10  C   UNL     1      28.034  22.534  17.290  0.00  0.00    +0.002 A 
ATOM     11  C   UNL     1      28.798  23.249  18.206  0.00  0.00    +0.015 A 
ATOM     12  C   UNL     1      30.151  23.493  17.952  0.00  0.00    +0.017 A 
ATOM     13  C   UNL     1      30.697  23.119  16.716  0.00  0.00    +0.028 A 
BRANCH  12  14
ATOM     14  S   UNL     1      31.172  24.307  19.164  0.00  0.00    -0.016 S 
BRANCH  14  15
ATOM     15  C   UNL     1      31.790  22.896  20.105  0.00  0.00    +0.448 C 
ATOM     16  F   UNL     1      32.201  21.858  19.339  0.00  0.00    -0.160 F 
ATOM     17  F   UNL     1      32.840  23.257  20.881  0.00  0.00    -0.160 F 
ATOM     18  F   UNL     1      30.829  22.418  20.934  0.00  0.00    -0.160 F 
ENDBRANCH  14  15
ENDBRANCH  12  14
ENDBRANCH   5   8
BRANCH   1  20
ATOM     19  N   UNL     1      33.960  18.420  16.417  0.00  0.00    -0.329 N 
ATOM     20  C   UNL     1      33.781  18.468  15.066  0.00  0.00    +0.215 C 
ATOM     21  O   UNL     1      34.722  18.267  14.313  0.00  0.00    -0.276 OA
ATOM     22  H   UNL     1      34.896  18.234  16.757  0.00  0.00    +0.145 HD
ATOM     23  H   UNL     1      33.237  18.647  17.084  0.00  0.00    +0.145 HD
ENDBRANCH   1  20
TORSDOF 4
ENDMDL
MODEL 5
REMARK VINA RESULT:      -6.5      4.464      7.034
REMARK  Name = ZINC000826139982
REMARK  4 active torsions:
REMARK  status: ('A' for Active; 'I' for Inactive)
REMARK    1  A    between atoms: C_2  and  C_4
REMARK    2  A    between atoms: C_8  and  C_10
REMARK    3  A    between atoms: C_14  and  S_15
REMARK    4  A    between atoms: S_15  and  C_16
REMARK                            x       y       z     vdW  Elec       q    Type
REMARK                         _______ _______ _______ _____ _____    ______ ____
ROOT
ATOM      1  C   UNL     1      30.039  22.052  15.642  0.00  0.00    +0.093 C 
ATOM      2  C   UNL     1      28.549  21.736  15.816  0.00  0.00    +0.033 C 
ATOM      3  C   UNL     1      28.048  22.716  16.868  0.00  0.00    +0.109 C 
ATOM      4  N   UNL     1      29.219  23.011  17.666  0.00  0.00    -0.297 N 
ATOM      5  C   UNL     1      29.113  23.419  18.990  0.00  0.00    +0.247 C 
ATOM      6  O   UNL     1      28.024  23.466  19.562  0.00  0.00    -0.270 OA
ATOM      7  C   UNL     1      30.403  22.942  16.824  0.00  0.00    +0.120 C 
ENDROOT
BRANCH   5   8
ATOM      8  C   UNL     1      30.336  23.748  19.795  0.00  0.00    +0.038 A 
ATOM      9  C   UNL     1      30.715  23.047  20.943  0.00  0.00    +0.013 A 
ATOM     10  C   UNL     1      31.790  23.472  21.722  0.00  0.00    +0.002 A 
ATOM     11  C   UNL     1      32.568  24.546  21.304  0.00  0.00    +0.015 A 
ATOM     12  C   UNL     1      32.294  25.177  20.087  0.00  0.00    +0.017 A 
ATOM     13  C   UNL     1      31.158  24.800  19.356  0.00  0.00    +0.028 A 
BRANCH  12  14
ATOM     14  S   UNL     1      33.347  26.479  19.480  0.00  0.00    -0.016 S 
BRANCH  14  15
ATOM     15  C   UNL     1      34.223  25.629  18.150  0.00  0.00    +0.448 C 
ATOM     16  F   UNL     1      35.244  26.342  17.618  0.00  0.00    -0.160 F 
ATOM     17  F   UNL     1      34.744  24.457  18.587  0.00  0.00    -0.160 F 
ATOM     18  F   UNL     1      33.376  25.334  17.133  0.00  0.00    -0.160 F 
ENDBRANCH  14  15
ENDBRANCH  12  14
ENDBRANCH   5   8
BRANCH   1  20
ATOM     19  N   UNL     1      29.974  23.984  14.172  0.00  0.00    -0.329 N 
ATOM     20  C   UNL     1      30.392  22.694  14.314  0.00  0.00    +0.215 C 
ATOM     21  O   UNL     1      30.950  22.123  13.389  0.00  0.00    -0.276 OA
ATOM     22  H   UNL     1      30.128  24.428  13.275  0.00  0.00    +0.145 HD
ATOM     23  H   UNL     1      29.447  24.481  14.875  0.00  0.00    +0.145 HD
ENDBRANCH   1  20
TORSDOF 4
ENDMDL
MODEL 6
REMARK VINA RESULT:      -6.5      4.386      7.019
REMARK  Name = ZINC000826139982
REMARK  4 active torsions:
REMARK  status: ('A' for Active; 'I' for Inactive)
REMARK    1  A    between atoms: C_2  and  C_4
REMARK    2  A    between atoms: C_8  and  C_10
REMARK    3  A    between atoms: C_14  and  S_15
REMARK    4  A    between atoms: S_15  and  C_16
REMARK                            x       y       z     vdW  Elec       q    Type
REMARK                         _______ _______ _______ _____ _____    ______ ____
ROOT
ATOM      1  C   UNL     1      32.651  22.686  12.039  0.00  0.00    +0.093 C 
ATOM      2  C   UNL     1      33.368  21.332  12.005  0.00  0.00    +0.033 C 
ATOM      3  C   UNL     1      32.459  20.375  12.765  0.00  0.00    +0.109 C 
ATOM      4  N   UNL     1      31.739  21.227  13.689  0.00  0.00    -0.297 N 
ATOM      5  C   UNL     1      31.224  20.733  14.881  0.00  0.00    +0.247 C 
ATOM      6  O   UNL     1      31.430  19.574  15.239  0.00  0.00    -0.270 OA
ATOM      7  C   UNL     1      31.558  22.539  13.090  0.00  0.00    +0.120 C 
ENDROOT
BRANCH   5   8
ATOM      8  C   UNL     1      30.456  21.622  15.815  0.00  0.00    +0.038 A 
ATOM      9  C   UNL     1      29.060  21.692  15.840  0.00  0.00    +0.013 A 
ATOM     10  C   UNL     1      28.402  22.625  16.640  0.00  0.00    +0.002 A 
ATOM     11  C   UNL     1      29.131  23.431  17.508  0.00  0.00    +0.015 A 
ATOM     12  C   UNL     1      30.518  23.284  17.603  0.00  0.00    +0.017 A 
ATOM     13  C   UNL     1      31.178  22.407  16.731  0.00  0.00    +0.028 A 
BRANCH  12  14
ATOM     14  S   UNL     1      31.454  24.227  18.789  0.00  0.00    -0.016 S 
BRANCH  14  15
ATOM     15  C   UNL     1      31.676  23.011  20.105  0.00  0.00    +0.448 C 
ATOM     16  F   UNL     1      32.539  23.399  21.074  0.00  0.00    -0.160 F 
ATOM     17  F   UNL     1      30.497  22.735  20.712  0.00  0.00    -0.160 F 
ATOM     18  F   UNL     1      32.148  21.844  19.601  0.00  0.00    -0.160 F 
ENDBRANCH  14  15
ENDBRANCH  12  14
ENDBRANCH   5   8
BRANCH   1  20
ATOM     19  N   UNL     1      32.074  22.171   9.736  0.00  0.00    -0.329 N 
ATOM     20  C   UNL     1      32.098  23.136  10.699  0.00  0.00    +0.215 C 
ATOM     21  O   UNL     1      31.749  24.277  10.436  0.00  0.00    -0.276 OA
ATOM     22  H   UNL     1      31.777  22.446   8.808  0.00  0.00    +0.145 HD
ATOM     23  H   UNL     1      32.416  21.232   9.879  0.00  0.00    +0.145 HD
ENDBRANCH   1  20
TORSDOF 4
ENDMDL
MODEL 7
REMARK VINA RESULT:      -6.4      4.355      6.920
REMARK  Name = ZINC000826139982
REMARK  4 active torsions:
REMARK  status: ('A' for Active; 'I' for Inactive)
REMARK    1  A    between atoms: C_2  and  C_4
REMARK    2  A    between atoms: C_8  and  C_10
REMARK    3  A    between atoms: C_14  and  S_15
REMARK    4  A    between atoms: S_15  and  C_16
REMARK                            x       y       z     vdW  Elec       q    Type
REMARK                         _______ _______ _______ _____ _____    ______ ____
ROOT
ATOM      1  C   UNL     1      32.008  18.103  14.812  0.00  0.00    +0.093 C 
ATOM      2  C   UNL     1      30.611  17.719  14.310  0.00  0.00    +0.033 C 
ATOM      3  C   UNL     1      29.990  19.017  13.812  0.00  0.00    +0.109 C 
ATOM      4  N   UNL     1      30.644  20.047  14.593  0.00  0.00    -0.297 N 
ATOM      5  C   UNL     1      30.034  21.271  14.838  0.00  0.00    +0.247 C 
ATOM      6  O   UNL     1      28.881  21.498  14.473  0.00  0.00    -0.270 OA
ATOM      7  C   UNL     1      32.000  19.624  14.904  0.00  0.00    +0.120 C 
ENDROOT
BRANCH   5   8
ATOM      8  C   UNL     1      30.736  22.337  15.625  0.00  0.00    +0.038 A 
ATOM      9  C   UNL     1      31.757  23.136  15.102  0.00  0.00    +0.013 A 
ATOM     10  C   UNL     1      32.460  24.026  15.912  0.00  0.00    +0.002 A 
ATOM     11  C   UNL     1      32.079  24.206  17.237  0.00  0.00    +0.015 A 
ATOM     12  C   UNL     1      30.972  23.522  17.748  0.00  0.00    +0.017 A 
ATOM     13  C   UNL     1      30.328  22.563  16.951  0.00  0.00    +0.028 A 
BRANCH  12  14
ATOM     14  S   UNL     1      30.400  23.825  19.407  0.00  0.00    -0.016 S 
BRANCH  14  15
ATOM     15  C   UNL     1      31.590  22.866  20.368  0.00  0.00    +0.448 C 
ATOM     16  F   UNL     1      32.291  21.966  19.639  0.00  0.00    -0.160 F 
ATOM     17  F   UNL     1      32.492  23.679  20.968  0.00  0.00    -0.160 F 
ATOM     18  F   UNL     1      30.962  22.174  21.350  0.00  0.00    -0.160 F 
ENDBRANCH  14  15
ENDBRANCH  12  14
ENDBRANCH   5   8
BRANCH   1  20
ATOM     19  N   UNL     1      34.194  17.058  14.642  0.00  0.00    -0.329 N 
ATOM     20  C   UNL     1      33.146  17.590  13.950  0.00  0.00    +0.215 C 
ATOM     21  O   UNL     1      33.196  17.681  12.733  0.00  0.00    -0.276 OA
ATOM     22  H   UNL     1      35.005  16.766  14.109  0.00  0.00    +0.145 HD
ATOM     23  H   UNL     1      34.237  17.023  15.650  0.00  0.00    +0.145 HD
ENDBRANCH   1  20
TORSDOF 4
ENDMDL
MODEL 8
REMARK VINA RESULT:      -6.3      4.597      7.136
REMARK  Name = ZINC000826139982
REMARK  4 active torsions:
REMARK  status: ('A' for Active; 'I' for Inactive)
REMARK    1  A    between atoms: C_2  and  C_4
REMARK    2  A    between atoms: C_8  and  C_10
REMARK    3  A    between atoms: C_14  and  S_15
REMARK    4  A    between atoms: S_15  and  C_16
REMARK                            x       y       z     vdW  Elec       q    Type
REMARK                         _______ _______ _______ _____ _____    ______ ____
ROOT
ATOM      1  C   UNL     1      32.225  23.838  12.555  0.00  0.00    +0.093 C 
ATOM      2  C   UNL     1      30.971  23.152  12.000  0.00  0.00    +0.033 C 
ATOM      3  C   UNL     1      30.032  23.004  13.189  0.00  0.00    +0.109 C 
ATOM      4  N   UNL     1      30.915  22.942  14.335  0.00  0.00    -0.297 N 
ATOM      5  C   UNL     1      30.538  22.303  15.510  0.00  0.00    +0.247 C 
ATOM      6  O   UNL     1      29.473  21.694  15.596  0.00  0.00    -0.270 OA
ATOM      7  C   UNL     1      32.101  23.742  14.070  0.00  0.00    +0.120 C 
ENDROOT
BRANCH   5   8
ATOM      8  C   UNL     1      31.454  22.272  16.697  0.00  0.00    +0.038 A 
ATOM      9  C   UNL     1      32.509  21.364  16.834  0.00  0.00    +0.013 A 
ATOM     10  C   UNL     1      33.251  21.297  18.013  0.00  0.00    +0.002 A 
ATOM     11  C   UNL     1      33.016  22.213  19.032  0.00  0.00    +0.015 A 
ATOM     12  C   UNL     1      32.061  23.220  18.864  0.00  0.00    +0.017 A 
ATOM     13  C   UNL     1      31.259  23.223  17.713  0.00  0.00    +0.028 A 
BRANCH  12  14
ATOM     14  S   UNL     1      31.827  24.469  20.111  0.00  0.00    -0.016 S 
BRANCH  14  15
ATOM     15  C   UNL     1      30.965  23.530  21.390  0.00  0.00    +0.448 C 
ATOM     16  F   UNL     1      31.469  23.702  22.635  0.00  0.00    -0.160 F 
ATOM     17  F   UNL     1      29.656  23.873  21.441  0.00  0.00    -0.160 F 
ATOM     18  F   UNL     1      31.018  22.202  21.123  0.00  0.00    -0.160 F 
ENDBRANCH  14  15
ENDBRANCH  12  14
ENDBRANCH   5   8
BRANCH   1  20
ATOM     19  N   UNL     1      31.273  26.014  12.043  0.00  0.00    -0.329 N 
ATOM     20  C   UNL     1      32.414  25.269  12.088  0.00  0.00    +0.215 C 
ATOM     21  O   UNL     1      33.474  25.746  11.710  0.00  0.00    -0.276 OA
ATOM     22  H   UNL     1      31.343  26.953  11.671  0.00  0.00    +0.145 HD
ATOM     23  H   UNL     1      30.360  25.650  12.274  0.00  0.00    +0.145 HD
ENDBRANCH   1  20
TORSDOF 4
ENDMDL
MODEL 9
REMARK VINA RESULT:      -6.2      4.653      5.511
REMARK  Name = ZINC000826139982
REMARK  4 active torsions:
REMARK  status: ('A' for Active; 'I' for Inactive)
REMARK    1  A    between atoms: C_2  and  C_4
REMARK    2  A    between atoms: C_8  and  C_10
REMARK    3  A    between atoms: C_14  and  S_15
REMARK    4  A    between atoms: S_15  and  C_16
REMARK                            x       y       z     vdW  Elec       q    Type
REMARK                         _______ _______ _______ _____ _____    ______ ____
ROOT
ATOM      1  C   UNL     1      31.532  23.406  16.985  0.00  0.00    +0.093 C 
ATOM      2  C   UNL     1      30.108  22.873  17.175  0.00  0.00    +0.033 C 
ATOM      3  C   UNL     1      29.766  22.160  15.874  0.00  0.00    +0.109 C 
ATOM      4  N   UNL     1      30.576  22.830  14.878  0.00  0.00    -0.297 N 
ATOM      5  C   UNL     1      30.203  22.862  13.540  0.00  0.00    +0.247 C 
ATOM      6  O   UNL     1      29.129  22.395  13.161  0.00  0.00    -0.270 OA
ATOM      7  C   UNL     1      31.813  23.284  15.492  0.00  0.00    +0.120 C 
ENDROOT
BRANCH   5   8
ATOM      8  C   UNL     1      31.067  23.537  12.516  0.00  0.00    +0.038 A 
ATOM      9  C   UNL     1      31.089  24.920  12.315  0.00  0.00    +0.013 A 
ATOM     10  C   UNL     1      31.817  25.483  11.267  0.00  0.00    +0.002 A 
ATOM     11  C   UNL     1      32.621  24.676  10.470  0.00  0.00    +0.015 A 
ATOM     12  C   UNL     1      32.726  23.308  10.738  0.00  0.00    +0.017 A 
ATOM     13  C   UNL     1      31.921  22.738  11.736  0.00  0.00    +0.028 A 
BRANCH  12  14
ATOM     14  S   UNL     1      33.837  22.279   9.800  0.00  0.00    -0.016 S 
BRANCH  14  15
ATOM     15  C   UNL     1      32.803  21.848   8.384  0.00  0.00    +0.448 C 
ATOM     16  F   UNL     1      31.729  21.086   8.697  0.00  0.00    -0.160 F 
ATOM     17  F   UNL     1      32.335  22.961   7.772  0.00  0.00    -0.160 F 
ATOM     18  F   UNL     1      33.521  21.158   7.463  0.00  0.00    -0.160 F 
ENDBRANCH  14  15
ENDBRANCH  12  14
ENDBRANCH   5   8
BRANCH   1  20
ATOM     19  N   UNL     1      32.250  22.528  19.134  0.00  0.00    -0.329 N 
ATOM     20  C   UNL     1      32.583  22.699  17.822  0.00  0.00    +0.215 C 
ATOM     21  O   UNL     1      33.680  22.350  17.415  0.00  0.00    -0.276 OA
ATOM     22  H   UNL     1      32.950  22.123  19.743  0.00  0.00    +0.145 HD
ATOM     23  H   UNL     1      31.387  22.861  19.538  0.00  0.00    +0.145 HD
ENDBRANCH   1  20
TORSDOF 4
ENDMDL
