MODEL 1
REMARK VINA RESULT:      -7.2      0.000      0.000
REMARK  Name = ZINC000870248439
REMARK  2 active torsions:
REMARK  status: ('A' for Active; 'I' for Inactive)
REMARK    1  A    between atoms: C_2  and  C_4
REMARK    2  A    between atoms: C_7  and  C_8
REMARK                            x       y       z     vdW  Elec       q    Type
REMARK                         _______ _______ _______ _____ _____    ______ ____
ROOT
ATOM      1  C   UNL     1      31.704  22.013  15.082  0.00  0.00    +0.247 C 
ATOM      2  O   UNL     1      32.408  21.136  15.581  0.00  0.00    -0.270 OA
ATOM      3  N   UNL     1      32.129  22.830  14.025  0.00  0.00    -0.297 N 
ATOM      4  C   UNL     1      31.348  23.910  13.417  0.00  0.00    +0.108 C 
ATOM      5  C   UNL     1      31.535  24.014  11.908  0.00  0.00    +0.026 C 
ATOM      6  C   UNL     1      33.015  24.036  11.468  0.00  0.00    -0.025 C 
ATOM      7  C   UNL     1      33.040  23.920   9.923  0.00  0.00    +0.017 C 
ATOM      8  C   UNL     1      34.427  23.962   9.296  0.00  0.00    +0.069 C 
ATOM      9  S   UNL     1      35.302  25.509   9.658  0.00  0.00    -0.161 S 
ATOM     10  C   UNL     1      35.122  25.539  11.463  0.00  0.00    +0.069 C 
ATOM     11  C   UNL     1      33.669  25.376  11.893  0.00  0.00    +0.017 C 
ATOM     12  C   UNL     1      33.702  22.806  12.117  0.00  0.00    +0.026 C 
ATOM     13  C   UNL     1      33.535  22.760  13.636  0.00  0.00    +0.108 C 
ENDROOT
BRANCH   1  17
ATOM     14  C   UNL     1      27.803  22.224  16.805  0.00  0.00    +0.037 A 
ATOM     15  C   UNL     1      27.992  21.494  15.627  0.00  0.00    +0.014 A 
ATOM     16  C   UNL     1      29.240  21.499  15.003  0.00  0.00    +0.014 A 
ATOM     17  C   UNL     1      30.322  22.151  15.605  0.00  0.00    +0.037 A 
ATOM     18  C   UNL     1      30.110  22.954  16.733  0.00  0.00    +0.014 A 
ATOM     19  C   UNL     1      28.846  22.999  17.328  0.00  0.00    +0.014 A 
BRANCH  14  21
ATOM     20  N   UNL     1      26.516  22.546  18.841  0.00  0.00    -0.325 N 
ATOM     21  C   UNL     1      26.503  22.196  17.520  0.00  0.00    +0.242 C 
ATOM     22  O   UNL     1      25.460  21.926  16.944  0.00  0.00    -0.270 OA
ATOM     23  H   UNL     1      25.611  22.642  19.285  0.00  0.00    +0.145 HD
ATOM     24  H   UNL     1      27.299  23.021  19.268  0.00  0.00    +0.145 HD
ENDBRANCH  14  21
ENDBRANCH   1  17
TORSDOF 2
ENDMDL
MODEL 2
REMARK VINA RESULT:      -7.2      1.913      2.220
REMARK  Name = ZINC000870248439
REMARK  2 active torsions:
REMARK  status: ('A' for Active; 'I' for Inactive)
REMARK    1  A    between atoms: C_2  and  C_4
REMARK    2  A    between atoms: C_7  and  C_8
REMARK                            x       y       z     vdW  Elec       q    Type
REMARK                         _______ _______ _______ _____ _____    ______ ____
ROOT
ATOM      1  C   UNL     1      31.281  21.629  15.302  0.00  0.00    +0.247 C 
ATOM      2  O   UNL     1      31.220  20.400  15.305  0.00  0.00    -0.270 OA
ATOM      3  N   UNL     1      31.859  22.366  14.259  0.00  0.00    -0.297 N 
ATOM      4  C   UNL     1      31.991  23.824  14.218  0.00  0.00    +0.108 C 
ATOM      5  C   UNL     1      31.778  24.410  12.828  0.00  0.00    +0.026 C 
ATOM      6  C   UNL     1      32.606  23.713  11.728  0.00  0.00    -0.025 C 
ATOM      7  C   UNL     1      32.121  24.264  10.363  0.00  0.00    +0.017 C 
ATOM      8  C   UNL     1      32.856  23.713   9.148  0.00  0.00    +0.069 C 
ATOM      9  S   UNL     1      34.631  24.080   9.191  0.00  0.00    -0.161 S 
ATOM     10  C   UNL     1      35.026  23.456  10.847  0.00  0.00    +0.069 C 
ATOM     11  C   UNL     1      34.109  24.047  11.912  0.00  0.00    +0.017 C 
ATOM     12  C   UNL     1      32.317  22.193  11.835  0.00  0.00    +0.026 C 
ATOM     13  C   UNL     1      32.588  21.629  13.230  0.00  0.00    +0.108 C 
ENDROOT
BRANCH   1  17
ATOM     14  C   UNL     1      29.491  23.426  18.736  0.00  0.00    +0.037 A 
ATOM     15  C   UNL     1      28.692  23.120  17.630  0.00  0.00    +0.014 A 
ATOM     16  C   UNL     1      29.283  22.623  16.467  0.00  0.00    +0.014 A 
ATOM     17  C   UNL     1      30.653  22.341  16.442  0.00  0.00    +0.037 A 
ATOM     18  C   UNL     1      31.463  22.732  17.516  0.00  0.00    +0.014 A 
ATOM     19  C   UNL     1      30.883  23.285  18.660  0.00  0.00    +0.014 A 
BRANCH  14  21
ATOM     20  N   UNL     1      27.588  24.326  19.951  0.00  0.00    -0.325 N 
ATOM     21  C   UNL     1      28.887  23.906  20.005  0.00  0.00    +0.242 C 
ATOM     22  O   UNL     1      29.503  23.878  21.059  0.00  0.00    -0.270 OA
ATOM     23  H   UNL     1      27.150  24.533  20.840  0.00  0.00    +0.145 HD
ATOM     24  H   UNL     1      26.983  24.115  19.170  0.00  0.00    +0.145 HD
ENDBRANCH  14  21
ENDBRANCH   1  17
TORSDOF 2
ENDMDL
MODEL 3
REMARK VINA RESULT:      -7.1      2.173      2.830
REMARK  Name = ZINC000870248439
REMARK  2 active torsions:
REMARK  status: ('A' for Active; 'I' for Inactive)
REMARK    1  A    between atoms: C_2  and  C_4
REMARK    2  A    between atoms: C_7  and  C_8
REMARK                            x       y       z     vdW  Elec       q    Type
REMARK                         _______ _______ _______ _____ _____    ______ ____
ROOT
ATOM      1  C   UNL     1      31.900  20.096  13.135  0.00  0.00    +0.247 C 
ATOM      2  O   UNL     1      32.022  18.871  13.127  0.00  0.00    -0.270 OA
ATOM      3  N   UNL     1      32.465  20.930  12.161  0.00  0.00    -0.297 N 
ATOM      4  C   UNL     1      32.382  22.392  12.140  0.00  0.00    +0.108 C 
ATOM      5  C   UNL     1      32.227  22.967  10.738  0.00  0.00    +0.026 C 
ATOM      6  C   UNL     1      33.258  22.421   9.727  0.00  0.00    -0.025 C 
ATOM      7  C   UNL     1      32.839  22.921   8.321  0.00  0.00    +0.017 C 
ATOM      8  C   UNL     1      33.768  22.508   7.188  0.00  0.00    +0.069 C 
ATOM      9  S   UNL     1      35.455  23.133   7.416  0.00  0.00    -0.161 S 
ATOM     10  C   UNL     1      35.767  22.543   9.102  0.00  0.00    +0.069 C 
ATOM     11  C   UNL     1      34.668  22.971  10.068  0.00  0.00    +0.017 C 
ATOM     12  C   UNL     1      33.190  20.873   9.797  0.00  0.00    +0.026 C 
ATOM     13  C   UNL     1      33.397  20.329  11.211  0.00  0.00    +0.108 C 
ENDROOT
BRANCH   1  17
ATOM     14  C   UNL     1      29.450  22.029  16.048  0.00  0.00    +0.037 A 
ATOM     15  C   UNL     1      30.826  21.919  16.276  0.00  0.00    +0.014 A 
ATOM     16  C   UNL     1      31.620  21.205  15.378  0.00  0.00    +0.014 A 
ATOM     17  C   UNL     1      31.059  20.685  14.207  0.00  0.00    +0.037 A 
ATOM     18  C   UNL     1      29.670  20.717  14.026  0.00  0.00    +0.014 A 
ATOM     19  C   UNL     1      28.863  21.381  14.954  0.00  0.00    +0.014 A 
BRANCH  14  21
ATOM     20  N   UNL     1      27.249  22.548  16.942  0.00  0.00    -0.325 N 
ATOM     21  C   UNL     1      28.587  22.827  16.956  0.00  0.00    +0.242 C 
ATOM     22  O   UNL     1      29.055  23.657  17.720  0.00  0.00    -0.270 OA
ATOM     23  H   UNL     1      26.691  23.008  17.649  0.00  0.00    +0.145 HD
ATOM     24  H   UNL     1      26.876  21.705  16.528  0.00  0.00    +0.145 HD
ENDBRANCH  14  21
ENDBRANCH   1  17
TORSDOF 2
ENDMDL
MODEL 4
REMARK VINA RESULT:      -6.9      4.459      7.154
REMARK  Name = ZINC000870248439
REMARK  2 active torsions:
REMARK  status: ('A' for Active; 'I' for Inactive)
REMARK    1  A    between atoms: C_2  and  C_4
REMARK    2  A    between atoms: C_7  and  C_8
REMARK                            x       y       z     vdW  Elec       q    Type
REMARK                         _______ _______ _______ _____ _____    ______ ____
ROOT
ATOM      1  C   UNL     1      30.199  20.926  14.480  0.00  0.00    +0.247 C 
ATOM      2  O   UNL     1      29.109  21.288  14.039  0.00  0.00    -0.270 OA
ATOM      3  N   UNL     1      30.877  21.605  15.502  0.00  0.00    -0.297 N 
ATOM      4  C   UNL     1      32.190  21.241  16.041  0.00  0.00    +0.108 C 
ATOM      5  C   UNL     1      32.303  21.453  17.545  0.00  0.00    +0.026 C 
ATOM      6  C   UNL     1      31.843  22.851  18.010  0.00  0.00    -0.025 C 
ATOM      7  C   UNL     1      31.808  22.837  19.559  0.00  0.00    +0.017 C 
ATOM      8  C   UNL     1      31.407  24.155  20.208  0.00  0.00    +0.069 C 
ATOM      9  S   UNL     1      32.542  25.505  19.783  0.00  0.00    -0.161 S 
ATOM     10  C   UNL     1      32.535  25.345  17.977  0.00  0.00    +0.069 C 
ATOM     11  C   UNL     1      32.855  23.924  17.530  0.00  0.00    +0.017 C 
ATOM     12  C   UNL     1      30.420  23.077  17.436  0.00  0.00    +0.026 C 
ATOM     13  C   UNL     1      30.353  22.903  15.919  0.00  0.00    +0.108 C 
ENDROOT
BRANCH   1  17
ATOM     14  C   UNL     1      31.989  17.288  13.142  0.00  0.00    +0.037 A 
ATOM     15  C   UNL     1      32.452  18.506  12.633  0.00  0.00    +0.014 A 
ATOM     16  C   UNL     1      31.810  19.693  12.990  0.00  0.00    +0.014 A 
ATOM     17  C   UNL     1      30.771  19.674  13.926  0.00  0.00    +0.037 A 
ATOM     18  C   UNL     1      30.252  18.449  14.364  0.00  0.00    +0.014 A 
ATOM     19  C   UNL     1      30.855  17.254  13.963  0.00  0.00    +0.014 A 
BRANCH  14  21
ATOM     20  N   UNL     1      32.860  15.134  13.854  0.00  0.00    -0.325 N 
ATOM     21  C   UNL     1      32.683  16.015  12.824  0.00  0.00    +0.242 C 
ATOM     22  O   UNL     1      33.031  15.742  11.686  0.00  0.00    -0.270 OA
ATOM     23  H   UNL     1      33.221  14.222  13.602  0.00  0.00    +0.145 HD
ATOM     24  H   UNL     1      32.358  15.212  14.727  0.00  0.00    +0.145 HD
ENDBRANCH  14  21
ENDBRANCH   1  17
TORSDOF 2
ENDMDL
MODEL 5
REMARK VINA RESULT:      -6.9      5.462      7.150
REMARK  Name = ZINC000870248439
REMARK  2 active torsions:
REMARK  status: ('A' for Active; 'I' for Inactive)
REMARK    1  A    between atoms: C_2  and  C_4
REMARK    2  A    between atoms: C_7  and  C_8
REMARK                            x       y       z     vdW  Elec       q    Type
REMARK                         _______ _______ _______ _____ _____    ______ ____
ROOT
ATOM      1  C   UNL     1      31.230  23.491  19.584  0.00  0.00    +0.247 C 
ATOM      2  O   UNL     1      31.004  22.783  20.565  0.00  0.00    -0.270 OA
ATOM      3  N   UNL     1      32.009  24.655  19.641  0.00  0.00    -0.297 N 
ATOM      4  C   UNL     1      32.282  25.553  18.517  0.00  0.00    +0.108 C 
ATOM      5  C   UNL     1      33.698  26.116  18.525  0.00  0.00    +0.026 C 
ATOM      6  C   UNL     1      34.114  26.727  19.880  0.00  0.00    -0.025 C 
ATOM      7  C   UNL     1      35.627  27.049  19.799  0.00  0.00    +0.017 C 
ATOM      8  C   UNL     1      36.215  27.699  21.044  0.00  0.00    +0.069 C 
ATOM      9  S   UNL     1      35.425  29.284  21.434  0.00  0.00    -0.161 S 
ATOM     10  C   UNL     1      33.688  28.764  21.419  0.00  0.00    +0.069 C 
ATOM     11  C   UNL     1      33.322  28.037  20.130  0.00  0.00    +0.017 C 
ATOM     12  C   UNL     1      33.844  25.652  20.966  0.00  0.00    +0.026 C 
ATOM     13  C   UNL     1      32.402  25.145  20.960  0.00  0.00    +0.108 C 
ENDROOT
BRANCH   1  17
ATOM     14  C   UNL     1      29.823  22.397  15.705  0.00  0.00    +0.037 A 
ATOM     15  C   UNL     1      28.946  23.018  16.601  0.00  0.00    +0.014 A 
ATOM     16  C   UNL     1      29.367  23.291  17.902  0.00  0.00    +0.014 A 
ATOM     17  C   UNL     1      30.690  23.034  18.280  0.00  0.00    +0.037 A 
ATOM     18  C   UNL     1      31.537  22.332  17.413  0.00  0.00    +0.014 A 
ATOM     19  C   UNL     1      31.099  22.003  16.128  0.00  0.00    +0.014 A 
BRANCH  14  21
ATOM     20  N   UNL     1      29.623  23.155  13.404  0.00  0.00    -0.325 N 
ATOM     21  C   UNL     1      29.423  22.141  14.298  0.00  0.00    +0.242 C 
ATOM     22  O   UNL     1      28.986  21.057  13.943  0.00  0.00    -0.270 OA
ATOM     23  H   UNL     1      29.462  22.928  12.431  0.00  0.00    +0.145 HD
ATOM     24  H   UNL     1      30.215  23.948  13.608  0.00  0.00    +0.145 HD
ENDBRANCH  14  21
ENDBRANCH   1  17
TORSDOF 2
ENDMDL
MODEL 6
REMARK VINA RESULT:      -6.6      3.939      5.210
REMARK  Name = ZINC000870248439
REMARK  2 active torsions:
REMARK  status: ('A' for Active; 'I' for Inactive)
REMARK    1  A    between atoms: C_2  and  C_4
REMARK    2  A    between atoms: C_7  and  C_8
REMARK                            x       y       z     vdW  Elec       q    Type
REMARK                         _______ _______ _______ _____ _____    ______ ____
ROOT
ATOM      1  C   UNL     1      31.040  22.245  14.601  0.00  0.00    +0.247 C 
ATOM      2  O   UNL     1      31.089  23.034  13.659  0.00  0.00    -0.270 OA
ATOM      3  N   UNL     1      31.557  20.943  14.540  0.00  0.00    -0.297 N 
ATOM      4  C   UNL     1      31.495  19.952  15.616  0.00  0.00    +0.108 C 
ATOM      5  C   UNL     1      32.750  19.094  15.718  0.00  0.00    +0.026 C 
ATOM      6  C   UNL     1      33.190  18.477  14.373  0.00  0.00    -0.025 C 
ATOM      7  C   UNL     1      34.579  17.828  14.593  0.00  0.00    +0.017 C 
ATOM      8  C   UNL     1      35.165  17.130  13.373  0.00  0.00    +0.069 C 
ATOM      9  S   UNL     1      34.111  15.777  12.781  0.00  0.00    -0.161 S 
ATOM     10  C   UNL     1      32.535  16.663  12.647  0.00  0.00    +0.069 C 
ATOM     11  C   UNL     1      32.176  17.386  13.940  0.00  0.00    +0.017 C 
ATOM     12  C   UNL     1      33.287  19.638  13.349  0.00  0.00    +0.026 C 
ATOM     13  C   UNL     1      31.995  20.447  13.238  0.00  0.00    +0.108 C 
ENDROOT
BRANCH   1  17
ATOM     14  C   UNL     1      29.464  23.438  18.386  0.00  0.00    +0.037 A 
ATOM     15  C   UNL     1      28.596  22.933  17.411  0.00  0.00    +0.014 A 
ATOM     16  C   UNL     1      29.085  22.632  16.140  0.00  0.00    +0.014 A 
ATOM     17  C   UNL     1      30.453  22.742  15.870  0.00  0.00    +0.037 A 
ATOM     18  C   UNL     1      31.303  23.331  16.815  0.00  0.00    +0.014 A 
ATOM     19  C   UNL     1      30.805  23.690  18.071  0.00  0.00    +0.014 A 
BRANCH  14  21
ATOM     20  N   UNL     1      27.663  24.030  19.907  0.00  0.00    -0.325 N 
ATOM     21  C   UNL     1      28.986  23.717  19.763  0.00  0.00    +0.242 C 
ATOM     22  O   UNL     1      29.725  23.620  20.730  0.00  0.00    -0.270 OA
ATOM     23  H   UNL     1      27.323  24.097  20.857  0.00  0.00    +0.145 HD
ATOM     24  H   UNL     1      26.984  23.860  19.178  0.00  0.00    +0.145 HD
ENDBRANCH  14  21
ENDBRANCH   1  17
TORSDOF 2
ENDMDL
MODEL 7
REMARK VINA RESULT:      -6.4      5.085      7.364
REMARK  Name = ZINC000870248439
REMARK  2 active torsions:
REMARK  status: ('A' for Active; 'I' for Inactive)
REMARK    1  A    between atoms: C_2  and  C_4
REMARK    2  A    between atoms: C_7  and  C_8
REMARK                            x       y       z     vdW  Elec       q    Type
REMARK                         _______ _______ _______ _____ _____    ______ ____
ROOT
ATOM      1  C   UNL     1      32.278  23.363  16.321  0.00  0.00    +0.247 C 
ATOM      2  O   UNL     1      32.341  24.261  15.482  0.00  0.00    -0.270 OA
ATOM      3  N   UNL     1      32.646  23.538  17.662  0.00  0.00    -0.297 N 
ATOM      4  C   UNL     1      32.625  22.498  18.693  0.00  0.00    +0.108 C 
ATOM      5  C   UNL     1      32.185  23.012  20.059  0.00  0.00    +0.026 C 
ATOM      6  C   UNL     1      32.939  24.280  20.515  0.00  0.00    -0.025 C 
ATOM      7  C   UNL     1      32.237  24.800  21.796  0.00  0.00    +0.017 C 
ATOM      8  C   UNL     1      32.869  26.037  22.419  0.00  0.00    +0.069 C 
ATOM      9  S   UNL     1      34.591  25.756  22.917  0.00  0.00    -0.161 S 
ATOM     10  C   UNL     1      35.246  25.091  21.363  0.00  0.00    +0.069 C 
ATOM     11  C   UNL     1      34.412  23.924  20.845  0.00  0.00    +0.017 C 
ATOM     12  C   UNL     1      32.820  25.319  19.370  0.00  0.00    +0.026 C 
ATOM     13  C   UNL     1      33.314  24.785  18.025  0.00  0.00    +0.108 C 
ENDROOT
BRANCH   1  17
ATOM     14  C   UNL     1      30.823  19.655  14.784  0.00  0.00    +0.037 A 
ATOM     15  C   UNL     1      29.942  20.734  14.916  0.00  0.00    +0.014 A 
ATOM     16  C   UNL     1      30.383  21.918  15.507  0.00  0.00    +0.014 A 
ATOM     17  C   UNL     1      31.725  22.060  15.877  0.00  0.00    +0.037 A 
ATOM     18  C   UNL     1      32.581  20.952  15.827  0.00  0.00    +0.014 A 
ATOM     19  C   UNL     1      32.126  19.745  15.290  0.00  0.00    +0.014 A 
BRANCH  14  21
ATOM     20  N   UNL     1      30.272  18.441  12.751  0.00  0.00    -0.325 N 
ATOM     21  C   UNL     1      30.400  18.401  14.112  0.00  0.00    +0.242 C 
ATOM     22  O   UNL     1      30.225  17.366  14.736  0.00  0.00    -0.270 OA
ATOM     23  H   UNL     1      30.104  17.554  12.294  0.00  0.00    +0.145 HD
ATOM     24  H   UNL     1      30.659  19.189  12.193  0.00  0.00    +0.145 HD
ENDBRANCH  14  21
ENDBRANCH   1  17
TORSDOF 2
ENDMDL
MODEL 8
REMARK VINA RESULT:      -6.4      3.600      4.829
REMARK  Name = ZINC000870248439
REMARK  2 active torsions:
REMARK  status: ('A' for Active; 'I' for Inactive)
REMARK    1  A    between atoms: C_2  and  C_4
REMARK    2  A    between atoms: C_7  and  C_8
REMARK                            x       y       z     vdW  Elec       q    Type
REMARK                         _______ _______ _______ _____ _____    ______ ____
ROOT
ATOM      1  C   UNL     1      31.790  22.747  15.211  0.00  0.00    +0.247 C 
ATOM      2  O   UNL     1      32.144  23.787  14.655  0.00  0.00    -0.270 OA
ATOM      3  N   UNL     1      32.100  21.471  14.721  0.00  0.00    -0.297 N 
ATOM      4  C   UNL     1      31.676  20.204  15.320  0.00  0.00    +0.108 C 
ATOM      5  C   UNL     1      32.739  19.114  15.241  0.00  0.00    +0.026 C 
ATOM      6  C   UNL     1      33.331  18.929  13.827  0.00  0.00    -0.025 C 
ATOM      7  C   UNL     1      34.533  17.959  13.952  0.00  0.00    +0.017 C 
ATOM      8  C   UNL     1      35.229  17.624  12.640  0.00  0.00    +0.069 C 
ATOM      9  S   UNL     1      34.114  16.828  11.451  0.00  0.00    -0.161 S 
ATOM     10  C   UNL     1      32.751  18.023  11.473  0.00  0.00    +0.069 C 
ATOM     11  C   UNL     1      32.264  18.306  12.889  0.00  0.00    +0.017 C 
ATOM     12  C   UNL     1      33.805  20.324  13.345  0.00  0.00    +0.026 C 
ATOM     13  C   UNL     1      32.701  21.381  13.393  0.00  0.00    +0.108 C 
ENDROOT
BRANCH   1  17
ATOM     14  C   UNL     1      29.620  23.420  18.826  0.00  0.00    +0.037 A 
ATOM     15  C   UNL     1      31.011  23.273  18.879  0.00  0.00    +0.014 A 
ATOM     16  C   UNL     1      31.718  22.957  17.719  0.00  0.00    +0.014 A 
ATOM     17  C   UNL     1      31.052  22.883  16.491  0.00  0.00    +0.037 A 
ATOM     18  C   UNL     1      29.653  22.940  16.453  0.00  0.00    +0.014 A 
ATOM     19  C   UNL     1      28.935  23.198  17.625  0.00  0.00    +0.014 A 
BRANCH  14  21
ATOM     20  N   UNL     1      27.493  23.931  19.885  0.00  0.00    -0.325 N 
ATOM     21  C   UNL     1      28.847  23.808  20.032  0.00  0.00    +0.242 C 
ATOM     22  O   UNL     1      29.385  23.959  21.118  0.00  0.00    -0.270 OA
ATOM     23  H   UNL     1      26.965  24.075  20.736  0.00  0.00    +0.145 HD
ATOM     24  H   UNL     1      27.000  23.562  19.085  0.00  0.00    +0.145 HD
ENDBRANCH  14  21
ENDBRANCH   1  17
TORSDOF 2
ENDMDL
MODEL 9
REMARK VINA RESULT:      -6.3     21.669     23.122
REMARK  Name = ZINC000870248439
REMARK  2 active torsions:
REMARK  status: ('A' for Active; 'I' for Inactive)
REMARK    1  A    between atoms: C_2  and  C_4
REMARK    2  A    between atoms: C_7  and  C_8
REMARK                            x       y       z     vdW  Elec       q    Type
REMARK                         _______ _______ _______ _____ _____    ______ ____
ROOT
ATOM      1  C   UNL     1      19.298  11.163   1.593  0.00  0.00    +0.247 C 
ATOM      2  O   UNL     1      19.060  11.588   2.723  0.00  0.00    -0.270 OA
ATOM      3  N   UNL     1      19.863   9.904   1.350  0.00  0.00    -0.297 N 
ATOM      4  C   UNL     1      20.200   9.362   0.032  0.00  0.00    +0.108 C 
ATOM      5  C   UNL     1      19.928   7.868  -0.093  0.00  0.00    +0.026 C 
ATOM      6  C   UNL     1      20.526   7.031   1.058  0.00  0.00    -0.025 C 
ATOM      7  C   UNL     1      19.985   5.586   0.911  0.00  0.00    +0.017 C 
ATOM      8  C   UNL     1      20.500   4.597   1.947  0.00  0.00    +0.069 C 
ATOM      9  S   UNL     1      22.304   4.422   1.896  0.00  0.00    -0.161 S 
ATOM     10  C   UNL     1      22.778   6.169   2.000  0.00  0.00    +0.069 C 
ATOM     11  C   UNL     1      22.073   7.013   0.944  0.00  0.00    +0.017 C 
ATOM     12  C   UNL     1      20.034   7.664   2.385  0.00  0.00    +0.026 C 
ATOM     13  C   UNL     1      20.366   9.152   2.497  0.00  0.00    +0.108 C 
ENDROOT
BRANCH   1  17
ATOM     14  C   UNL     1      18.271  13.430  -1.876  0.00  0.00    +0.037 A 
ATOM     15  C   UNL     1      19.352  13.837  -1.088  0.00  0.00    +0.014 A 
ATOM     16  C   UNL     1      19.636  13.162   0.099  0.00  0.00    +0.014 A 
ATOM     17  C   UNL     1      18.903  12.023   0.450  0.00  0.00    +0.037 A 
ATOM     18  C   UNL     1      17.767  11.671  -0.290  0.00  0.00    +0.014 A 
ATOM     19  C   UNL     1      17.445  12.382  -1.449  0.00  0.00    +0.014 A 
BRANCH  14  21
ATOM     20  N   UNL     1      16.763  14.715  -3.284  0.00  0.00    -0.325 N 
ATOM     21  C   UNL     1      17.976  14.094  -3.170  0.00  0.00    +0.242 C 
ATOM     22  O   UNL     1      18.798  14.133  -4.073  0.00  0.00    -0.270 OA
ATOM     23  H   UNL     1      16.623  15.267  -4.121  0.00  0.00    +0.145 HD
ATOM     24  H   UNL     1      16.185  14.926  -2.483  0.00  0.00    +0.145 HD
ENDBRANCH  14  21
ENDBRANCH   1  17
TORSDOF 2
ENDMDL
