MODEL 1
REMARK VINA RESULT:      -7.5      0.000      0.000
REMARK  Name = ZINC000583127796
REMARK  2 active torsions:
REMARK  status: ('A' for Active; 'I' for Inactive)
REMARK    1  A    between atoms: C_2  and  C_4
REMARK    2  A    between atoms: C_7  and  C_8
REMARK                            x       y       z     vdW  Elec       q    Type
REMARK                         _______ _______ _______ _____ _____    ______ ____
ROOT
ATOM      1  C   UNL     1      31.668  22.535  14.133  0.00  0.00    +0.247 C 
ATOM      2  O   UNL     1      32.626  21.764  14.047  0.00  0.00    -0.270 OA
ATOM      3  N   UNL     1      31.650  23.799  13.522  0.00  0.00    -0.297 N 
ATOM      4  C   UNL     1      30.563  24.778  13.572  0.00  0.00    +0.108 C 
ATOM      5  C   UNL     1      30.114  25.222  12.192  0.00  0.00    +0.020 C 
ATOM      6  C   UNL     1      31.287  25.646  11.328  0.00  0.00    +0.011 C 
ATOM      7  C   UNL     1      32.417  24.588  11.277  0.00  0.00    -0.004 C 
ATOM      8  C   UNL     1      33.583  25.218  10.486  0.00  0.00    +0.020 C 
ATOM      9  C   UNL     1      34.442  24.131   9.878  0.00  0.00    +0.070 C 
ATOM     10  S   UNL     1      33.258  22.902   9.309  0.00  0.00    -0.160 S 
ATOM     11  C   UNL     1      31.969  23.320  10.516  0.00  0.00    +0.077 C 
ATOM     12  C   UNL     1      32.821  24.219  12.729  0.00  0.00    +0.115 C 
ENDROOT
BRANCH   1  16
ATOM     13  C   UNL     1      28.392  20.814  16.286  0.00  0.00    +0.037 A 
ATOM     14  C   UNL     1      28.340  20.865  14.891  0.00  0.00    +0.014 A 
ATOM     15  C   UNL     1      29.343  21.529  14.182  0.00  0.00    +0.014 A 
ATOM     16  C   UNL     1      30.454  22.042  14.854  0.00  0.00    +0.037 A 
ATOM     17  C   UNL     1      30.457  22.076  16.255  0.00  0.00    +0.014 A 
ATOM     18  C   UNL     1      29.418  21.472  16.971  0.00  0.00    +0.014 A 
BRANCH  13  20
ATOM     19  N   UNL     1      27.650  18.759  17.354  0.00  0.00    -0.325 N 
ATOM     20  C   UNL     1      27.370  20.066  17.067  0.00  0.00    +0.242 C 
ATOM     21  O   UNL     1      26.356  20.606  17.477  0.00  0.00    -0.270 OA
ATOM     22  H   UNL     1      27.009  18.297  17.987  0.00  0.00    +0.145 HD
ATOM     23  H   UNL     1      28.583  18.377  17.280  0.00  0.00    +0.145 HD
ENDBRANCH  13  20
ENDBRANCH   1  16
TORSDOF 2
ENDMDL
MODEL 2
REMARK VINA RESULT:      -7.4      0.488      1.161
REMARK  Name = ZINC000583127796
REMARK  2 active torsions:
REMARK  status: ('A' for Active; 'I' for Inactive)
REMARK    1  A    between atoms: C_2  and  C_4
REMARK    2  A    between atoms: C_7  and  C_8
REMARK                            x       y       z     vdW  Elec       q    Type
REMARK                         _______ _______ _______ _____ _____    ______ ____
ROOT
ATOM      1  C   UNL     1      31.694  22.500  14.289  0.00  0.00    +0.247 C 
ATOM      2  O   UNL     1      32.723  21.831  14.179  0.00  0.00    -0.270 OA
ATOM      3  N   UNL     1      31.539  23.763  13.695  0.00  0.00    -0.297 N 
ATOM      4  C   UNL     1      30.361  24.628  13.774  0.00  0.00    +0.108 C 
ATOM      5  C   UNL     1      29.847  25.040  12.407  0.00  0.00    +0.020 C 
ATOM      6  C   UNL     1      30.958  25.588  11.531  0.00  0.00    +0.011 C 
ATOM      7  C   UNL     1      32.186  24.650  11.449  0.00  0.00    -0.004 C 
ATOM      8  C   UNL     1      33.270  25.403  10.648  0.00  0.00    +0.020 C 
ATOM      9  C   UNL     1      34.224  24.414  10.013  0.00  0.00    +0.070 C 
ATOM     10  S   UNL     1      33.160  23.079   9.446  0.00  0.00    -0.160 S 
ATOM     11  C   UNL     1      31.856  23.352  10.678  0.00  0.00    +0.077 C 
ATOM     12  C   UNL     1      32.650  24.307  12.890  0.00  0.00    +0.115 C 
ENDROOT
BRANCH   1  16
ATOM     13  C   UNL     1      28.220  21.045  16.324  0.00  0.00    +0.037 A 
ATOM     14  C   UNL     1      29.348  21.401  17.069  0.00  0.00    +0.014 A 
ATOM     15  C   UNL     1      30.527  21.762  16.413  0.00  0.00    +0.014 A 
ATOM     16  C   UNL     1      30.548  21.880  15.022  0.00  0.00    +0.037 A 
ATOM     17  C   UNL     1      29.450  21.430  14.276  0.00  0.00    +0.014 A 
ATOM     18  C   UNL     1      28.290  21.001  14.929  0.00  0.00    +0.014 A 
BRANCH  13  20
ATOM     19  N   UNL     1      26.472  19.432  16.828  0.00  0.00    -0.325 N 
ATOM     20  C   UNL     1      26.934  20.709  16.992  0.00  0.00    +0.242 C 
ATOM     21  O   UNL     1      26.346  21.515  17.694  0.00  0.00    -0.270 OA
ATOM     22  H   UNL     1      25.664  19.179  17.384  0.00  0.00    +0.145 HD
ATOM     23  H   UNL     1      27.063  18.680  16.502  0.00  0.00    +0.145 HD
ENDBRANCH  13  20
ENDBRANCH   1  16
TORSDOF 2
ENDMDL
MODEL 3
REMARK VINA RESULT:      -7.0      1.596      1.897
REMARK  Name = ZINC000583127796
REMARK  2 active torsions:
REMARK  status: ('A' for Active; 'I' for Inactive)
REMARK    1  A    between atoms: C_2  and  C_4
REMARK    2  A    between atoms: C_7  and  C_8
REMARK                            x       y       z     vdW  Elec       q    Type
REMARK                         _______ _______ _______ _____ _____    ______ ____
ROOT
ATOM      1  C   UNL     1      31.354  22.870  15.425  0.00  0.00    +0.247 C 
ATOM      2  O   UNL     1      32.355  22.325  15.895  0.00  0.00    -0.270 OA
ATOM      3  N   UNL     1      31.414  23.795  14.371  0.00  0.00    -0.297 N 
ATOM      4  C   UNL     1      30.284  24.492  13.753  0.00  0.00    +0.108 C 
ATOM      5  C   UNL     1      30.235  24.305  12.248  0.00  0.00    +0.020 C 
ATOM      6  C   UNL     1      31.574  24.607  11.601  0.00  0.00    +0.011 C 
ATOM      7  C   UNL     1      32.752  23.847  12.259  0.00  0.00    -0.004 C 
ATOM      8  C   UNL     1      34.045  24.362  11.590  0.00  0.00    +0.020 C 
ATOM      9  C   UNL     1      35.135  23.319  11.704  0.00  0.00    +0.070 C 
ATOM     10  S   UNL     1      34.286  21.760  11.412  0.00  0.00    -0.160 S 
ATOM     11  C   UNL     1      32.663  22.328  11.992  0.00  0.00    +0.077 C 
ATOM     12  C   UNL     1      32.730  24.119  13.787  0.00  0.00    +0.115 C 
ENDROOT
BRANCH   1  16
ATOM     13  C   UNL     1      27.393  21.837  16.678  0.00  0.00    +0.037 A 
ATOM     14  C   UNL     1      28.109  22.794  17.401  0.00  0.00    +0.014 A 
ATOM     15  C   UNL     1      29.442  23.053  17.078  0.00  0.00    +0.014 A 
ATOM     16  C   UNL     1      30.026  22.446  15.964  0.00  0.00    +0.037 A 
ATOM     17  C   UNL     1      29.339  21.418  15.302  0.00  0.00    +0.014 A 
ATOM     18  C   UNL     1      28.026  21.106  15.668  0.00  0.00    +0.014 A 
BRANCH  13  20
ATOM     19  N   UNL     1      25.571  20.267  17.035  0.00  0.00    -0.325 N 
ATOM     20  C   UNL     1      25.955  21.577  16.961  0.00  0.00    +0.242 C 
ATOM     21  O   UNL     1      25.169  22.485  17.169  0.00  0.00    -0.270 OA
ATOM     22  H   UNL     1      24.622  20.101  17.348  0.00  0.00    +0.145 HD
ATOM     23  H   UNL     1      26.235  19.513  17.151  0.00  0.00    +0.145 HD
ENDBRANCH  13  20
ENDBRANCH   1  16
TORSDOF 2
ENDMDL
MODEL 4
REMARK VINA RESULT:      -6.6      3.193      5.314
REMARK  Name = ZINC000583127796
REMARK  2 active torsions:
REMARK  status: ('A' for Active; 'I' for Inactive)
REMARK    1  A    between atoms: C_2  and  C_4
REMARK    2  A    between atoms: C_7  and  C_8
REMARK                            x       y       z     vdW  Elec       q    Type
REMARK                         _______ _______ _______ _____ _____    ______ ____
ROOT
ATOM      1  C   UNL     1      33.667  24.019   9.990  0.00  0.00    +0.247 C 
ATOM      2  O   UNL     1      34.511  24.916  10.031  0.00  0.00    -0.270 OA
ATOM      3  N   UNL     1      33.662  23.023   9.001  0.00  0.00    -0.297 N 
ATOM      4  C   UNL     1      32.702  21.925   8.871  0.00  0.00    +0.108 C 
ATOM      5  C   UNL     1      33.374  20.566   8.809  0.00  0.00    +0.020 C 
ATOM      6  C   UNL     1      34.489  20.536   7.780  0.00  0.00    +0.011 C 
ATOM      7  C   UNL     1      35.501  21.697   7.947  0.00  0.00    -0.004 C 
ATOM      8  C   UNL     1      36.479  21.611   6.756  0.00  0.00    +0.020 C 
ATOM      9  C   UNL     1      37.793  22.267   7.118  0.00  0.00    +0.070 C 
ATOM     10  S   UNL     1      38.081  21.764   8.822  0.00  0.00    -0.160 S 
ATOM     11  C   UNL     1      36.330  21.541   9.242  0.00  0.00    +0.077 C 
ATOM     12  C   UNL     1      34.722  23.038   7.975  0.00  0.00    +0.115 C 
ENDROOT
BRANCH   1  16
ATOM     13  C   UNL     1      30.718  23.519  13.053  0.00  0.00    +0.037 A 
ATOM     14  C   UNL     1      30.453  24.380  11.985  0.00  0.00    +0.014 A 
ATOM     15  C   UNL     1      31.449  24.645  11.043  0.00  0.00    +0.014 A 
ATOM     16  C   UNL     1      32.668  23.966  11.101  0.00  0.00    +0.037 A 
ATOM     17  C   UNL     1      32.966  23.180  12.223  0.00  0.00    +0.014 A 
ATOM     18  C   UNL     1      31.993  22.967  13.205  0.00  0.00    +0.014 A 
BRANCH  13  20
ATOM     19  N   UNL     1      29.450  24.065  15.055  0.00  0.00    -0.325 N 
ATOM     20  C   UNL     1      29.661  23.172  14.041  0.00  0.00    +0.242 C 
ATOM     21  O   UNL     1      28.979  22.168  13.924  0.00  0.00    -0.270 OA
ATOM     22  H   UNL     1      28.650  23.882  15.648  0.00  0.00    +0.145 HD
ATOM     23  H   UNL     1      29.789  25.017  15.016  0.00  0.00    +0.145 HD
ENDBRANCH  13  20
ENDBRANCH   1  16
TORSDOF 2
ENDMDL
MODEL 5
REMARK VINA RESULT:      -6.5      1.669      1.877
REMARK  Name = ZINC000583127796
REMARK  2 active torsions:
REMARK  status: ('A' for Active; 'I' for Inactive)
REMARK    1  A    between atoms: C_2  and  C_4
REMARK    2  A    between atoms: C_7  and  C_8
REMARK                            x       y       z     vdW  Elec       q    Type
REMARK                         _______ _______ _______ _____ _____    ______ ____
ROOT
ATOM      1  C   UNL     1      32.048  22.109  13.920  0.00  0.00    +0.247 C 
ATOM      2  O   UNL     1      32.782  21.161  14.206  0.00  0.00    -0.270 OA
ATOM      3  N   UNL     1      32.383  23.065  12.949  0.00  0.00    -0.297 N 
ATOM      4  C   UNL     1      31.580  24.222  12.547  0.00  0.00    +0.108 C 
ATOM      5  C   UNL     1      31.328  24.266  11.051  0.00  0.00    +0.020 C 
ATOM      6  C   UNL     1      32.612  24.101  10.259  0.00  0.00    +0.011 C 
ATOM      7  C   UNL     1      33.436  22.863  10.690  0.00  0.00    -0.004 C 
ATOM      8  C   UNL     1      34.762  22.913   9.901  0.00  0.00    +0.020 C 
ATOM      9  C   UNL     1      35.345  21.522   9.782  0.00  0.00    +0.070 C 
ATOM     10  S   UNL     1      33.918  20.471   9.476  0.00  0.00    -0.160 S 
ATOM     11  C   UNL     1      32.719  21.548  10.312  0.00  0.00    +0.077 C 
ATOM     12  C   UNL     1      33.661  22.922  12.225  0.00  0.00    +0.115 C 
ENDROOT
BRANCH   1  16
ATOM     13  C   UNL     1      28.369  22.048  16.108  0.00  0.00    +0.037 A 
ATOM     14  C   UNL     1      28.442  21.391  14.877  0.00  0.00    +0.014 A 
ATOM     15  C   UNL     1      29.595  21.502  14.098  0.00  0.00    +0.014 A 
ATOM     16  C   UNL     1      30.715  22.172  14.594  0.00  0.00    +0.037 A 
ATOM     17  C   UNL     1      30.606  22.910  15.781  0.00  0.00    +0.014 A 
ATOM     18  C   UNL     1      29.427  22.857  16.531  0.00  0.00    +0.014 A 
BRANCH  13  20
ATOM     19  N   UNL     1      26.394  23.014  17.148  0.00  0.00    -0.325 N 
ATOM     20  C   UNL     1      27.177  21.904  16.987  0.00  0.00    +0.242 C 
ATOM     21  O   UNL     1      26.881  20.836  17.496  0.00  0.00    -0.270 OA
ATOM     22  H   UNL     1      25.523  22.873  17.645  0.00  0.00    +0.145 HD
ATOM     23  H   UNL     1      26.449  23.810  16.527  0.00  0.00    +0.145 HD
ENDBRANCH  13  20
ENDBRANCH   1  16
TORSDOF 2
ENDMDL
MODEL 6
REMARK VINA RESULT:      -6.4      5.158      7.431
REMARK  Name = ZINC000583127796
REMARK  2 active torsions:
REMARK  status: ('A' for Active; 'I' for Inactive)
REMARK    1  A    between atoms: C_2  and  C_4
REMARK    2  A    between atoms: C_7  and  C_8
REMARK                            x       y       z     vdW  Elec       q    Type
REMARK                         _______ _______ _______ _____ _____    ______ ____
ROOT
ATOM      1  C   UNL     1      31.853  23.280  17.869  0.00  0.00    +0.247 C 
ATOM      2  O   UNL     1      31.634  22.479  18.780  0.00  0.00    -0.270 OA
ATOM      3  N   UNL     1      31.402  23.082  16.555  0.00  0.00    -0.297 N 
ATOM      4  C   UNL     1      31.616  23.973  15.413  0.00  0.00    +0.108 C 
ATOM      5  C   UNL     1      30.321  24.363  14.726  0.00  0.00    +0.020 C 
ATOM      6  C   UNL     1      29.465  23.149  14.410  0.00  0.00    +0.011 C 
ATOM      7  C   UNL     1      29.238  22.231  15.636  0.00  0.00    -0.004 C 
ATOM      8  C   UNL     1      28.480  20.986  15.126  0.00  0.00    +0.020 C 
ATOM      9  C   UNL     1      27.709  20.350  16.262  0.00  0.00    +0.070 C 
ATOM     10  S   UNL     1      27.046  21.748  17.181  0.00  0.00    -0.160 S 
ATOM     11  C   UNL     1      28.349  22.915  16.698  0.00  0.00    +0.077 C 
ATOM     12  C   UNL     1      30.616  21.870  16.251  0.00  0.00    +0.115 C 
ENDROOT
BRANCH   1  16
ATOM     13  C   UNL     1      33.988  26.738  19.214  0.00  0.00    +0.037 A 
ATOM     14  C   UNL     1      32.591  26.751  19.230  0.00  0.00    +0.014 A 
ATOM     15  C   UNL     1      31.882  25.679  18.683  0.00  0.00    +0.014 A 
ATOM     16  C   UNL     1      32.561  24.548  18.227  0.00  0.00    +0.037 A 
ATOM     17  C   UNL     1      33.958  24.578  18.124  0.00  0.00    +0.014 A 
ATOM     18  C   UNL     1      34.671  25.681  18.607  0.00  0.00    +0.014 A 
BRANCH  13  20
ATOM     19  N   UNL     1      34.865  27.830  21.202  0.00  0.00    -0.325 N 
ATOM     20  C   UNL     1      34.773  27.838  19.838  0.00  0.00    +0.242 C 
ATOM     21  O   UNL     1      35.350  28.675  19.165  0.00  0.00    -0.270 OA
ATOM     22  H   UNL     1      35.500  28.507  21.608  0.00  0.00    +0.145 HD
ATOM     23  H   UNL     1      34.648  27.011  21.755  0.00  0.00    +0.145 HD
ENDBRANCH  13  20
ENDBRANCH   1  16
TORSDOF 2
ENDMDL
MODEL 7
REMARK VINA RESULT:      -6.4      2.184      3.115
REMARK  Name = ZINC000583127796
REMARK  2 active torsions:
REMARK  status: ('A' for Active; 'I' for Inactive)
REMARK    1  A    between atoms: C_2  and  C_4
REMARK    2  A    between atoms: C_7  and  C_8
REMARK                            x       y       z     vdW  Elec       q    Type
REMARK                         _______ _______ _______ _____ _____    ______ ____
ROOT
ATOM      1  C   UNL     1      31.041  23.474  14.132  0.00  0.00    +0.247 C 
ATOM      2  O   UNL     1      30.745  24.663  14.264  0.00  0.00    -0.270 OA
ATOM      3  N   UNL     1      32.126  23.039  13.354  0.00  0.00    -0.297 N 
ATOM      4  C   UNL     1      32.548  21.655  13.138  0.00  0.00    +0.108 C 
ATOM      5  C   UNL     1      34.007  21.428  13.486  0.00  0.00    +0.020 C 
ATOM      6  C   UNL     1      34.908  22.457  12.829  0.00  0.00    +0.011 C 
ATOM      7  C   UNL     1      34.452  23.915  13.085  0.00  0.00    -0.004 C 
ATOM      8  C   UNL     1      35.375  24.825  12.246  0.00  0.00    +0.020 C 
ATOM      9  C   UNL     1      35.425  26.210  12.853  0.00  0.00    +0.070 C 
ATOM     10  S   UNL     1      35.484  25.912  14.626  0.00  0.00    -0.160 S 
ATOM     11  C   UNL     1      34.632  24.310  14.568  0.00  0.00    +0.077 C 
ATOM     12  C   UNL     1      32.961  24.050  12.678  0.00  0.00    +0.115 C 
ENDROOT
BRANCH   1  16
ATOM     13  C   UNL     1      28.482  20.887  16.389  0.00  0.00    +0.037 A 
ATOM     14  C   UNL     1      29.615  21.430  17.001  0.00  0.00    +0.014 A 
ATOM     15  C   UNL     1      30.522  22.177  16.246  0.00  0.00    +0.014 A 
ATOM     16  C   UNL     1      30.242  22.479  14.912  0.00  0.00    +0.037 A 
ATOM     17  C   UNL     1      29.159  21.854  14.277  0.00  0.00    +0.014 A 
ATOM     18  C   UNL     1      28.287  21.048  15.015  0.00  0.00    +0.014 A 
BRANCH  13  20
ATOM     19  N   UNL     1      27.701  18.800  17.361  0.00  0.00    -0.325 N 
ATOM     20  C   UNL     1      27.469  20.135  17.178  0.00  0.00    +0.242 C 
ATOM     21  O   UNL     1      26.507  20.690  17.680  0.00  0.00    -0.270 OA
ATOM     22  H   UNL     1      27.074  18.325  17.999  0.00  0.00    +0.145 HD
ATOM     23  H   UNL     1      28.609  18.382  17.209  0.00  0.00    +0.145 HD
ENDBRANCH  13  20
ENDBRANCH   1  16
TORSDOF 2
ENDMDL
MODEL 8
REMARK VINA RESULT:      -6.2      3.275      7.298
REMARK  Name = ZINC000583127796
REMARK  2 active torsions:
REMARK  status: ('A' for Active; 'I' for Inactive)
REMARK    1  A    between atoms: C_2  and  C_4
REMARK    2  A    between atoms: C_7  and  C_8
REMARK                            x       y       z     vdW  Elec       q    Type
REMARK                         _______ _______ _______ _____ _____    ______ ____
ROOT
ATOM      1  C   UNL     1      30.435  23.802  13.075  0.00  0.00    +0.247 C 
ATOM      2  O   UNL     1      29.275  23.961  12.691  0.00  0.00    -0.270 OA
ATOM      3  N   UNL     1      30.789  23.756  14.432  0.00  0.00    -0.297 N 
ATOM      4  C   UNL     1      32.135  23.576  14.980  0.00  0.00    +0.108 C 
ATOM      5  C   UNL     1      32.217  22.419  15.959  0.00  0.00    +0.020 C 
ATOM      6  C   UNL     1      31.127  22.497  17.012  0.00  0.00    +0.011 C 
ATOM      7  C   UNL     1      29.712  22.671  16.410  0.00  0.00    -0.004 C 
ATOM      8  C   UNL     1      28.744  22.873  17.596  0.00  0.00    +0.020 C 
ATOM      9  C   UNL     1      27.344  22.461  17.197  0.00  0.00    +0.070 C 
ATOM     10  S   UNL     1      27.586  20.976  16.210  0.00  0.00    -0.160 S 
ATOM     11  C   UNL     1      29.260  21.402  15.653  0.00  0.00    +0.077 C 
ATOM     12  C   UNL     1      29.725  23.887  15.446  0.00  0.00    +0.115 C 
ENDROOT
BRANCH   1  16
ATOM     13  C   UNL     1      33.154  22.952   9.879  0.00  0.00    +0.037 A 
ATOM     14  C   UNL     1      33.281  22.258  11.085  0.00  0.00    +0.014 A 
ATOM     15  C   UNL     1      32.481  22.608  12.174  0.00  0.00    +0.014 A 
ATOM     16  C   UNL     1      31.478  23.568  12.029  0.00  0.00    +0.037 A 
ATOM     17  C   UNL     1      31.418  24.328  10.852  0.00  0.00    +0.014 A 
ATOM     18  C   UNL     1      32.265  24.027   9.781  0.00  0.00    +0.014 A 
BRANCH  13  20
ATOM     19  N   UNL     1      34.718  23.547   8.115  0.00  0.00    -0.325 N 
ATOM     20  C   UNL     1      33.952  22.567   8.683  0.00  0.00    +0.242 C 
ATOM     21  O   UNL     1      33.963  21.423   8.261  0.00  0.00    -0.270 OA
ATOM     22  H   UNL     1      35.349  23.246   7.381  0.00  0.00    +0.145 HD
ATOM     23  H   UNL     1      34.948  24.404   8.599  0.00  0.00    +0.145 HD
ENDBRANCH  13  20
ENDBRANCH   1  16
TORSDOF 2
ENDMDL
MODEL 9
REMARK VINA RESULT:      -6.1      3.522      7.865
REMARK  Name = ZINC000583127796
REMARK  2 active torsions:
REMARK  status: ('A' for Active; 'I' for Inactive)
REMARK    1  A    between atoms: C_2  and  C_4
REMARK    2  A    between atoms: C_7  and  C_8
REMARK                            x       y       z     vdW  Elec       q    Type
REMARK                         _______ _______ _______ _____ _____    ______ ____
ROOT
ATOM      1  C   UNL     1      32.502  23.879  11.940  0.00  0.00    +0.247 C 
ATOM      2  O   UNL     1      31.502  24.578  11.763  0.00  0.00    -0.270 OA
ATOM      3  N   UNL     1      32.863  23.371  13.197  0.00  0.00    -0.297 N 
ATOM      4  C   UNL     1      34.029  22.539  13.502  0.00  0.00    +0.108 C 
ATOM      5  C   UNL     1      33.657  21.249  14.209  0.00  0.00    +0.020 C 
ATOM      6  C   UNL     1      32.751  21.502  15.400  0.00  0.00    +0.011 C 
ATOM      7  C   UNL     1      31.517  22.369  15.051  0.00  0.00    -0.004 C 
ATOM      8  C   UNL     1      30.780  22.652  16.378  0.00  0.00    +0.020 C 
ATOM      9  C   UNL     1      29.321  22.947  16.106  0.00  0.00    +0.070 C 
ATOM     10  S   UNL     1      28.868  21.774  14.820  0.00  0.00    -0.160 S 
ATOM     11  C   UNL     1      30.538  21.611  14.128  0.00  0.00    +0.077 C 
ATOM     12  C   UNL     1      32.001  23.670  14.357  0.00  0.00    +0.115 C 
ENDROOT
BRANCH   1  16
ATOM     13  C   UNL     1      34.616  23.096   8.301  0.00  0.00    +0.037 A 
ATOM     14  C   UNL     1      33.597  22.227   8.697  0.00  0.00    +0.014 A 
ATOM     15  C   UNL     1      32.980  22.401   9.938  0.00  0.00    +0.014 A 
ATOM     16  C   UNL     1      33.299  23.505  10.732  0.00  0.00    +0.037 A 
ATOM     17  C   UNL     1      34.386  24.316  10.378  0.00  0.00    +0.014 A 
ATOM     18  C   UNL     1      35.053  24.103   9.167  0.00  0.00    +0.014 A 
BRANCH  13  20
ATOM     19  N   UNL     1      35.546  24.138   6.310  0.00  0.00    -0.325 N 
ATOM     20  C   UNL     1      35.254  22.972   6.962  0.00  0.00    +0.242 C 
ATOM     21  O   UNL     1      35.551  21.887   6.491  0.00  0.00    -0.270 OA
ATOM     22  H   UNL     1      36.089  24.046   5.460  0.00  0.00    +0.145 HD
ATOM     23  H   UNL     1      35.577  25.030   6.785  0.00  0.00    +0.145 HD
ENDBRANCH  13  20
ENDBRANCH   1  16
TORSDOF 2
ENDMDL
