MODEL 1
REMARK VINA RESULT:      -6.8      0.000      0.000
REMARK  Name = ZINC000560333501
REMARK  5 active torsions:
REMARK  status: ('A' for Active; 'I' for Inactive)
REMARK    1  A    between atoms: C_2  and  C_3
REMARK    2  A    between atoms: C_7  and  C_8
REMARK    3  A    between atoms: C_8  and  C_9
REMARK    4  A    between atoms: N_11  and  C_12
REMARK    5  A    between atoms: C_12  and  C_13
REMARK                            x       y       z     vdW  Elec       q    Type
REMARK                         _______ _______ _______ _____ _____    ______ ____
ROOT
ATOM      1  C   UNL     1      28.951  22.654  17.903  0.00  0.00    +0.217 C 
ATOM      2  O   UNL     1      29.073  22.136  19.016  0.00  0.00    -0.275 OA
ATOM      3  N   UNL     1      29.800  23.639  17.430  0.00  0.00    -0.315 N 
ATOM      4  H   UNL     1      29.803  23.776  16.426  0.00  0.00    +0.149 HD
ENDROOT
BRANCH   1   5
ATOM      5  C   UNL     1      27.838  22.236  16.972  0.00  0.00    +0.131 C 
BRANCH   5  10
ATOM      6  C   UNL     1      29.070  18.893  15.556  0.00  0.00    +0.052 A 
ATOM      7  C   UNL     1      27.982  18.062  15.848  0.00  0.00    +0.019 A 
ATOM      8  C   UNL     1      26.854  18.589  16.475  0.00  0.00    +0.002 A 
ATOM      9  C   UNL     1      26.805  19.944  16.808  0.00  0.00    +0.004 A 
ATOM     10  C   UNL     1      27.882  20.793  16.517  0.00  0.00    -0.037 A 
ATOM     11  C   UNL     1      29.020  20.252  15.894  0.00  0.00    +0.023 A 
BRANCH   6  13
ATOM     12  N   UNL     1      31.186  17.910  14.422  0.00  0.00    -0.191 NA
ATOM     13  C   UNL     1      30.237  18.346  14.928  0.00  0.00    +0.099 C 
ENDBRANCH   6  13
ENDBRANCH   5  10
ENDBRANCH   1   5
BRANCH   3  14
ATOM     14  C   UNL     1      31.061  23.847  18.119  0.00  0.00    +0.108 C 
BRANCH  14  15
ATOM     15  C   UNL     1      32.339  23.694  17.274  0.00  0.00    +0.011 C 
ATOM     16  C   UNL     1      32.315  22.484  16.344  0.00  0.00    +0.033 C 
ATOM     17  C   UNL     1      32.179  21.196  17.143  0.00  0.00    +0.161 C 
ATOM     18  O   UNL     1      33.090  21.100  18.235  0.00  0.00    -0.373 OA
ATOM     19  C   UNL     1      33.442  22.262  19.042  0.00  0.00    +0.070 C 
ATOM     20  C   UNL     1      32.664  22.499  20.383  0.00  0.00    +0.035 C 
ATOM     21  C   UNL     1      33.691  21.615  21.090  0.00  0.00    +0.006 C 
ATOM     22  C   UNL     1      34.677  21.961  19.957  0.00  0.00    +0.035 C 
ATOM     23  C   UNL     1      33.578  23.523  18.178  0.00  0.00    +0.040 C 
ENDBRANCH  14  15
ENDBRANCH   3  14
TORSDOF 5
ENDMDL
MODEL 2
REMARK VINA RESULT:      -6.7      2.264      3.567
REMARK  Name = ZINC000560333501
REMARK  5 active torsions:
REMARK  status: ('A' for Active; 'I' for Inactive)
REMARK    1  A    between atoms: C_2  and  C_3
REMARK    2  A    between atoms: C_7  and  C_8
REMARK    3  A    between atoms: C_8  and  C_9
REMARK    4  A    between atoms: N_11  and  C_12
REMARK    5  A    between atoms: C_12  and  C_13
REMARK                            x       y       z     vdW  Elec       q    Type
REMARK                         _______ _______ _______ _____ _____    ______ ____
ROOT
ATOM      1  C   UNL     1      27.080  19.938  16.656  0.00  0.00    +0.217 C 
ATOM      2  O   UNL     1      26.173  20.474  17.297  0.00  0.00    -0.275 OA
ATOM      3  N   UNL     1      28.168  20.633  16.157  0.00  0.00    -0.315 N 
ATOM      4  H   UNL     1      28.979  20.076  15.920  0.00  0.00    +0.149 HD
ENDROOT
BRANCH   1   5
ATOM      5  C   UNL     1      27.054  18.455  16.368  0.00  0.00    +0.131 C 
BRANCH   5  10
ATOM      6  C   UNL     1      30.291  16.832  15.105  0.00  0.00    +0.052 A 
ATOM      7  C   UNL     1      31.000  16.686  16.302  0.00  0.00    +0.019 A 
ATOM      8  C   UNL     1      30.423  17.087  17.506  0.00  0.00    +0.002 A 
ATOM      9  C   UNL     1      29.137  17.630  17.521  0.00  0.00    +0.004 A 
ATOM     10  C   UNL     1      28.408  17.778  16.332  0.00  0.00    -0.037 A 
ATOM     11  C   UNL     1      29.001  17.382  15.122  0.00  0.00    +0.023 A 
BRANCH   6  13
ATOM     12  N   UNL     1      31.382  16.110  12.865  0.00  0.00    -0.191 NA
ATOM     13  C   UNL     1      30.893  16.437  13.866  0.00  0.00    +0.099 C 
ENDBRANCH   6  13
ENDBRANCH   5  10
ENDBRANCH   1   5
BRANCH   3  14
ATOM     14  C   UNL     1      28.422  21.968  16.670  0.00  0.00    +0.108 C 
BRANCH  14  15
ATOM     15  C   UNL     1      29.032  22.056  18.082  0.00  0.00    +0.011 C 
ATOM     16  C   UNL     1      29.635  23.421  18.402  0.00  0.00    +0.033 C 
ATOM     17  C   UNL     1      30.760  23.752  17.433  0.00  0.00    +0.161 C 
ATOM     18  O   UNL     1      31.705  22.697  17.271  0.00  0.00    -0.373 OA
ATOM     19  C   UNL     1      31.295  21.299  17.246  0.00  0.00    +0.070 C 
ATOM     20  C   UNL     1      31.070  20.615  15.852  0.00  0.00    +0.035 C 
ATOM     21  C   UNL     1      32.554  20.248  15.836  0.00  0.00    +0.006 C 
ATOM     22  C   UNL     1      32.530  20.344  17.374  0.00  0.00    +0.035 C 
ATOM     23  C   UNL     1      30.170  21.027  18.253  0.00  0.00    +0.040 C 
ENDBRANCH  14  15
ENDBRANCH   3  14
TORSDOF 5
ENDMDL
MODEL 3
REMARK VINA RESULT:      -6.7      4.274      6.940
REMARK  Name = ZINC000560333501
REMARK  5 active torsions:
REMARK  status: ('A' for Active; 'I' for Inactive)
REMARK    1  A    between atoms: C_2  and  C_3
REMARK    2  A    between atoms: C_7  and  C_8
REMARK    3  A    between atoms: C_8  and  C_9
REMARK    4  A    between atoms: N_11  and  C_12
REMARK    5  A    between atoms: C_12  and  C_13
REMARK                            x       y       z     vdW  Elec       q    Type
REMARK                         _______ _______ _______ _____ _____    ______ ____
ROOT
ATOM      1  C   UNL     1      31.377  22.174  13.944  0.00  0.00    +0.217 C 
ATOM      2  O   UNL     1      31.753  21.026  13.692  0.00  0.00    -0.275 OA
ATOM      3  N   UNL     1      30.082  22.481  14.322  0.00  0.00    -0.315 N 
ATOM      4  H   UNL     1      29.955  23.372  14.786  0.00  0.00    +0.149 HD
ENDROOT
BRANCH   1   5
ATOM      5  C   UNL     1      32.332  23.340  13.847  0.00  0.00    +0.131 C 
BRANCH   5  10
ATOM      6  C   UNL     1      33.349  24.001  10.209  0.00  0.00    +0.052 A 
ATOM      7  C   UNL     1      32.500  25.065   9.884  0.00  0.00    +0.019 A 
ATOM      8  C   UNL     1      31.626  25.575  10.843  0.00  0.00    +0.002 A 
ATOM      9  C   UNL     1      31.599  25.030  12.128  0.00  0.00    +0.004 A 
ATOM     10  C   UNL     1      32.448  23.970  12.475  0.00  0.00    -0.037 A 
ATOM     11  C   UNL     1      33.318  23.454  11.500  0.00  0.00    +0.023 A 
BRANCH   6  13
ATOM     12  N   UNL     1      34.945  23.023   8.413  0.00  0.00    -0.191 NA
ATOM     13  C   UNL     1      34.234  23.465   9.217  0.00  0.00    +0.099 C 
ENDBRANCH   6  13
ENDBRANCH   5  10
ENDBRANCH   1   5
BRANCH   3  14
ATOM     14  C   UNL     1      29.217  21.395  14.751  0.00  0.00    +0.108 C 
BRANCH  14  15
ATOM     15  C   UNL     1      28.608  21.518  16.160  0.00  0.00    +0.011 C 
ATOM     16  C   UNL     1      29.649  21.681  17.263  0.00  0.00    +0.033 C 
ATOM     17  C   UNL     1      30.577  20.476  17.308  0.00  0.00    +0.161 C 
ATOM     18  O   UNL     1      29.893  19.225  17.302  0.00  0.00    -0.373 OA
ATOM     19  C   UNL     1      28.689  19.016  16.508  0.00  0.00    +0.070 C 
ATOM     20  C   UNL     1      28.836  18.354  15.094  0.00  0.00    +0.035 C 
ATOM     21  C   UNL     1      28.713  16.986  15.764  0.00  0.00    +0.006 C 
ATOM     22  C   UNL     1      27.968  17.686  16.916  0.00  0.00    +0.035 C 
ATOM     23  C   UNL     1      27.790  20.259  16.515  0.00  0.00    +0.040 C 
ENDBRANCH  14  15
ENDBRANCH   3  14
TORSDOF 5
ENDMDL
MODEL 4
REMARK VINA RESULT:      -6.7      2.996      4.700
REMARK  Name = ZINC000560333501
REMARK  5 active torsions:
REMARK  status: ('A' for Active; 'I' for Inactive)
REMARK    1  A    between atoms: C_2  and  C_3
REMARK    2  A    between atoms: C_7  and  C_8
REMARK    3  A    between atoms: C_8  and  C_9
REMARK    4  A    between atoms: N_11  and  C_12
REMARK    5  A    between atoms: C_12  and  C_13
REMARK                            x       y       z     vdW  Elec       q    Type
REMARK                         _______ _______ _______ _____ _____    ______ ____
ROOT
ATOM      1  C   UNL     1      28.584  17.180  16.136  0.00  0.00    +0.217 C 
ATOM      2  O   UNL     1      29.031  16.435  17.013  0.00  0.00    -0.275 OA
ATOM      3  N   UNL     1      28.754  18.554  16.151  0.00  0.00    -0.315 N 
ATOM      4  H   UNL     1      28.622  19.025  15.264  0.00  0.00    +0.149 HD
ENDROOT
BRANCH   1   5
ATOM      5  C   UNL     1      27.803  16.622  14.970  0.00  0.00    +0.131 C 
BRANCH   5  10
ATOM      6  C   UNL     1      30.792  15.509  12.842  0.00  0.00    +0.052 A 
ATOM      7  C   UNL     1      30.140  14.967  11.729  0.00  0.00    +0.019 A 
ATOM      8  C   UNL     1      28.748  14.986  11.662  0.00  0.00    +0.002 A 
ATOM      9  C   UNL     1      28.003  15.549  12.700  0.00  0.00    +0.004 A 
ATOM     10  C   UNL     1      28.639  16.103  13.820  0.00  0.00    -0.037 A 
ATOM     11  C   UNL     1      30.042  16.070  13.885  0.00  0.00    +0.023 A 
BRANCH   6  13
ATOM     12  N   UNL     1      33.382  15.432  12.984  0.00  0.00    -0.191 NA
ATOM     13  C   UNL     1      32.223  15.471  12.919  0.00  0.00    +0.099 C 
ENDBRANCH   6  13
ENDBRANCH   5  10
ENDBRANCH   1   5
BRANCH   3  14
ATOM     14  C   UNL     1      29.757  19.110  17.042  0.00  0.00    +0.108 C 
BRANCH  14  15
ATOM     15  C   UNL     1      29.247  20.065  18.138  0.00  0.00    +0.011 C 
ATOM     16  C   UNL     1      28.473  21.262  17.593  0.00  0.00    +0.033 C 
ATOM     17  C   UNL     1      29.354  22.100  16.679  0.00  0.00    +0.161 C 
ATOM     18  O   UNL     1      30.629  22.408  17.237  0.00  0.00    -0.373 OA
ATOM     19  C   UNL     1      31.364  21.443  18.045  0.00  0.00    +0.070 C 
ATOM     20  C   UNL     1      32.458  20.566  17.343  0.00  0.00    +0.035 C 
ATOM     21  C   UNL     1      33.472  21.675  17.626  0.00  0.00    +0.006 C 
ATOM     22  C   UNL     1      32.564  22.124  18.787  0.00  0.00    +0.035 C 
ATOM     23  C   UNL     1      30.423  20.642  18.954  0.00  0.00    +0.040 C 
ENDBRANCH  14  15
ENDBRANCH   3  14
TORSDOF 5
ENDMDL
MODEL 5
REMARK VINA RESULT:      -6.6      2.964      4.729
REMARK  Name = ZINC000560333501
REMARK  5 active torsions:
REMARK  status: ('A' for Active; 'I' for Inactive)
REMARK    1  A    between atoms: C_2  and  C_3
REMARK    2  A    between atoms: C_7  and  C_8
REMARK    3  A    between atoms: C_8  and  C_9
REMARK    4  A    between atoms: N_11  and  C_12
REMARK    5  A    between atoms: C_12  and  C_13
REMARK                            x       y       z     vdW  Elec       q    Type
REMARK                         _______ _______ _______ _____ _____    ______ ____
ROOT
ATOM      1  C   UNL     1      28.416  17.448  15.844  0.00  0.00    +0.217 C 
ATOM      2  O   UNL     1      28.939  17.158  16.923  0.00  0.00    -0.275 OA
ATOM      3  N   UNL     1      28.321  18.747  15.374  0.00  0.00    -0.315 N 
ATOM      4  H   UNL     1      28.157  18.846  14.380  0.00  0.00    +0.149 HD
ENDROOT
BRANCH   1   5
ATOM      5  C   UNL     1      27.830  16.378  14.954  0.00  0.00    +0.131 C 
BRANCH   5  10
ATOM      6  C   UNL     1      30.869  15.582  12.756  0.00  0.00    +0.052 A 
ATOM      7  C   UNL     1      30.246  15.050  11.622  0.00  0.00    +0.019 A 
ATOM      8  C   UNL     1      28.855  14.974  11.564  0.00  0.00    +0.002 A 
ATOM      9  C   UNL     1      28.083  15.432  12.633  0.00  0.00    +0.004 A 
ATOM     10  C   UNL     1      28.689  15.975  13.775  0.00  0.00    -0.037 A 
ATOM     11  C   UNL     1      30.092  16.038  13.829  0.00  0.00    +0.023 A 
BRANCH   6  13
ATOM     12  N   UNL     1      33.459  15.682  12.876  0.00  0.00    -0.191 NA
ATOM     13  C   UNL     1      32.300  15.642  12.822  0.00  0.00    +0.099 C 
ENDBRANCH   6  13
ENDBRANCH   5  10
ENDBRANCH   1   5
BRANCH   3  14
ATOM     14  C   UNL     1      29.140  19.766  16.005  0.00  0.00    +0.108 C 
BRANCH  14  15
ATOM     15  C   UNL     1      28.860  21.224  15.594  0.00  0.00    +0.011 C 
ATOM     16  C   UNL     1      29.836  21.762  14.552  0.00  0.00    +0.033 C 
ATOM     17  C   UNL     1      31.260  21.739  15.087  0.00  0.00    +0.161 C 
ATOM     18  O   UNL     1      31.392  22.306  16.388  0.00  0.00    -0.373 OA
ATOM     19  C   UNL     1      30.373  22.118  17.412  0.00  0.00    +0.070 C 
ATOM     20  C   UNL     1      30.573  20.967  18.457  0.00  0.00    +0.035 C 
ATOM     21  C   UNL     1      31.361  21.947  19.328  0.00  0.00    +0.006 C 
ATOM     22  C   UNL     1      30.601  23.086  18.622  0.00  0.00    +0.035 C 
ATOM     23  C   UNL     1      28.961  22.166  16.813  0.00  0.00    +0.040 C 
ENDBRANCH  14  15
ENDBRANCH   3  14
TORSDOF 5
ENDMDL
MODEL 6
REMARK VINA RESULT:      -6.5      3.025      4.633
REMARK  Name = ZINC000560333501
REMARK  5 active torsions:
REMARK  status: ('A' for Active; 'I' for Inactive)
REMARK    1  A    between atoms: C_2  and  C_3
REMARK    2  A    between atoms: C_7  and  C_8
REMARK    3  A    between atoms: C_8  and  C_9
REMARK    4  A    between atoms: N_11  and  C_12
REMARK    5  A    between atoms: C_12  and  C_13
REMARK                            x       y       z     vdW  Elec       q    Type
REMARK                         _______ _______ _______ _____ _____    ______ ____
ROOT
ATOM      1  C   UNL     1      29.107  21.971  16.511  0.00  0.00    +0.217 C 
ATOM      2  O   UNL     1      29.434  22.618  17.509  0.00  0.00    -0.275 OA
ATOM      3  N   UNL     1      29.696  22.143  15.270  0.00  0.00    -0.315 N 
ATOM      4  H   UNL     1      29.576  21.382  14.613  0.00  0.00    +0.149 HD
ENDROOT
BRANCH   1   5
ATOM      5  C   UNL     1      28.014  20.930  16.585  0.00  0.00    +0.131 C 
BRANCH   5  10
ATOM      6  C   UNL     1      28.519  17.207  15.818  0.00  0.00    +0.052 A 
ATOM      7  C   UNL     1      29.535  16.884  16.724  0.00  0.00    +0.019 A 
ATOM      8  C   UNL     1      30.032  17.858  17.589  0.00  0.00    +0.002 A 
ATOM      9  C   UNL     1      29.514  19.154  17.557  0.00  0.00    +0.004 A 
ATOM     10  C   UNL     1      28.491  19.495  16.661  0.00  0.00    -0.037 A 
ATOM     11  C   UNL     1      28.003  18.511  15.785  0.00  0.00    +0.023 A 
BRANCH   6  13
ATOM     12  N   UNL     1      27.623  15.407  14.179  0.00  0.00    -0.191 NA
ATOM     13  C   UNL     1      28.023  16.210  14.916  0.00  0.00    +0.099 C 
ENDBRANCH   6  13
ENDBRANCH   5  10
ENDBRANCH   1   5
BRANCH   3  14
ATOM     14  C   UNL     1      30.951  22.871  15.203  0.00  0.00    +0.108 C 
BRANCH  14  15
ATOM     15  C   UNL     1      32.182  22.073  14.734  0.00  0.00    +0.011 C 
ATOM     16  C   UNL     1      33.489  22.539  15.371  0.00  0.00    +0.033 C 
ATOM     17  C   UNL     1      33.768  23.993  15.022  0.00  0.00    +0.161 C 
ATOM     18  O   UNL     1      33.635  24.284  13.632  0.00  0.00    -0.373 OA
ATOM     19  C   UNL     1      32.595  23.669  12.818  0.00  0.00    +0.070 C 
ATOM     20  C   UNL     1      31.266  24.468  12.583  0.00  0.00    +0.035 C 
ATOM     21  C   UNL     1      31.921  25.125  11.369  0.00  0.00    +0.006 C 
ATOM     22  C   UNL     1      32.859  23.906  11.292  0.00  0.00    +0.035 C 
ATOM     23  C   UNL     1      32.371  22.203  13.208  0.00  0.00    +0.040 C 
ENDBRANCH  14  15
ENDBRANCH   3  14
TORSDOF 5
ENDMDL
MODEL 7
REMARK VINA RESULT:      -6.5      2.285      4.493
REMARK  Name = ZINC000560333501
REMARK  5 active torsions:
REMARK  status: ('A' for Active; 'I' for Inactive)
REMARK    1  A    between atoms: C_2  and  C_3
REMARK    2  A    between atoms: C_7  and  C_8
REMARK    3  A    between atoms: C_8  and  C_9
REMARK    4  A    between atoms: N_11  and  C_12
REMARK    5  A    between atoms: C_12  and  C_13
REMARK                            x       y       z     vdW  Elec       q    Type
REMARK                         _______ _______ _______ _____ _____    ______ ____
ROOT
ATOM      1  C   UNL     1      31.915  20.107  15.660  0.00  0.00    +0.217 C 
ATOM      2  O   UNL     1      32.106  20.463  14.494  0.00  0.00    -0.275 OA
ATOM      3  N   UNL     1      31.616  20.991  16.683  0.00  0.00    -0.315 N 
ATOM      4  H   UNL     1      31.191  20.586  17.508  0.00  0.00    +0.149 HD
ENDROOT
BRANCH   1   5
ATOM      5  C   UNL     1      32.003  18.650  16.050  0.00  0.00    +0.131 C 
BRANCH   5  10
ATOM      6  C   UNL     1      28.733  16.699  15.601  0.00  0.00    +0.052 A 
ATOM      7  C   UNL     1      28.312  16.574  16.930  0.00  0.00    +0.019 A 
ATOM      8  C   UNL     1      29.070  17.139  17.955  0.00  0.00    +0.002 A 
ATOM      9  C   UNL     1      30.245  17.832  17.658  0.00  0.00    +0.004 A 
ATOM     10  C   UNL     1      30.679  17.974  16.333  0.00  0.00    -0.037 A 
ATOM     11  C   UNL     1      29.915  17.392  15.306  0.00  0.00    +0.023 A 
BRANCH   6  13
ATOM     12  N   UNL     1      27.345  15.620  13.693  0.00  0.00    -0.191 NA
ATOM     13  C   UNL     1      27.964  16.101  14.550  0.00  0.00    +0.099 C 
ENDBRANCH   6  13
ENDBRANCH   5  10
ENDBRANCH   1   5
BRANCH   3  14
ATOM     14  C   UNL     1      31.195  22.334  16.326  0.00  0.00    +0.108 C 
BRANCH  14  15
ATOM     15  C   UNL     1      30.526  23.162  17.439  0.00  0.00    +0.011 C 
ATOM     16  C   UNL     1      30.883  22.694  18.846  0.00  0.00    +0.033 C 
ATOM     17  C   UNL     1      30.437  21.256  19.063  0.00  0.00    +0.161 C 
ATOM     18  O   UNL     1      29.090  21.009  18.667  0.00  0.00    -0.373 OA
ATOM     19  C   UNL     1      28.512  21.636  17.486  0.00  0.00    +0.070 C 
ATOM     20  C   UNL     1      28.510  20.828  16.141  0.00  0.00    +0.035 C 
ATOM     21  C   UNL     1      27.170  20.219  16.554  0.00  0.00    +0.006 C 
ATOM     22  C   UNL     1      26.956  21.453  17.452  0.00  0.00    +0.035 C 
ATOM     23  C   UNL     1      28.989  23.086  17.331  0.00  0.00    +0.040 C 
ENDBRANCH  14  15
ENDBRANCH   3  14
TORSDOF 5
ENDMDL
MODEL 8
REMARK VINA RESULT:      -6.2      2.056      2.763
REMARK  Name = ZINC000560333501
REMARK  5 active torsions:
REMARK  status: ('A' for Active; 'I' for Inactive)
REMARK    1  A    between atoms: C_2  and  C_3
REMARK    2  A    between atoms: C_7  and  C_8
REMARK    3  A    between atoms: C_8  and  C_9
REMARK    4  A    between atoms: N_11  and  C_12
REMARK    5  A    between atoms: C_12  and  C_13
REMARK                            x       y       z     vdW  Elec       q    Type
REMARK                         _______ _______ _______ _____ _____    ______ ____
ROOT
ATOM      1  C   UNL     1      28.553  21.953  16.653  0.00  0.00    +0.217 C 
ATOM      2  O   UNL     1      28.621  22.834  17.514  0.00  0.00    -0.275 OA
ATOM      3  N   UNL     1      29.319  21.960  15.500  0.00  0.00    -0.315 N 
ATOM      4  H   UNL     1      29.410  21.072  15.023  0.00  0.00    +0.149 HD
ENDROOT
BRANCH   1   5
ATOM      5  C   UNL     1      27.605  20.788  16.809  0.00  0.00    +0.131 C 
BRANCH   5  10
ATOM      6  C   UNL     1      28.455  17.188  15.796  0.00  0.00    +0.052 A 
ATOM      7  C   UNL     1      29.586  16.949  16.585  0.00  0.00    +0.019 A 
ATOM      8  C   UNL     1      30.050  17.938  17.452  0.00  0.00    +0.002 A 
ATOM      9  C   UNL     1      29.386  19.163  17.539  0.00  0.00    +0.004 A 
ATOM     10  C   UNL     1      28.247  19.418  16.762  0.00  0.00    -0.037 A 
ATOM     11  C   UNL     1      27.793  18.421  15.883  0.00  0.00    +0.023 A 
BRANCH   6  13
ATOM     12  N   UNL     1      27.617  15.355  14.163  0.00  0.00    -0.191 NA
ATOM     13  C   UNL     1      27.990  16.179  14.891  0.00  0.00    +0.099 C 
ENDBRANCH   6  13
ENDBRANCH   5  10
ENDBRANCH   1   5
BRANCH   3  14
ATOM     14  C   UNL     1      30.465  22.851  15.445  0.00  0.00    +0.108 C 
BRANCH  14  15
ATOM     15  C   UNL     1      31.597  22.454  14.478  0.00  0.00    +0.011 C 
ATOM     16  C   UNL     1      31.973  20.977  14.553  0.00  0.00    +0.033 C 
ATOM     17  C   UNL     1      32.462  20.617  15.948  0.00  0.00    +0.161 C 
ATOM     18  O   UNL     1      33.441  21.516  16.461  0.00  0.00    -0.373 OA
ATOM     19  C   UNL     1      33.369  22.950  16.211  0.00  0.00    +0.070 C 
ATOM     20  C   UNL     1      32.708  23.863  17.303  0.00  0.00    +0.035 C 
ATOM     21  C   UNL     1      34.076  23.982  17.975  0.00  0.00    +0.006 C 
ATOM     22  C   UNL     1      34.707  23.661  16.607  0.00  0.00    +0.035 C 
ATOM     23  C   UNL     1      32.884  23.247  14.786  0.00  0.00    +0.040 C 
ENDBRANCH  14  15
ENDBRANCH   3  14
TORSDOF 5
ENDMDL
MODEL 9
REMARK VINA RESULT:      -6.2      2.153      3.634
REMARK  Name = ZINC000560333501
REMARK  5 active torsions:
REMARK  status: ('A' for Active; 'I' for Inactive)
REMARK    1  A    between atoms: C_2  and  C_3
REMARK    2  A    between atoms: C_7  and  C_8
REMARK    3  A    between atoms: C_8  and  C_9
REMARK    4  A    between atoms: N_11  and  C_12
REMARK    5  A    between atoms: C_12  and  C_13
REMARK                            x       y       z     vdW  Elec       q    Type
REMARK                         _______ _______ _______ _____ _____    ______ ____
ROOT
ATOM      1  C   UNL     1      28.725  21.899  17.216  0.00  0.00    +0.217 C 
ATOM      2  O   UNL     1      28.775  22.263  18.393  0.00  0.00    -0.275 OA
ATOM      3  N   UNL     1      29.517  22.446  16.220  0.00  0.00    -0.315 N 
ATOM      4  H   UNL     1      29.618  21.890  15.380  0.00  0.00    +0.149 HD
ENDROOT
BRANCH   1   5
ATOM      5  C   UNL     1      27.772  20.812  16.780  0.00  0.00    +0.131 C 
BRANCH   5  10
ATOM      6  C   UNL     1      28.473  17.185  15.752  0.00  0.00    +0.052 A 
ATOM      7  C   UNL     1      29.598  16.899  16.534  0.00  0.00    +0.019 A 
ATOM      8  C   UNL     1      30.106  17.866  17.402  0.00  0.00    +0.002 A 
ATOM      9  C   UNL     1      29.492  19.116  17.495  0.00  0.00    +0.004 A 
ATOM     10  C   UNL     1      28.360  19.418  16.725  0.00  0.00    -0.037 A 
ATOM     11  C   UNL     1      27.861  18.443  15.846  0.00  0.00    +0.023 A 
BRANCH   6  13
ATOM     12  N   UNL     1      27.547  15.395  14.119  0.00  0.00    -0.191 NA
ATOM     13  C   UNL     1      27.965  16.198  14.846  0.00  0.00    +0.099 C 
ENDBRANCH   6  13
ENDBRANCH   5  10
ENDBRANCH   1   5
BRANCH   3  14
ATOM     14  C   UNL     1      30.665  23.241  16.617  0.00  0.00    +0.108 C 
BRANCH  14  15
ATOM     15  C   UNL     1      31.912  22.464  17.080  0.00  0.00    +0.011 C 
ATOM     16  C   UNL     1      32.953  23.337  17.775  0.00  0.00    +0.033 C 
ATOM     17  C   UNL     1      33.456  24.423  16.836  0.00  0.00    +0.161 C 
ATOM     18  O   UNL     1      33.835  23.938  15.550  0.00  0.00    -0.373 OA
ATOM     19  C   UNL     1      33.092  22.876  14.883  0.00  0.00    +0.070 C 
ATOM     20  C   UNL     1      31.997  23.280  13.836  0.00  0.00    +0.035 C 
ATOM     21  C   UNL     1      33.083  23.287  12.760  0.00  0.00    +0.006 C 
ATOM     22  C   UNL     1      33.884  22.319  13.651  0.00  0.00    +0.035 C 
ATOM     23  C   UNL     1      32.626  21.807  15.880  0.00  0.00    +0.040 C 
ENDBRANCH  14  15
ENDBRANCH   3  14
TORSDOF 5
ENDMDL
