MODEL 1
REMARK VINA RESULT:      -6.6      0.000      0.000
REMARK  Name = ZINC000583127796
REMARK  2 active torsions:
REMARK  status: ('A' for Active; 'I' for Inactive)
REMARK    1  A    between atoms: C_2  and  C_4
REMARK    2  A    between atoms: C_7  and  C_8
REMARK                            x       y       z     vdW  Elec       q    Type
REMARK                         _______ _______ _______ _____ _____    ______ ____
ROOT
ATOM      1  C   UNL     1      30.195  20.496  14.858  0.00  0.00    +0.247 C 
ATOM      2  O   UNL     1      30.560  21.484  14.218  0.00  0.00    -0.270 OA
ATOM      3  N   UNL     1      30.622  19.193  14.558  0.00  0.00    -0.297 N 
ATOM      4  C   UNL     1      30.241  17.965  15.258  0.00  0.00    +0.108 C 
ATOM      5  C   UNL     1      31.441  17.167  15.732  0.00  0.00    +0.020 C 
ATOM      6  C   UNL     1      32.450  16.955  14.619  0.00  0.00    +0.011 C 
ATOM      7  C   UNL     1      32.851  18.268  13.904  0.00  0.00    -0.004 C 
ATOM      8  C   UNL     1      33.761  17.873  12.721  0.00  0.00    +0.020 C 
ATOM      9  C   UNL     1      34.657  19.034  12.348  0.00  0.00    +0.070 C 
ATOM     10  S   UNL     1      35.145  19.740  13.929  0.00  0.00    -0.160 S 
ATOM     11  C   UNL     1      33.671  19.190  14.834  0.00  0.00    +0.077 C 
ATOM     12  C   UNL     1      31.562  18.996  13.438  0.00  0.00    +0.115 C 
ENDROOT
BRANCH   1  16
ATOM     13  C   UNL     1      27.615  21.515  18.119  0.00  0.00    +0.037 A 
ATOM     14  C   UNL     1      28.998  21.543  18.310  0.00  0.00    +0.014 A 
ATOM     15  C   UNL     1      29.848  21.099  17.295  0.00  0.00    +0.014 A 
ATOM     16  C   UNL     1      29.327  20.736  16.051  0.00  0.00    +0.037 A 
ATOM     17  C   UNL     1      27.939  20.616  15.896  0.00  0.00    +0.014 A 
ATOM     18  C   UNL     1      27.083  20.994  16.935  0.00  0.00    +0.014 A 
BRANCH  13  20
ATOM     19  N   UNL     1      27.235  22.363  20.366  0.00  0.00    -0.325 N 
ATOM     20  C   UNL     1      26.684  22.033  19.158  0.00  0.00    +0.242 C 
ATOM     21  O   UNL     1      25.499  22.205  18.929  0.00  0.00    -0.270 OA
ATOM     22  H   UNL     1      26.619  22.828  21.021  0.00  0.00    +0.145 HD
ATOM     23  H   UNL     1      28.229  22.501  20.487  0.00  0.00    +0.145 HD
ENDBRANCH  13  20
ENDBRANCH   1  16
TORSDOF 2
ENDMDL
MODEL 2
REMARK VINA RESULT:      -6.6      3.315      4.533
REMARK  Name = ZINC000583127796
REMARK  2 active torsions:
REMARK  status: ('A' for Active; 'I' for Inactive)
REMARK    1  A    between atoms: C_2  and  C_4
REMARK    2  A    between atoms: C_7  and  C_8
REMARK                            x       y       z     vdW  Elec       q    Type
REMARK                         _______ _______ _______ _____ _____    ______ ____
ROOT
ATOM      1  C   UNL     1      32.483  17.000  15.030  0.00  0.00    +0.247 C 
ATOM      2  O   UNL     1      32.541  16.100  15.871  0.00  0.00    -0.270 OA
ATOM      3  N   UNL     1      33.119  16.920  13.782  0.00  0.00    -0.297 N 
ATOM      4  C   UNL     1      33.108  17.935  12.727  0.00  0.00    +0.108 C 
ATOM      5  C   UNL     1      32.638  17.386  11.393  0.00  0.00    +0.020 C 
ATOM      6  C   UNL     1      33.376  16.114  11.017  0.00  0.00    +0.011 C 
ATOM      7  C   UNL     1      33.360  15.049  12.140  0.00  0.00    -0.004 C 
ATOM      8  C   UNL     1      34.260  13.887  11.666  0.00  0.00    +0.020 C 
ATOM      9  C   UNL     1      33.855  12.605  12.359  0.00  0.00    +0.070 C 
ATOM     10  S   UNL     1      32.058  12.668  12.388  0.00  0.00    -0.160 S 
ATOM     11  C   UNL     1      31.941  14.479  12.359  0.00  0.00    +0.077 C 
ATOM     12  C   UNL     1      33.878  15.698  13.452  0.00  0.00    +0.115 C 
ENDROOT
BRANCH   1  16
ATOM     13  C   UNL     1      29.928  20.205  16.267  0.00  0.00    +0.037 A 
ATOM     14  C   UNL     1      29.511  19.360  15.235  0.00  0.00    +0.014 A 
ATOM     15  C   UNL     1      30.382  18.387  14.741  0.00  0.00    +0.014 A 
ATOM     16  C   UNL     1      31.622  18.180  15.349  0.00  0.00    +0.037 A 
ATOM     17  C   UNL     1      32.075  19.089  16.316  0.00  0.00    +0.014 A 
ATOM     18  C   UNL     1      31.230  20.110  16.765  0.00  0.00    +0.014 A 
BRANCH  13  20
ATOM     19  N   UNL     1      27.907  21.548  16.111  0.00  0.00    -0.325 N 
ATOM     20  C   UNL     1      29.005  21.214  16.854  0.00  0.00    +0.242 C 
ATOM     21  O   UNL     1      29.190  21.682  17.965  0.00  0.00    -0.270 OA
ATOM     22  H   UNL     1      27.225  22.139  16.570  0.00  0.00    +0.145 HD
ATOM     23  H   UNL     1      27.583  20.981  15.340  0.00  0.00    +0.145 HD
ENDBRANCH  13  20
ENDBRANCH   1  16
TORSDOF 2
ENDMDL
MODEL 3
REMARK VINA RESULT:      -6.6      1.182      1.232
REMARK  Name = ZINC000583127796
REMARK  2 active torsions:
REMARK  status: ('A' for Active; 'I' for Inactive)
REMARK    1  A    between atoms: C_2  and  C_4
REMARK    2  A    between atoms: C_7  and  C_8
REMARK                            x       y       z     vdW  Elec       q    Type
REMARK                         _______ _______ _______ _____ _____    ______ ____
ROOT
ATOM      1  C   UNL     1      30.041  20.042  14.674  0.00  0.00    +0.247 C 
ATOM      2  O   UNL     1      30.142  20.893  13.788  0.00  0.00    -0.270 OA
ATOM      3  N   UNL     1      30.397  18.698  14.484  0.00  0.00    -0.297 N 
ATOM      4  C   UNL     1      30.309  17.621  15.472  0.00  0.00    +0.108 C 
ATOM      5  C   UNL     1      31.627  16.894  15.662  0.00  0.00    +0.020 C 
ATOM      6  C   UNL     1      32.230  16.467  14.336  0.00  0.00    +0.011 C 
ATOM      7  C   UNL     1      32.329  17.624  13.313  0.00  0.00    -0.004 C 
ATOM      8  C   UNL     1      32.822  17.007  11.987  0.00  0.00    +0.020 C 
ATOM      9  C   UNL     1      33.505  18.065  11.147  0.00  0.00    +0.070 C 
ATOM     10  S   UNL     1      34.450  19.028  12.336  0.00  0.00    -0.160 S 
ATOM     11  C   UNL     1      33.370  18.679  13.752  0.00  0.00    +0.077 C 
ATOM     12  C   UNL     1      30.932  18.286  13.171  0.00  0.00    +0.115 C 
ENDROOT
BRANCH   1  16
ATOM     13  C   UNL     1      28.677  21.705  18.376  0.00  0.00    +0.037 A 
ATOM     14  C   UNL     1      30.047  21.523  18.174  0.00  0.00    +0.014 A 
ATOM     15  C   UNL     1      30.499  20.873  17.023  0.00  0.00    +0.014 A 
ATOM     16  C   UNL     1      29.596  20.507  16.023  0.00  0.00    +0.037 A 
ATOM     17  C   UNL     1      28.219  20.602  16.271  0.00  0.00    +0.014 A 
ATOM     18  C   UNL     1      27.761  21.190  17.454  0.00  0.00    +0.014 A 
BRANCH  13  20
ATOM     19  N   UNL     1      28.394  23.790  19.593  0.00  0.00    -0.325 N 
ATOM     20  C   UNL     1      28.166  22.443  19.563  0.00  0.00    +0.242 C 
ATOM     21  O   UNL     1      27.529  21.883  20.440  0.00  0.00    -0.270 OA
ATOM     22  H   UNL     1      27.938  24.300  20.340  0.00  0.00    +0.145 HD
ATOM     23  H   UNL     1      28.656  24.314  18.769  0.00  0.00    +0.145 HD
ENDBRANCH  13  20
ENDBRANCH   1  16
TORSDOF 2
ENDMDL
MODEL 4
REMARK VINA RESULT:      -6.4      1.447      1.875
REMARK  Name = ZINC000583127796
REMARK  2 active torsions:
REMARK  status: ('A' for Active; 'I' for Inactive)
REMARK    1  A    between atoms: C_2  and  C_4
REMARK    2  A    between atoms: C_7  and  C_8
REMARK                            x       y       z     vdW  Elec       q    Type
REMARK                         _______ _______ _______ _____ _____    ______ ____
ROOT
ATOM      1  C   UNL     1      30.814  19.639  14.304  0.00  0.00    +0.247 C 
ATOM      2  O   UNL     1      31.144  20.315  13.328  0.00  0.00    -0.270 OA
ATOM      3  N   UNL     1      31.122  18.275  14.427  0.00  0.00    -0.297 N 
ATOM      4  C   UNL     1      30.770  17.396  15.544  0.00  0.00    +0.108 C 
ATOM      5  C   UNL     1      31.975  16.686  16.131  0.00  0.00    +0.020 C 
ATOM      6  C   UNL     1      32.810  16.015  15.056  0.00  0.00    +0.011 C 
ATOM      7  C   UNL     1      33.184  16.967  13.894  0.00  0.00    -0.004 C 
ATOM      8  C   UNL     1      33.902  16.110  12.829  0.00  0.00    +0.020 C 
ATOM      9  C   UNL     1      34.803  16.984  11.984  0.00  0.00    +0.070 C 
ATOM     10  S   UNL     1      35.541  18.125  13.163  0.00  0.00    -0.160 S 
ATOM     11  C   UNL     1      34.174  18.059  14.356  0.00  0.00    +0.077 C 
ATOM     12  C   UNL     1      31.888  17.622  13.348  0.00  0.00    +0.115 C 
ENDROOT
BRANCH   1  16
ATOM     13  C   UNL     1      28.913  21.361  17.732  0.00  0.00    +0.037 A 
ATOM     14  C   UNL     1      28.131  20.973  16.641  0.00  0.00    +0.014 A 
ATOM     15  C   UNL     1      28.746  20.522  15.472  0.00  0.00    +0.014 A 
ATOM     16  C   UNL     1      30.131  20.349  15.429  0.00  0.00    +0.037 A 
ATOM     17  C   UNL     1      30.918  20.829  16.485  0.00  0.00    +0.014 A 
ATOM     18  C   UNL     1      30.307  21.347  17.632  0.00  0.00    +0.014 A 
BRANCH  13  20
ATOM     19  N   UNL     1      26.938  21.611  19.128  0.00  0.00    -0.325 N 
ATOM     20  C   UNL     1      28.288  21.793  19.012  0.00  0.00    +0.242 C 
ATOM     21  O   UNL     1      28.953  22.238  19.932  0.00  0.00    -0.270 OA
ATOM     22  H   UNL     1      26.543  21.792  20.043  0.00  0.00    +0.145 HD
ATOM     23  H   UNL     1      26.420  20.996  18.514  0.00  0.00    +0.145 HD
ENDBRANCH  13  20
ENDBRANCH   1  16
TORSDOF 2
ENDMDL
MODEL 5
REMARK VINA RESULT:      -6.3      4.042      7.572
REMARK  Name = ZINC000583127796
REMARK  2 active torsions:
REMARK  status: ('A' for Active; 'I' for Inactive)
REMARK    1  A    between atoms: C_2  and  C_4
REMARK    2  A    between atoms: C_7  and  C_8
REMARK                            x       y       z     vdW  Elec       q    Type
REMARK                         _______ _______ _______ _____ _____    ______ ____
ROOT
ATOM      1  C   UNL     1      33.120  17.260  14.269  0.00  0.00    +0.247 C 
ATOM      2  O   UNL     1      34.214  17.634  13.841  0.00  0.00    -0.270 OA
ATOM      3  N   UNL     1      32.301  18.066  15.075  0.00  0.00    -0.297 N 
ATOM      4  C   UNL     1      30.994  17.706  15.629  0.00  0.00    +0.108 C 
ATOM      5  C   UNL     1      29.914  18.712  15.277  0.00  0.00    +0.020 C 
ATOM      6  C   UNL     1      30.347  20.133  15.589  0.00  0.00    +0.011 C 
ATOM      7  C   UNL     1      31.723  20.497  14.980  0.00  0.00    -0.004 C 
ATOM      8  C   UNL     1      32.082  21.906  15.498  0.00  0.00    +0.020 C 
ATOM      9  C   UNL     1      33.046  22.577  14.544  0.00  0.00    +0.070 C 
ATOM     10  S   UNL     1      32.439  22.122  12.913  0.00  0.00    -0.160 S 
ATOM     11  C   UNL     1      31.657  20.571  13.438  0.00  0.00    +0.077 C 
ATOM     12  C   UNL     1      32.760  19.426  15.415  0.00  0.00    +0.115 C 
ENDROOT
BRANCH   1  16
ATOM     13  C   UNL     1      32.072  13.359  12.851  0.00  0.00    +0.037 A 
ATOM     14  C   UNL     1      31.559  14.482  12.198  0.00  0.00    +0.014 A 
ATOM     15  C   UNL     1      31.794  15.756  12.720  0.00  0.00    +0.014 A 
ATOM     16  C   UNL     1      32.633  15.918  13.824  0.00  0.00    +0.037 A 
ATOM     17  C   UNL     1      33.066  14.788  14.532  0.00  0.00    +0.014 A 
ATOM     18  C   UNL     1      32.774  13.508  14.051  0.00  0.00    +0.014 A 
BRANCH  13  20
ATOM     19  N   UNL     1      33.010  11.357  11.838  0.00  0.00    -0.325 N 
ATOM     20  C   UNL     1      31.887  11.993  12.291  0.00  0.00    +0.242 C 
ATOM     21  O   UNL     1      30.798  11.445  12.283  0.00  0.00    -0.270 OA
ATOM     22  H   UNL     1      32.894  10.386  11.574  0.00  0.00    +0.145 HD
ATOM     23  H   UNL     1      33.942  11.660  12.089  0.00  0.00    +0.145 HD
ENDBRANCH  13  20
ENDBRANCH   1  16
TORSDOF 2
ENDMDL
MODEL 6
REMARK VINA RESULT:      -6.3      3.455      6.947
REMARK  Name = ZINC000583127796
REMARK  2 active torsions:
REMARK  status: ('A' for Active; 'I' for Inactive)
REMARK    1  A    between atoms: C_2  and  C_4
REMARK    2  A    between atoms: C_7  and  C_8
REMARK                            x       y       z     vdW  Elec       q    Type
REMARK                         _______ _______ _______ _____ _____    ______ ____
ROOT
ATOM      1  C   UNL     1      31.484  20.228  14.333  0.00  0.00    +0.247 C 
ATOM      2  O   UNL     1      30.667  21.055  13.924  0.00  0.00    -0.270 OA
ATOM      3  N   UNL     1      32.310  20.458  15.444  0.00  0.00    -0.297 N 
ATOM      4  C   UNL     1      33.307  19.540  15.997  0.00  0.00    +0.108 C 
ATOM      5  C   UNL     1      33.099  19.274  17.476  0.00  0.00    +0.020 C 
ATOM      6  C   UNL     1      32.943  20.563  18.263  0.00  0.00    +0.011 C 
ATOM      7  C   UNL     1      31.872  21.510  17.670  0.00  0.00    -0.004 C 
ATOM      8  C   UNL     1      31.932  22.819  18.486  0.00  0.00    +0.020 C 
ATOM      9  C   UNL     1      30.604  23.538  18.408  0.00  0.00    +0.070 C 
ATOM     10  S   UNL     1      29.383  22.221  18.521  0.00  0.00    -0.160 S 
ATOM     11  C   UNL     1      30.451  20.927  17.830  0.00  0.00    +0.077 C 
ATOM     12  C   UNL     1      32.185  21.739  16.167  0.00  0.00    +0.115 C 
ENDROOT
BRANCH   1  16
ATOM     13  C   UNL     1      31.804  16.306  12.647  0.00  0.00    +0.037 A 
ATOM     14  C   UNL     1      32.465  17.370  12.029  0.00  0.00    +0.014 A 
ATOM     15  C   UNL     1      32.274  18.672  12.496  0.00  0.00    +0.014 A 
ATOM     16  C   UNL     1      31.517  18.900  13.646  0.00  0.00    +0.037 A 
ATOM     17  C   UNL     1      30.778  17.848  14.205  0.00  0.00    +0.014 A 
ATOM     18  C   UNL     1      30.913  16.552  13.696  0.00  0.00    +0.014 A 
BRANCH  13  20
ATOM     19  N   UNL     1      33.172  14.656  11.501  0.00  0.00    -0.325 N 
ATOM     20  C   UNL     1      32.030  14.901  12.210  0.00  0.00    +0.242 C 
ATOM     21  O   UNL     1      31.261  14.004  12.513  0.00  0.00    -0.270 OA
ATOM     22  H   UNL     1      33.377  13.681  11.315  0.00  0.00    +0.145 HD
ATOM     23  H   UNL     1      33.949  15.303  11.483  0.00  0.00    +0.145 HD
ENDBRANCH  13  20
ENDBRANCH   1  16
TORSDOF 2
ENDMDL
MODEL 7
REMARK VINA RESULT:      -6.2      2.021      2.313
REMARK  Name = ZINC000583127796
REMARK  2 active torsions:
REMARK  status: ('A' for Active; 'I' for Inactive)
REMARK    1  A    between atoms: C_2  and  C_4
REMARK    2  A    between atoms: C_7  and  C_8
REMARK                            x       y       z     vdW  Elec       q    Type
REMARK                         _______ _______ _______ _____ _____    ______ ____
ROOT
ATOM      1  C   UNL     1      31.472  20.716  15.111  0.00  0.00    +0.247 C 
ATOM      2  O   UNL     1      32.212  21.502  14.515  0.00  0.00    -0.270 OA
ATOM      3  N   UNL     1      31.029  19.510  14.547  0.00  0.00    -0.297 N 
ATOM      4  C   UNL     1      30.151  18.521  15.175  0.00  0.00    +0.108 C 
ATOM      5  C   UNL     1      30.751  17.128  15.183  0.00  0.00    +0.020 C 
ATOM      6  C   UNL     1      31.251  16.724  13.808  0.00  0.00    +0.011 C 
ATOM      7  C   UNL     1      32.191  17.776  13.170  0.00  0.00    -0.004 C 
ATOM      8  C   UNL     1      32.495  17.291  11.736  0.00  0.00    +0.020 C 
ATOM      9  C   UNL     1      33.807  17.875  11.261  0.00  0.00    +0.070 C 
ATOM     10  S   UNL     1      34.876  17.790  12.706  0.00  0.00    -0.160 S 
ATOM     11  C   UNL     1      33.535  17.865  13.926  0.00  0.00    +0.077 C 
ATOM     12  C   UNL     1      31.481  19.156  13.187  0.00  0.00    +0.115 C 
ENDROOT
BRANCH   1  16
ATOM     13  C   UNL     1      30.445  22.035  19.052  0.00  0.00    +0.037 A 
ATOM     14  C   UNL     1      31.739  21.569  18.804  0.00  0.00    +0.014 A 
ATOM     15  C   UNL     1      32.054  21.025  17.557  0.00  0.00    +0.014 A 
ATOM     16  C   UNL     1      31.115  21.050  16.524  0.00  0.00    +0.037 A 
ATOM     17  C   UNL     1      29.794  21.426  16.802  0.00  0.00    +0.014 A 
ATOM     18  C   UNL     1      29.457  21.907  18.072  0.00  0.00    +0.014 A 
BRANCH  13  20
ATOM     19  N   UNL     1      29.146  23.658  20.314  0.00  0.00    -0.325 N 
ATOM     20  C   UNL     1      30.093  22.671  20.350  0.00  0.00    +0.242 C 
ATOM     21  O   UNL     1      30.584  22.297  21.402  0.00  0.00    -0.270 OA
ATOM     22  H   UNL     1      28.826  23.997  21.213  0.00  0.00    +0.145 HD
ATOM     23  H   UNL     1      28.529  23.787  19.524  0.00  0.00    +0.145 HD
ENDBRANCH  13  20
ENDBRANCH   1  16
TORSDOF 2
ENDMDL
MODEL 8
REMARK VINA RESULT:      -6.2      1.836      2.805
REMARK  Name = ZINC000583127796
REMARK  2 active torsions:
REMARK  status: ('A' for Active; 'I' for Inactive)
REMARK    1  A    between atoms: C_2  and  C_4
REMARK    2  A    between atoms: C_7  and  C_8
REMARK                            x       y       z     vdW  Elec       q    Type
REMARK                         _______ _______ _______ _____ _____    ______ ____
ROOT
ATOM      1  C   UNL     1      31.438  20.050  16.069  0.00  0.00    +0.247 C 
ATOM      2  O   UNL     1      31.712  18.892  16.392  0.00  0.00    -0.270 OA
ATOM      3  N   UNL     1      32.179  20.772  15.121  0.00  0.00    -0.297 N 
ATOM      4  C   UNL     1      31.932  22.145  14.679  0.00  0.00    +0.108 C 
ATOM      5  C   UNL     1      31.798  22.259  13.172  0.00  0.00    +0.020 C 
ATOM      6  C   UNL     1      32.946  21.576  12.453  0.00  0.00    +0.011 C 
ATOM      7  C   UNL     1      33.179  20.120  12.924  0.00  0.00    -0.004 C 
ATOM      8  C   UNL     1      34.453  19.618  12.210  0.00  0.00    +0.020 C 
ATOM      9  C   UNL     1      34.432  18.108  12.118  0.00  0.00    +0.070 C 
ATOM     10  S   UNL     1      32.720  17.714  11.730  0.00  0.00    -0.160 S 
ATOM     11  C   UNL     1      32.014  19.197  12.501  0.00  0.00    +0.077 C 
ATOM     12  C   UNL     1      33.327  20.113  14.469  0.00  0.00    +0.115 C 
ENDROOT
BRANCH   1  16
ATOM     13  C   UNL     1      27.929  21.507  18.041  0.00  0.00    +0.037 A 
ATOM     14  C   UNL     1      27.804  20.889  16.794  0.00  0.00    +0.014 A 
ATOM     15  C   UNL     1      28.948  20.517  16.086  0.00  0.00    +0.014 A 
ATOM     16  C   UNL     1      30.209  20.656  16.668  0.00  0.00    +0.037 A 
ATOM     17  C   UNL     1      30.338  21.363  17.872  0.00  0.00    +0.014 A 
ATOM     18  C   UNL     1      29.197  21.799  18.552  0.00  0.00    +0.014 A 
BRANCH  13  20
ATOM     19  N   UNL     1      26.956  22.391  20.087  0.00  0.00    -0.325 N 
ATOM     20  C   UNL     1      26.729  21.865  18.845  0.00  0.00    +0.242 C 
ATOM     21  O   UNL     1      25.600  21.745  18.400  0.00  0.00    -0.270 OA
ATOM     22  H   UNL     1      26.141  22.743  20.574  0.00  0.00    +0.145 HD
ATOM     23  H   UNL     1      27.856  22.761  20.361  0.00  0.00    +0.145 HD
ENDBRANCH  13  20
ENDBRANCH   1  16
TORSDOF 2
ENDMDL
MODEL 9
REMARK VINA RESULT:      -6.1     10.362     12.287
REMARK  Name = ZINC000583127796
REMARK  2 active torsions:
REMARK  status: ('A' for Active; 'I' for Inactive)
REMARK    1  A    between atoms: C_2  and  C_4
REMARK    2  A    between atoms: C_7  and  C_8
REMARK                            x       y       z     vdW  Elec       q    Type
REMARK                         _______ _______ _______ _____ _____    ______ ____
ROOT
ATOM      1  C   UNL     1      21.915  27.146  20.012  0.00  0.00    +0.247 C 
ATOM      2  O   UNL     1      21.025  26.996  20.852  0.00  0.00    -0.270 OA
ATOM      3  N   UNL     1      23.116  27.819  20.286  0.00  0.00    -0.297 N 
ATOM      4  C   UNL     1      24.222  28.047  19.355  0.00  0.00    +0.108 C 
ATOM      5  C   UNL     1      25.551  27.552  19.895  0.00  0.00    +0.020 C 
ATOM      6  C   UNL     1      25.812  28.063  21.300  0.00  0.00    +0.011 C 
ATOM      7  C   UNL     1      24.636  27.797  22.271  0.00  0.00    -0.004 C 
ATOM      8  C   UNL     1      24.990  28.493  23.603  0.00  0.00    +0.020 C 
ATOM      9  C   UNL     1      24.256  27.826  24.745  0.00  0.00    +0.070 C 
ATOM     10  S   UNL     1      24.340  26.071  24.359  0.00  0.00    -0.160 S 
ATOM     11  C   UNL     1      24.474  26.289  22.562  0.00  0.00    +0.077 C 
ATOM     12  C   UNL     1      23.332  28.358  21.642  0.00  0.00    +0.115 C 
ENDROOT
BRANCH   1  16
ATOM     13  C   UNL     1      21.703  25.370  16.122  0.00  0.00    +0.037 A 
ATOM     14  C   UNL     1      21.082  26.602  16.345  0.00  0.00    +0.014 A 
ATOM     15  C   UNL     1      21.040  27.135  17.635  0.00  0.00    +0.014 A 
ATOM     16  C   UNL     1      21.714  26.500  18.679  0.00  0.00    +0.037 A 
ATOM     17  C   UNL     1      22.251  25.221  18.475  0.00  0.00    +0.014 A 
ATOM     18  C   UNL     1      22.234  24.652  17.197  0.00  0.00    +0.014 A 
BRANCH  13  20
ATOM     19  N   UNL     1      22.532  23.645  14.622  0.00  0.00    -0.325 N 
ATOM     20  C   UNL     1      21.814  24.802  14.751  0.00  0.00    +0.242 C 
ATOM     21  O   UNL     1      21.250  25.313  13.799  0.00  0.00    -0.270 OA
ATOM     22  H   UNL     1      22.498  23.203  13.712  0.00  0.00    +0.145 HD
ATOM     23  H   UNL     1      22.761  23.059  15.414  0.00  0.00    +0.145 HD
ENDBRANCH  13  20
ENDBRANCH   1  16
TORSDOF 2
ENDMDL
