MODEL 1
REMARK VINA RESULT:      -7.7      0.000      0.000
REMARK  Name = ZINC000870248439
REMARK  2 active torsions:
REMARK  status: ('A' for Active; 'I' for Inactive)
REMARK    1  A    between atoms: C_2  and  C_4
REMARK    2  A    between atoms: C_7  and  C_8
REMARK                            x       y       z     vdW  Elec       q    Type
REMARK                         _______ _______ _______ _____ _____    ______ ____
ROOT
ATOM      1  C   UNL     1      29.398  17.361  16.551  0.00  0.00    +0.247 C 
ATOM      2  O   UNL     1      29.318  16.623  17.533  0.00  0.00    -0.270 OA
ATOM      3  N   UNL     1      29.635  18.739  16.643  0.00  0.00    -0.297 N 
ATOM      4  C   UNL     1      29.705  19.669  15.514  0.00  0.00    +0.108 C 
ATOM      5  C   UNL     1      30.764  20.750  15.688  0.00  0.00    +0.026 C 
ATOM      6  C   UNL     1      30.686  21.480  17.046  0.00  0.00    -0.025 C 
ATOM      7  C   UNL     1      31.942  22.380  17.162  0.00  0.00    +0.017 C 
ATOM      8  C   UNL     1      32.023  23.213  18.434  0.00  0.00    +0.069 C 
ATOM      9  S   UNL     1      30.621  24.352  18.602  0.00  0.00    -0.161 S 
ATOM     10  C   UNL     1      29.256  23.181  18.373  0.00  0.00    +0.069 C 
ATOM     11  C   UNL     1      29.414  22.365  17.095  0.00  0.00    +0.017 C 
ATOM     12  C   UNL     1      30.695  20.390  18.150  0.00  0.00    +0.026 C 
ATOM     13  C   UNL     1      29.590  19.348  17.970  0.00  0.00    +0.108 C 
ENDROOT
BRANCH   1  17
ATOM     14  C   UNL     1      29.043  15.270  12.846  0.00  0.00    +0.037 A 
ATOM     15  C   UNL     1      30.310  15.660  13.292  0.00  0.00    +0.014 A 
ATOM     16  C   UNL     1      30.428  16.428  14.451  0.00  0.00    +0.014 A 
ATOM     17  C   UNL     1      29.293  16.723  15.215  0.00  0.00    +0.037 A 
ATOM     18  C   UNL     1      28.021  16.409  14.721  0.00  0.00    +0.014 A 
ATOM     19  C   UNL     1      27.895  15.691  13.529  0.00  0.00    +0.014 A 
BRANCH  14  21
ATOM     20  N   UNL     1      28.780  13.063  11.861  0.00  0.00    -0.325 N 
ATOM     21  C   UNL     1      28.888  14.409  11.647  0.00  0.00    +0.242 C 
ATOM     22  O   UNL     1      28.806  14.882  10.523  0.00  0.00    -0.270 OA
ATOM     23  H   UNL     1      28.552  12.500  11.051  0.00  0.00    +0.145 HD
ATOM     24  H   UNL     1      28.579  12.674  12.772  0.00  0.00    +0.145 HD
ENDBRANCH  14  21
ENDBRANCH   1  17
TORSDOF 2
ENDMDL
MODEL 2
REMARK VINA RESULT:      -7.4      1.218      1.647
REMARK  Name = ZINC000870248439
REMARK  2 active torsions:
REMARK  status: ('A' for Active; 'I' for Inactive)
REMARK    1  A    between atoms: C_2  and  C_4
REMARK    2  A    between atoms: C_7  and  C_8
REMARK                            x       y       z     vdW  Elec       q    Type
REMARK                         _______ _______ _______ _____ _____    ______ ____
ROOT
ATOM      1  C   UNL     1      28.807  17.919  16.374  0.00  0.00    +0.247 C 
ATOM      2  O   UNL     1      27.999  17.729  17.282  0.00  0.00    -0.270 OA
ATOM      3  N   UNL     1      29.734  18.970  16.378  0.00  0.00    -0.297 N 
ATOM      4  C   UNL     1      30.693  19.264  15.310  0.00  0.00    +0.108 C 
ATOM      5  C   UNL     1      32.043  19.743  15.828  0.00  0.00    +0.026 C 
ATOM      6  C   UNL     1      31.941  20.887  16.860  0.00  0.00    -0.025 C 
ATOM      7  C   UNL     1      33.358  21.108  17.448  0.00  0.00    +0.017 C 
ATOM      8  C   UNL     1      33.463  22.234  18.468  0.00  0.00    +0.069 C 
ATOM      9  S   UNL     1      32.995  23.842  17.771  0.00  0.00    -0.161 S 
ATOM     10  C   UNL     1      31.382  23.405  17.068  0.00  0.00    +0.069 C 
ATOM     11  C   UNL     1      31.468  22.186  16.157  0.00  0.00    +0.017 C 
ATOM     12  C   UNL     1      30.960  20.417  17.965  0.00  0.00    +0.026 C 
ATOM     13  C   UNL     1      29.600  19.989  17.415  0.00  0.00    +0.108 C 
ENDROOT
BRANCH   1  17
ATOM     14  C   UNL     1      28.898  15.319  12.988  0.00  0.00    +0.037 A 
ATOM     15  C   UNL     1      27.665  15.661  13.556  0.00  0.00    +0.014 A 
ATOM     16  C   UNL     1      27.630  16.430  14.719  0.00  0.00    +0.014 A 
ATOM     17  C   UNL     1      28.816  16.938  15.260  0.00  0.00    +0.037 A 
ATOM     18  C   UNL     1      30.050  16.522  14.745  0.00  0.00    +0.014 A 
ATOM     19  C   UNL     1      30.091  15.702  13.614  0.00  0.00    +0.014 A 
BRANCH  14  21
ATOM     20  N   UNL     1      28.756  13.200  11.807  0.00  0.00    -0.325 N 
ATOM     21  C   UNL     1      28.967  14.548  11.722  0.00  0.00    +0.242 C 
ATOM     22  O   UNL     1      29.150  15.096  10.646  0.00  0.00    -0.270 OA
ATOM     23  H   UNL     1      28.684  12.705  10.927  0.00  0.00    +0.145 HD
ATOM     24  H   UNL     1      28.347  12.766  12.622  0.00  0.00    +0.145 HD
ENDBRANCH  14  21
ENDBRANCH   1  17
TORSDOF 2
ENDMDL
MODEL 3
REMARK VINA RESULT:      -6.9      1.941      2.340
REMARK  Name = ZINC000870248439
REMARK  2 active torsions:
REMARK  status: ('A' for Active; 'I' for Inactive)
REMARK    1  A    between atoms: C_2  and  C_4
REMARK    2  A    between atoms: C_7  and  C_8
REMARK                            x       y       z     vdW  Elec       q    Type
REMARK                         _______ _______ _______ _____ _____    ______ ____
ROOT
ATOM      1  C   UNL     1      29.073  16.738  14.818  0.00  0.00    +0.247 C 
ATOM      2  O   UNL     1      28.110  16.082  15.213  0.00  0.00    -0.270 OA
ATOM      3  N   UNL     1      29.382  18.016  15.301  0.00  0.00    -0.297 N 
ATOM      4  C   UNL     1      30.492  18.855  14.843  0.00  0.00    +0.108 C 
ATOM      5  C   UNL     1      31.153  19.646  15.965  0.00  0.00    +0.026 C 
ATOM      6  C   UNL     1      30.153  20.424  16.846  0.00  0.00    -0.025 C 
ATOM      7  C   UNL     1      30.941  20.988  18.055  0.00  0.00    +0.017 C 
ATOM      8  C   UNL     1      30.119  21.824  19.027  0.00  0.00    +0.069 C 
ATOM      9  S   UNL     1      29.386  23.281  18.233  0.00  0.00    -0.161 S 
ATOM     10  C   UNL     1      28.577  22.477  16.823  0.00  0.00    +0.069 C 
ATOM     11  C   UNL     1      29.544  21.599  16.037  0.00  0.00    +0.017 C 
ATOM     12  C   UNL     1      29.080  19.410  17.322  0.00  0.00    +0.026 C 
ATOM     13  C   UNL     1      28.404  18.669  16.168  0.00  0.00    +0.108 C 
ENDROOT
BRANCH   1  17
ATOM     14  C   UNL     1      31.563  14.623  12.068  0.00  0.00    +0.037 A 
ATOM     15  C   UNL     1      32.151  15.300  13.143  0.00  0.00    +0.014 A 
ATOM     16  C   UNL     1      31.357  16.074  13.990  0.00  0.00    +0.014 A 
ATOM     17  C   UNL     1      29.967  16.094  13.824  0.00  0.00    +0.037 A 
ATOM     18  C   UNL     1      29.392  15.491  12.698  0.00  0.00    +0.014 A 
ATOM     19  C   UNL     1      30.193  14.764  11.813  0.00  0.00    +0.014 A 
BRANCH  14  21
ATOM     20  N   UNL     1      31.906  12.484  10.967  0.00  0.00    -0.325 N 
ATOM     21  C   UNL     1      32.372  13.751  11.181  0.00  0.00    +0.242 C 
ATOM     22  O   UNL     1      33.380  14.160  10.625  0.00  0.00    -0.270 OA
ATOM     23  H   UNL     1      32.397  11.942  10.267  0.00  0.00    +0.145 HD
ATOM     24  H   UNL     1      30.960  12.210  11.192  0.00  0.00    +0.145 HD
ENDBRANCH  14  21
ENDBRANCH   1  17
TORSDOF 2
ENDMDL
MODEL 4
REMARK VINA RESULT:      -6.6     18.988     20.535
REMARK  Name = ZINC000870248439
REMARK  2 active torsions:
REMARK  status: ('A' for Active; 'I' for Inactive)
REMARK    1  A    between atoms: C_2  and  C_4
REMARK    2  A    between atoms: C_7  and  C_8
REMARK                            x       y       z     vdW  Elec       q    Type
REMARK                         _______ _______ _______ _____ _____    ______ ____
ROOT
ATOM      1  C   UNL     1      15.331   5.377  11.829  0.00  0.00    +0.247 C 
ATOM      2  O   UNL     1      14.737   4.783  12.729  0.00  0.00    -0.270 OA
ATOM      3  N   UNL     1      16.488   4.880  11.215  0.00  0.00    -0.297 N 
ATOM      4  C   UNL     1      17.254   5.558  10.167  0.00  0.00    +0.108 C 
ATOM      5  C   UNL     1      17.805   4.608   9.111  0.00  0.00    +0.026 C 
ATOM      6  C   UNL     1      18.559   3.397   9.701  0.00  0.00    -0.025 C 
ATOM      7  C   UNL     1      18.859   2.424   8.533  0.00  0.00    +0.017 C 
ATOM      8  C   UNL     1      19.639   1.174   8.920  0.00  0.00    +0.069 C 
ATOM      9  S   UNL     1      21.263   1.565   9.626  0.00  0.00    -0.161 S 
ATOM     10  C   UNL     1      20.757   2.747  10.904  0.00  0.00    +0.069 C 
ATOM     11  C   UNL     1      19.894   3.867  10.334  0.00  0.00    +0.017 C 
ATOM     12  C   UNL     1      17.613   2.730  10.734  0.00  0.00    +0.026 C 
ATOM     13  C   UNL     1      17.118   3.702  11.806  0.00  0.00    +0.108 C 
ENDROOT
BRANCH   1  17
ATOM     14  C   UNL     1      13.434   9.026  10.685  0.00  0.00    +0.037 A 
ATOM     15  C   UNL     1      13.182   7.864   9.948  0.00  0.00    +0.014 A 
ATOM     16  C   UNL     1      13.871   6.690  10.253  0.00  0.00    +0.014 A 
ATOM     17  C   UNL     1      14.736   6.650  11.352  0.00  0.00    +0.037 A 
ATOM     18  C   UNL     1      15.054   7.833  12.030  0.00  0.00    +0.014 A 
ATOM     19  C   UNL     1      14.410   9.025  11.689  0.00  0.00    +0.014 A 
BRANCH  14  21
ATOM     20  N   UNL     1      11.863  10.286   9.323  0.00  0.00    -0.325 N 
ATOM     21  C   UNL     1      12.679  10.277  10.419  0.00  0.00    +0.242 C 
ATOM     22  O   UNL     1      12.742  11.236  11.173  0.00  0.00    -0.270 OA
ATOM     23  H   UNL     1      11.263  11.095   9.222  0.00  0.00    +0.145 HD
ATOM     24  H   UNL     1      11.591   9.439   8.844  0.00  0.00    +0.145 HD
ENDBRANCH  14  21
ENDBRANCH   1  17
TORSDOF 2
ENDMDL
MODEL 5
REMARK VINA RESULT:      -6.5      2.766      4.149
REMARK  Name = ZINC000870248439
REMARK  2 active torsions:
REMARK  status: ('A' for Active; 'I' for Inactive)
REMARK    1  A    between atoms: C_2  and  C_4
REMARK    2  A    between atoms: C_7  and  C_8
REMARK                            x       y       z     vdW  Elec       q    Type
REMARK                         _______ _______ _______ _____ _____    ______ ____
ROOT
ATOM      1  C   UNL     1      29.918  20.686  18.369  0.00  0.00    +0.247 C 
ATOM      2  O   UNL     1      29.087  21.079  19.187  0.00  0.00    -0.270 OA
ATOM      3  N   UNL     1      31.230  21.176  18.310  0.00  0.00    -0.297 N 
ATOM      4  C   UNL     1      32.247  20.772  17.337  0.00  0.00    +0.108 C 
ATOM      5  C   UNL     1      33.647  20.682  17.931  0.00  0.00    +0.026 C 
ATOM      6  C   UNL     1      34.062  21.936  18.730  0.00  0.00    -0.025 C 
ATOM      7  C   UNL     1      35.397  21.609  19.445  0.00  0.00    +0.017 C 
ATOM      8  C   UNL     1      35.987  22.750  20.262  0.00  0.00    +0.069 C 
ATOM      9  S   UNL     1      36.352  24.208  19.247  0.00  0.00    -0.161 S 
ATOM     10  C   UNL     1      34.745  24.415  18.432  0.00  0.00    +0.069 C 
ATOM     11  C   UNL     1      34.277  23.128  17.762  0.00  0.00    +0.017 C 
ATOM     12  C   UNL     1      32.941  22.207  19.767  0.00  0.00    +0.026 C 
ATOM     13  C   UNL     1      31.557  22.338  19.131  0.00  0.00    +0.108 C 
ENDROOT
BRANCH   1  17
ATOM     14  C   UNL     1      28.999  17.518  15.658  0.00  0.00    +0.037 A 
ATOM     15  C   UNL     1      28.715  18.837  15.290  0.00  0.00    +0.014 A 
ATOM     16  C   UNL     1      28.921  19.870  16.205  0.00  0.00    +0.014 A 
ATOM     17  C   UNL     1      29.500  19.598  17.450  0.00  0.00    +0.037 A 
ATOM     18  C   UNL     1      29.699  18.271  17.850  0.00  0.00    +0.014 A 
ATOM     19  C   UNL     1      29.438  17.229  16.956  0.00  0.00    +0.014 A 
BRANCH  14  21
ATOM     20  N   UNL     1      29.885  16.172  13.838  0.00  0.00    -0.325 N 
ATOM     21  C   UNL     1      28.841  16.404  14.690  0.00  0.00    +0.242 C 
ATOM     22  O   UNL     1      27.849  15.691  14.688  0.00  0.00    -0.270 OA
ATOM     23  H   UNL     1      29.818  15.338  13.268  0.00  0.00    +0.145 HD
ATOM     24  H   UNL     1      30.804  16.562  13.989  0.00  0.00    +0.145 HD
ENDBRANCH  14  21
ENDBRANCH   1  17
TORSDOF 2
ENDMDL
MODEL 6
REMARK VINA RESULT:      -6.5      5.942      7.924
REMARK  Name = ZINC000870248439
REMARK  2 active torsions:
REMARK  status: ('A' for Active; 'I' for Inactive)
REMARK    1  A    between atoms: C_2  and  C_4
REMARK    2  A    between atoms: C_7  and  C_8
REMARK                            x       y       z     vdW  Elec       q    Type
REMARK                         _______ _______ _______ _____ _____    ______ ____
ROOT
ATOM      1  C   UNL     1      32.866  23.368  14.085  0.00  0.00    +0.247 C 
ATOM      2  O   UNL     1      33.495  24.047  14.895  0.00  0.00    -0.270 OA
ATOM      3  N   UNL     1      32.081  22.266  14.452  0.00  0.00    -0.297 N 
ATOM      4  C   UNL     1      31.341  21.403  13.530  0.00  0.00    +0.108 C 
ATOM      5  C   UNL     1      29.994  20.949  14.079  0.00  0.00    +0.026 C 
ATOM      6  C   UNL     1      30.073  20.358  15.503  0.00  0.00    -0.025 C 
ATOM      7  C   UNL     1      28.621  20.152  16.001  0.00  0.00    +0.017 C 
ATOM      8  C   UNL     1      28.496  19.536  17.388  0.00  0.00    +0.069 C 
ATOM      9  S   UNL     1      29.255  17.891  17.483  0.00  0.00    -0.161 S 
ATOM     10  C   UNL     1      30.893  18.278  16.809  0.00  0.00    +0.069 C 
ATOM     11  C   UNL     1      30.801  18.989  15.463  0.00  0.00    +0.017 C 
ATOM     12  C   UNL     1      30.810  21.397  16.387  0.00  0.00    +0.026 C 
ATOM     13  C   UNL     1      32.177  21.794  15.831  0.00  0.00    +0.108 C 
ENDROOT
BRANCH   1  17
ATOM     14  C   UNL     1      33.199  24.796  10.075  0.00  0.00    +0.037 A 
ATOM     15  C   UNL     1      32.074  25.139  10.833  0.00  0.00    +0.014 A 
ATOM     16  C   UNL     1      31.908  24.599  12.108  0.00  0.00    +0.014 A 
ATOM     17  C   UNL     1      32.910  23.796  12.665  0.00  0.00    +0.037 A 
ATOM     18  C   UNL     1      33.989  23.382  11.874  0.00  0.00    +0.014 A 
ATOM     19  C   UNL     1      34.128  23.874  10.574  0.00  0.00    +0.014 A 
BRANCH  14  21
ATOM     20  N   UNL     1      32.750  24.844   7.687  0.00  0.00    -0.325 N 
ATOM     21  C   UNL     1      33.430  25.395   8.737  0.00  0.00    +0.242 C 
ATOM     22  O   UNL     1      34.152  26.369   8.586  0.00  0.00    -0.270 OA
ATOM     23  H   UNL     1      32.819  25.336   6.805  0.00  0.00    +0.145 HD
ATOM     24  H   UNL     1      31.960  24.227   7.817  0.00  0.00    +0.145 HD
ENDBRANCH  14  21
ENDBRANCH   1  17
TORSDOF 2
ENDMDL
MODEL 7
REMARK VINA RESULT:      -6.5      4.031      7.536
REMARK  Name = ZINC000870248439
REMARK  2 active torsions:
REMARK  status: ('A' for Active; 'I' for Inactive)
REMARK    1  A    between atoms: C_2  and  C_4
REMARK    2  A    between atoms: C_7  and  C_8
REMARK                            x       y       z     vdW  Elec       q    Type
REMARK                         _______ _______ _______ _____ _____    ______ ____
ROOT
ATOM      1  C   UNL     1      29.755  17.123  15.079  0.00  0.00    +0.247 C 
ATOM      2  O   UNL     1      28.924  16.216  15.101  0.00  0.00    -0.270 OA
ATOM      3  N   UNL     1      30.909  17.089  14.285  0.00  0.00    -0.297 N 
ATOM      4  C   UNL     1      31.947  18.121  14.246  0.00  0.00    +0.108 C 
ATOM      5  C   UNL     1      32.517  18.349  12.851  0.00  0.00    +0.026 C 
ATOM      6  C   UNL     1      32.952  17.050  12.140  0.00  0.00    -0.025 C 
ATOM      7  C   UNL     1      33.296  17.417  10.674  0.00  0.00    +0.017 C 
ATOM      8  C   UNL     1      33.785  16.257   9.817  0.00  0.00    +0.069 C 
ATOM      9  S   UNL     1      35.300  15.505  10.474  0.00  0.00    -0.161 S 
ATOM     10  C   UNL     1      34.770  15.208  12.182  0.00  0.00    +0.069 C 
ATOM     11  C   UNL     1      34.211  16.468  12.833  0.00  0.00    +0.017 C 
ATOM     12  C   UNL     1      31.744  16.078  12.188  0.00  0.00    +0.026 C 
ATOM     13  C   UNL     1      31.228  15.835  13.606  0.00  0.00    +0.108 C 
ENDROOT
BRANCH   1  17
ATOM     14  C   UNL     1      29.140  20.720  17.296  0.00  0.00    +0.037 A 
ATOM     15  C   UNL     1      29.738  19.623  17.925  0.00  0.00    +0.014 A 
ATOM     16  C   UNL     1      29.854  18.413  17.240  0.00  0.00    +0.014 A 
ATOM     17  C   UNL     1      29.465  18.326  15.899  0.00  0.00    +0.037 A 
ATOM     18  C   UNL     1      28.786  19.396  15.301  0.00  0.00    +0.014 A 
ATOM     19  C   UNL     1      28.614  20.591  16.004  0.00  0.00    +0.014 A 
BRANCH  14  21
ATOM     20  N   UNL     1      28.564  23.081  17.245  0.00  0.00    -0.325 N 
ATOM     21  C   UNL     1      29.049  22.035  17.979  0.00  0.00    +0.242 C 
ATOM     22  O   UNL     1      29.342  22.167  19.157  0.00  0.00    -0.270 OA
ATOM     23  H   UNL     1      28.391  23.939  17.753  0.00  0.00    +0.145 HD
ATOM     24  H   UNL     1      28.074  22.948  16.372  0.00  0.00    +0.145 HD
ENDBRANCH  14  21
ENDBRANCH   1  17
TORSDOF 2
ENDMDL
MODEL 8
REMARK VINA RESULT:      -6.3      3.225      5.112
REMARK  Name = ZINC000870248439
REMARK  2 active torsions:
REMARK  status: ('A' for Active; 'I' for Inactive)
REMARK    1  A    between atoms: C_2  and  C_4
REMARK    2  A    between atoms: C_7  and  C_8
REMARK                            x       y       z     vdW  Elec       q    Type
REMARK                         _______ _______ _______ _____ _____    ______ ____
ROOT
ATOM      1  C   UNL     1      30.147  22.142  17.810  0.00  0.00    +0.247 C 
ATOM      2  O   UNL     1      29.509  22.877  18.564  0.00  0.00    -0.270 OA
ATOM      3  N   UNL     1      31.378  22.503  17.247  0.00  0.00    -0.297 N 
ATOM      4  C   UNL     1      32.162  21.684  16.318  0.00  0.00    +0.108 C 
ATOM      5  C   UNL     1      33.665  21.785  16.547  0.00  0.00    +0.026 C 
ATOM      6  C   UNL     1      34.182  23.237  16.633  0.00  0.00    -0.025 C 
ATOM      7  C   UNL     1      35.664  23.174  17.083  0.00  0.00    +0.017 C 
ATOM      8  C   UNL     1      36.362  24.524  17.190  0.00  0.00    +0.069 C 
ATOM      9  S   UNL     1      36.395  25.410  15.608  0.00  0.00    -0.161 S 
ATOM     10  C   UNL     1      34.634  25.334  15.185  0.00  0.00    +0.069 C 
ATOM     11  C   UNL     1      34.097  23.908  15.238  0.00  0.00    +0.017 C 
ATOM     12  C   UNL     1      33.321  23.965  17.698  0.00  0.00    +0.026 C 
ATOM     13  C   UNL     1      31.822  23.884  17.411  0.00  0.00    +0.108 C 
ENDROOT
BRANCH   1  17
ATOM     14  C   UNL     1      28.798  18.186  16.937  0.00  0.00    +0.037 A 
ATOM     15  C   UNL     1      28.305  19.259  16.186  0.00  0.00    +0.014 A 
ATOM     16  C   UNL     1      28.664  20.564  16.526  0.00  0.00    +0.014 A 
ATOM     17  C   UNL     1      29.589  20.792  17.551  0.00  0.00    +0.037 A 
ATOM     18  C   UNL     1      30.010  19.727  18.357  0.00  0.00    +0.014 A 
ATOM     19  C   UNL     1      29.606  18.424  18.056  0.00  0.00    +0.014 A 
BRANCH  14  21
ATOM     20  N   UNL     1      28.147  16.549  15.263  0.00  0.00    -0.325 N 
ATOM     21  C   UNL     1      28.477  16.785  16.568  0.00  0.00    +0.242 C 
ATOM     22  O   UNL     1      28.556  15.874  17.379  0.00  0.00    -0.270 OA
ATOM     23  H   UNL     1      28.051  15.577  14.997  0.00  0.00    +0.145 HD
ATOM     24  H   UNL     1      28.330  17.219  14.529  0.00  0.00    +0.145 HD
ENDBRANCH  14  21
ENDBRANCH   1  17
TORSDOF 2
ENDMDL
MODEL 9
REMARK VINA RESULT:      -6.3      3.868      5.773
REMARK  Name = ZINC000870248439
REMARK  2 active torsions:
REMARK  status: ('A' for Active; 'I' for Inactive)
REMARK    1  A    between atoms: C_2  and  C_4
REMARK    2  A    between atoms: C_7  and  C_8
REMARK                            x       y       z     vdW  Elec       q    Type
REMARK                         _______ _______ _______ _____ _____    ______ ____
ROOT
ATOM      1  C   UNL     1      31.465  21.696  16.432  0.00  0.00    +0.247 C 
ATOM      2  O   UNL     1      30.807  22.305  15.589  0.00  0.00    -0.270 OA
ATOM      3  N   UNL     1      32.667  22.181  16.964  0.00  0.00    -0.297 N 
ATOM      4  C   UNL     1      33.509  21.484  17.940  0.00  0.00    +0.108 C 
ATOM      5  C   UNL     1      34.140  22.417  18.966  0.00  0.00    +0.026 C 
ATOM      6  C   UNL     1      34.850  23.637  18.341  0.00  0.00    -0.025 C 
ATOM      7  C   UNL     1      35.241  24.590  19.498  0.00  0.00    +0.017 C 
ATOM      8  C   UNL     1      35.992  25.845  19.074  0.00  0.00    +0.069 C 
ATOM      9  S   UNL     1      37.557  25.463  18.241  0.00  0.00    -0.161 S 
ATOM     10  C   UNL     1      36.952  24.303  16.986  0.00  0.00    +0.069 C 
ATOM     11  C   UNL     1      36.132  23.174  17.601  0.00  0.00    +0.017 C 
ATOM     12  C   UNL     1      33.831  24.321  17.393  0.00  0.00    +0.026 C 
ATOM     13  C   UNL     1      33.254  23.367  16.347  0.00  0.00    +0.108 C 
ENDROOT
BRANCH   1  17
ATOM     14  C   UNL     1      29.648  18.033  17.661  0.00  0.00    +0.037 A 
ATOM     15  C   UNL     1      29.478  19.179  18.446  0.00  0.00    +0.014 A 
ATOM     16  C   UNL     1      30.146  20.355  18.106  0.00  0.00    +0.014 A 
ATOM     17  C   UNL     1      30.905  20.416  16.932  0.00  0.00    +0.037 A 
ATOM     18  C   UNL     1      31.147  19.247  16.198  0.00  0.00    +0.014 A 
ATOM     19  C   UNL     1      30.526  18.052  16.570  0.00  0.00    +0.014 A 
BRANCH  14  21
ATOM     20  N   UNL     1      28.347  16.683  19.207  0.00  0.00    -0.325 N 
ATOM     21  C   UNL     1      28.909  16.782  17.966  0.00  0.00    +0.242 C 
ATOM     22  O   UNL     1      28.763  15.903  17.129  0.00  0.00    -0.270 OA
ATOM     23  H   UNL     1      27.745  15.884  19.361  0.00  0.00    +0.145 HD
ATOM     24  H   UNL     1      28.224  17.483  19.812  0.00  0.00    +0.145 HD
ENDBRANCH  14  21
ENDBRANCH   1  17
TORSDOF 2
ENDMDL
