MODEL 1
REMARK VINA RESULT:      -6.6      0.000      0.000
REMARK  Name = ZINC000543478179
REMARK  8 active torsions:
REMARK  status: ('A' for Active; 'I' for Inactive)
REMARK    1  A    between atoms: C_1  and  C_2
REMARK    2  A    between atoms: C_2  and  N_3
REMARK    3  A    between atoms: N_9  and  C_10
REMARK    4  A    between atoms: C_10  and  C_11
REMARK    5  A    between atoms: C_10  and  C_12
REMARK    6  A    between atoms: C_15  and  O_16
REMARK    7  A    between atoms: O_16  and  C_17
REMARK    8  A    between atoms: C_17  and  C_18
REMARK                            x       y       z     vdW  Elec       q    Type
REMARK                         _______ _______ _______ _____ _____    ______ ____
ROOT
ATOM      1  C   UNL     1      32.102  23.641  12.660  0.00  0.00    +0.102 C 
ATOM      2  C   UNL     1      31.072  24.769  12.751  0.00  0.00    +0.033 C 
ENDROOT
BRANCH   1   9
ATOM      3  N   UNL     1      34.214  20.552  16.607  0.00  0.00    -0.299 N 
ATOM      4  C   UNL     1      33.484  19.502  15.899  0.00  0.00    +0.127 C 
ATOM      5  C   UNL     1      32.090  19.969  15.469  0.00  0.00    +0.129 C 
ATOM      6  N   UNL     1      32.190  21.170  14.633  0.00  0.00    -0.275 N 
ATOM      7  C   UNL     1      31.454  21.246  13.485  0.00  0.00    +0.303 C 
ATOM      8  O   UNL     1      30.723  20.318  13.125  0.00  0.00    -0.253 OA
ATOM      9  N   UNL     1      31.484  22.318  12.664  0.00  0.00    -0.293 N 
ATOM     10  C   UNL     1      33.084  22.195  15.150  0.00  0.00    +0.205 C 
ATOM     11  C   UNL     1      33.971  21.887  16.356  0.00  0.00    +0.233 C 
ATOM     12  O   UNL     1      34.528  22.805  16.965  0.00  0.00    -0.274 OA
ATOM     13  H   UNL     1      30.878  22.132  11.874  0.00  0.00    +0.151 HD
BRANCH   3  15
ATOM     14  C   UNL     1      34.834  18.954  18.353  0.00  0.00    +0.024 C 
ATOM     15  C   UNL     1      35.236  20.190  17.571  0.00  0.00    +0.104 C 
ENDBRANCH   3  15
ENDBRANCH   1   9
BRANCH   1  16
ATOM     16  C   UNL     1      33.005  23.789  11.449  0.00  0.00    -0.024 A 
ATOM     17  C   UNL     1      34.400  23.824  11.573  0.00  0.00    +0.009 A 
ATOM     18  C   UNL     1      35.214  23.982  10.450  0.00  0.00    +0.049 A 
ATOM     19  C   UNL     1      34.647  24.150   9.179  0.00  0.00    +0.156 A 
ATOM     20  C   UNL     1      33.262  24.077   9.052  0.00  0.00    +0.165 A 
ATOM     21  F   UNL     1      32.683  24.192   7.846  0.00  0.00    -0.202 F 
ATOM     22  C   UNL     1      32.443  23.912  10.167  0.00  0.00    +0.047 A 
BRANCH  19  23
ATOM     23  O   UNL     1      35.364  24.390   8.040  0.00  0.00    -0.489 OA
BRANCH  23  24
ATOM     24  C   UNL     1      36.081  23.265   7.531  0.00  0.00    +0.232 C 
BRANCH  24  25
ATOM     25  C   UNL     1      35.202  22.499   6.595  0.00  0.00    +0.027 C 
ATOM     26  C   UNL     1      34.659  21.159   7.024  0.00  0.00    +0.007 C 
ATOM     27  C   UNL     1      35.703  21.234   5.944  0.00  0.00    +0.007 C 
ENDBRANCH  24  25
ENDBRANCH  23  24
ENDBRANCH  19  23
ENDBRANCH   1  16
TORSDOF 6
ENDMDL
MODEL 2
REMARK VINA RESULT:      -6.2      3.218      8.469
REMARK  Name = ZINC000543478179
REMARK  8 active torsions:
REMARK  status: ('A' for Active; 'I' for Inactive)
REMARK    1  A    between atoms: C_1  and  C_2
REMARK    2  A    between atoms: C_2  and  N_3
REMARK    3  A    between atoms: N_9  and  C_10
REMARK    4  A    between atoms: C_10  and  C_11
REMARK    5  A    between atoms: C_10  and  C_12
REMARK    6  A    between atoms: C_15  and  O_16
REMARK    7  A    between atoms: O_16  and  C_17
REMARK    8  A    between atoms: C_17  and  C_18
REMARK                            x       y       z     vdW  Elec       q    Type
REMARK                         _______ _______ _______ _____ _____    ______ ____
ROOT
ATOM      1  C   UNL     1      33.663  23.785   9.213  0.00  0.00    +0.102 C 
ATOM      2  C   UNL     1      32.572  24.452   8.373  0.00  0.00    +0.033 C 
ENDROOT
BRANCH   1   9
ATOM      3  N   UNL     1      37.390  21.691   5.849  0.00  0.00    -0.299 N 
ATOM      4  C   UNL     1      38.261  22.627   6.558  0.00  0.00    +0.127 C 
ATOM      5  C   UNL     1      37.584  23.983   6.772  0.00  0.00    +0.129 C 
ATOM      6  N   UNL     1      36.323  23.815   7.500  0.00  0.00    -0.275 N 
ATOM      7  C   UNL     1      36.035  24.653   8.539  0.00  0.00    +0.303 C 
ATOM      8  O   UNL     1      36.824  25.537   8.892  0.00  0.00    -0.253 OA
ATOM      9  N   UNL     1      34.894  24.570   9.256  0.00  0.00    -0.293 N 
ATOM     10  C   UNL     1      35.475  22.742   7.002  0.00  0.00    +0.205 C 
ATOM     11  C   UNL     1      36.016  21.779   5.946  0.00  0.00    +0.233 C 
ATOM     12  O   UNL     1      35.243  21.042   5.327  0.00  0.00    -0.274 OA
ATOM     13  H   UNL     1      34.919  25.277   9.981  0.00  0.00    +0.151 HD
BRANCH   3  15
ATOM     14  C   UNL     1      38.824  21.194   3.930  0.00  0.00    +0.024 C 
ATOM     15  C   UNL     1      37.974  20.628   5.053  0.00  0.00    +0.104 C 
ENDBRANCH   3  15
ENDBRANCH   1   9
BRANCH   1  16
ATOM     16  C   UNL     1      33.192  23.478  10.623  0.00  0.00    -0.024 A 
ATOM     17  C   UNL     1      33.929  22.653  11.481  0.00  0.00    +0.009 A 
ATOM     18  C   UNL     1      33.469  22.366  12.768  0.00  0.00    +0.049 A 
ATOM     19  C   UNL     1      32.238  22.868  13.211  0.00  0.00    +0.156 A 
ATOM     20  C   UNL     1      31.524  23.720  12.371  0.00  0.00    +0.165 A 
ATOM     21  F   UNL     1      30.361  24.254  12.774  0.00  0.00    -0.202 F 
ATOM     22  C   UNL     1      31.981  24.017  11.088  0.00  0.00    +0.047 A 
BRANCH  19  23
ATOM     23  O   UNL     1      31.675  22.574  14.421  0.00  0.00    -0.489 OA
BRANCH  23  24
ATOM     24  C   UNL     1      31.009  21.312  14.485  0.00  0.00    +0.232 C 
BRANCH  24  25
ATOM     25  C   UNL     1      31.591  20.500  15.598  0.00  0.00    +0.027 C 
ATOM     26  C   UNL     1      33.004  20.774  16.049  0.00  0.00    +0.007 C 
ATOM     27  C   UNL     1      32.685  19.499  15.319  0.00  0.00    +0.007 C 
ENDBRANCH  24  25
ENDBRANCH  23  24
ENDBRANCH  19  23
ENDBRANCH   1  16
TORSDOF 6
ENDMDL
MODEL 3
REMARK VINA RESULT:      -6.1      2.816      8.170
REMARK  Name = ZINC000543478179
REMARK  8 active torsions:
REMARK  status: ('A' for Active; 'I' for Inactive)
REMARK    1  A    between atoms: C_1  and  C_2
REMARK    2  A    between atoms: C_2  and  N_3
REMARK    3  A    between atoms: N_9  and  C_10
REMARK    4  A    between atoms: C_10  and  C_11
REMARK    5  A    between atoms: C_10  and  C_12
REMARK    6  A    between atoms: C_15  and  O_16
REMARK    7  A    between atoms: O_16  and  C_17
REMARK    8  A    between atoms: C_17  and  C_18
REMARK                            x       y       z     vdW  Elec       q    Type
REMARK                         _______ _______ _______ _____ _____    ______ ____
ROOT
ATOM      1  C   UNL     1      32.537  23.441  11.840  0.00  0.00    +0.102 C 
ATOM      2  C   UNL     1      31.240  24.255  11.836  0.00  0.00    +0.033 C 
ENDROOT
BRANCH   1   9
ATOM      3  N   UNL     1      35.381  21.651   7.563  0.00  0.00    -0.299 N 
ATOM      4  C   UNL     1      36.374  22.588   8.087  0.00  0.00    +0.127 C 
ATOM      5  C   UNL     1      35.733  23.905   8.533  0.00  0.00    +0.129 C 
ATOM      6  N   UNL     1      34.693  23.654   9.536  0.00  0.00    -0.275 N 
ATOM      7  C   UNL     1      34.647  24.433  10.657  0.00  0.00    +0.303 C 
ATOM      8  O   UNL     1      35.473  25.329  10.854  0.00  0.00    -0.253 OA
ATOM      9  N   UNL     1      33.718  24.272  11.625  0.00  0.00    -0.293 N 
ATOM     10  C   UNL     1      33.780  22.572   9.203  0.00  0.00    +0.205 C 
ATOM     11  C   UNL     1      34.070  21.680   7.996  0.00  0.00    +0.233 C 
ATOM     12  O   UNL     1      33.190  20.943   7.545  0.00  0.00    -0.274 OA
ATOM     13  H   UNL     1      33.902  24.946  12.358  0.00  0.00    +0.151 HD
BRANCH   3  15
ATOM     14  C   UNL     1      36.192  21.295   5.282  0.00  0.00    +0.024 C 
ATOM     15  C   UNL     1      35.781  20.650   6.593  0.00  0.00    +0.104 C 
ENDBRANCH   3  15
ENDBRANCH   1   9
BRANCH   1  16
ATOM     16  C   UNL     1      32.697  22.629  13.112  0.00  0.00    -0.024 A 
ATOM     17  C   UNL     1      33.954  22.400  13.685  0.00  0.00    +0.009 A 
ATOM     18  C   UNL     1      34.084  21.633  14.844  0.00  0.00    +0.049 A 
ATOM     19  C   UNL     1      32.959  21.042  15.434  0.00  0.00    +0.156 A 
ATOM     20  C   UNL     1      31.705  21.301  14.887  0.00  0.00    +0.165 A 
ATOM     21  F   UNL     1      30.599  20.786  15.447  0.00  0.00    -0.202 F 
ATOM     22  C   UNL     1      31.567  22.072  13.734  0.00  0.00    +0.047 A 
BRANCH  19  23
ATOM     23  O   UNL     1      33.004  20.212  16.520  0.00  0.00    -0.489 OA
BRANCH  23  24
ATOM     24  C   UNL     1      34.128  19.333  16.560  0.00  0.00    +0.232 C 
BRANCH  24  25
ATOM     25  C   UNL     1      34.392  18.931  17.976  0.00  0.00    +0.027 C 
ATOM     26  C   UNL     1      35.644  19.420  18.659  0.00  0.00    +0.007 C 
ATOM     27  C   UNL     1      35.506  17.966  18.298  0.00  0.00    +0.007 C 
ENDBRANCH  24  25
ENDBRANCH  23  24
ENDBRANCH  19  23
ENDBRANCH   1  16
TORSDOF 6
ENDMDL
MODEL 4
REMARK VINA RESULT:      -6.0     26.742     30.240
REMARK  Name = ZINC000543478179
REMARK  8 active torsions:
REMARK  status: ('A' for Active; 'I' for Inactive)
REMARK    1  A    between atoms: C_1  and  C_2
REMARK    2  A    between atoms: C_2  and  N_3
REMARK    3  A    between atoms: N_9  and  C_10
REMARK    4  A    between atoms: C_10  and  C_11
REMARK    5  A    between atoms: C_10  and  C_12
REMARK    6  A    between atoms: C_15  and  O_16
REMARK    7  A    between atoms: O_16  and  C_17
REMARK    8  A    between atoms: C_17  and  C_18
REMARK                            x       y       z     vdW  Elec       q    Type
REMARK                         _______ _______ _______ _____ _____    ______ ____
ROOT
ATOM      1  C   UNL     1      16.519   3.398  27.983  0.00  0.00    +0.102 C 
ATOM      2  C   UNL     1      16.428   2.762  26.594  0.00  0.00    +0.033 C 
ENDROOT
BRANCH   1   9
ATOM      3  N   UNL     1      13.180   5.044  31.949  0.00  0.00    -0.299 N 
ATOM      4  C   UNL     1      13.794   3.922  32.656  0.00  0.00    +0.127 C 
ATOM      5  C   UNL     1      13.940   2.693  31.754  0.00  0.00    +0.129 C 
ATOM      6  N   UNL     1      14.719   3.027  30.558  0.00  0.00    -0.275 N 
ATOM      7  C   UNL     1      15.709   2.178  30.149  0.00  0.00    +0.303 C 
ATOM      8  O   UNL     1      15.975   1.148  30.777  0.00  0.00    -0.253 OA
ATOM      9  N   UNL     1      16.468   2.409  29.056  0.00  0.00    -0.293 N 
ATOM     10  C   UNL     1      14.324   4.264  29.904  0.00  0.00    +0.205 C 
ATOM     11  C   UNL     1      13.317   5.192  30.584  0.00  0.00    +0.233 C 
ATOM     12  O   UNL     1      12.775   6.095  29.941  0.00  0.00    -0.274 OA
ATOM     13  H   UNL     1      17.142   1.658  28.972  0.00  0.00    +0.151 HD
BRANCH   3  15
ATOM     14  C   UNL     1      13.367   7.099  33.265  0.00  0.00    +0.024 C 
ATOM     15  C   UNL     1      12.438   6.043  32.695  0.00  0.00    +0.104 C 
ENDBRANCH   3  15
ENDBRANCH   1   9
BRANCH   1  16
ATOM     16  C   UNL     1      17.755   4.266  28.134  0.00  0.00    -0.024 A 
ATOM     17  C   UNL     1      18.472   4.724  27.023  0.00  0.00    +0.009 A 
ATOM     18  C   UNL     1      19.618   5.504  27.182  0.00  0.00    +0.049 A 
ATOM     19  C   UNL     1      20.098   5.809  28.463  0.00  0.00    +0.156 A 
ATOM     20  C   UNL     1      19.363   5.386  29.568  0.00  0.00    +0.165 A 
ATOM     21  F   UNL     1      19.767   5.693  30.811  0.00  0.00    -0.202 F 
ATOM     22  C   UNL     1      18.213   4.613  29.416  0.00  0.00    +0.047 A 
BRANCH  19  23
ATOM     23  O   UNL     1      21.253   6.496  28.711  0.00  0.00    -0.489 OA
BRANCH  23  24
ATOM     24  C   UNL     1      22.443   5.865  28.237  0.00  0.00    +0.232 C 
BRANCH  24  25
ATOM     25  C   UNL     1      23.013   5.005  29.320  0.00  0.00    +0.027 C 
ATOM     26  C   UNL     1      24.219   4.150  29.022  0.00  0.00    +0.007 C 
ATOM     27  C   UNL     1      22.879   3.504  29.249  0.00  0.00    +0.007 C 
ENDBRANCH  24  25
ENDBRANCH  23  24
ENDBRANCH  19  23
ENDBRANCH   1  16
TORSDOF 6
ENDMDL
MODEL 5
REMARK VINA RESULT:      -5.8      2.257      3.347
REMARK  Name = ZINC000543478179
REMARK  8 active torsions:
REMARK  status: ('A' for Active; 'I' for Inactive)
REMARK    1  A    between atoms: C_1  and  C_2
REMARK    2  A    between atoms: C_2  and  N_3
REMARK    3  A    between atoms: N_9  and  C_10
REMARK    4  A    between atoms: C_10  and  C_11
REMARK    5  A    between atoms: C_10  and  C_12
REMARK    6  A    between atoms: C_15  and  O_16
REMARK    7  A    between atoms: O_16  and  C_17
REMARK    8  A    between atoms: C_17  and  C_18
REMARK                            x       y       z     vdW  Elec       q    Type
REMARK                         _______ _______ _______ _____ _____    ______ ____
ROOT
ATOM      1  C   UNL     1      34.661  24.236  10.752  0.00  0.00    +0.102 C 
ATOM      2  C   UNL     1      35.422  25.556  10.894  0.00  0.00    +0.033 C 
ENDROOT
BRANCH   1   9
ATOM      3  N   UNL     1      32.848  20.245  13.974  0.00  0.00    -0.299 N 
ATOM      4  C   UNL     1      31.550  20.784  13.571  0.00  0.00    +0.127 C 
ATOM      5  C   UNL     1      31.544  22.315  13.575  0.00  0.00    +0.129 C 
ATOM      6  N   UNL     1      32.601  22.832  12.701  0.00  0.00    -0.275 N 
ATOM      7  C   UNL     1      32.312  23.849  11.836  0.00  0.00    +0.303 C 
ATOM      8  O   UNL     1      31.176  24.327  11.759  0.00  0.00    -0.253 OA
ATOM      9  N   UNL     1      33.230  24.386  11.002  0.00  0.00    -0.293 N 
ATOM     10  C   UNL     1      33.896  22.192  12.873  0.00  0.00    +0.205 C 
ATOM     11  C   UNL     1      34.015  20.949  13.755  0.00  0.00    +0.233 C 
ATOM     12  O   UNL     1      35.125  20.556  14.123  0.00  0.00    -0.274 OA
ATOM     13  H   UNL     1      32.776  25.103  10.448  0.00  0.00    +0.151 HD
BRANCH   3  15
ATOM     14  C   UNL     1      33.016  17.844  13.533  0.00  0.00    +0.024 C 
ATOM     15  C   UNL     1      32.922  18.932  14.587  0.00  0.00    +0.104 C 
ENDBRANCH   3  15
ENDBRANCH   1   9
BRANCH   1  16
ATOM     16  C   UNL     1      34.887  23.588   9.398  0.00  0.00    -0.024 A 
ATOM     17  C   UNL     1      35.920  24.001   8.549  0.00  0.00    +0.009 A 
ATOM     18  C   UNL     1      36.100  23.408   7.299  0.00  0.00    +0.049 A 
ATOM     19  C   UNL     1      35.221  22.412   6.852  0.00  0.00    +0.156 A 
ATOM     20  C   UNL     1      34.216  21.975   7.712  0.00  0.00    +0.165 A 
ATOM     21  F   UNL     1      33.379  20.995   7.337  0.00  0.00    -0.202 F 
ATOM     22  C   UNL     1      34.036  22.558   8.965  0.00  0.00    +0.047 A 
BRANCH  19  23
ATOM     23  O   UNL     1      35.273  21.836   5.614  0.00  0.00    -0.489 OA
BRANCH  23  24
ATOM     24  C   UNL     1      36.387  20.968   5.400  0.00  0.00    +0.232 C 
BRANCH  24  25
ATOM     25  C   UNL     1      35.986  19.561   5.710  0.00  0.00    +0.027 C 
ATOM     26  C   UNL     1      36.429  18.937   7.009  0.00  0.00    +0.007 C 
ATOM     27  C   UNL     1      37.015  18.458   5.710  0.00  0.00    +0.007 C 
ENDBRANCH  24  25
ENDBRANCH  23  24
ENDBRANCH  19  23
ENDBRANCH   1  16
TORSDOF 6
ENDMDL
MODEL 6
REMARK VINA RESULT:      -5.8     21.725     24.262
REMARK  Name = ZINC000543478179
REMARK  8 active torsions:
REMARK  status: ('A' for Active; 'I' for Inactive)
REMARK    1  A    between atoms: C_1  and  C_2
REMARK    2  A    between atoms: C_2  and  N_3
REMARK    3  A    between atoms: N_9  and  C_10
REMARK    4  A    between atoms: C_10  and  C_11
REMARK    5  A    between atoms: C_10  and  C_12
REMARK    6  A    between atoms: C_15  and  O_16
REMARK    7  A    between atoms: O_16  and  C_17
REMARK    8  A    between atoms: C_17  and  C_18
REMARK                            x       y       z     vdW  Elec       q    Type
REMARK                         _______ _______ _______ _____ _____    ______ ____
ROOT
ATOM      1  C   UNL     1      19.643  10.733   1.821  0.00  0.00    +0.102 C 
ATOM      2  C   UNL     1      20.040  11.721   2.920  0.00  0.00    +0.033 C 
ENDROOT
BRANCH   1   9
ATOM      3  N   UNL     1      16.469   8.714  -2.109  0.00  0.00    -0.299 N 
ATOM      4  C   UNL     1      17.571   9.170  -2.954  0.00  0.00    +0.127 C 
ATOM      5  C   UNL     1      18.083  10.549  -2.527  0.00  0.00    +0.129 C 
ATOM      6  N   UNL     1      18.498  10.526  -1.121  0.00  0.00    -0.275 N 
ATOM      7  C   UNL     1      19.684  11.104  -0.767  0.00  0.00    +0.303 C 
ATOM      8  O   UNL     1      20.423  11.627  -1.608  0.00  0.00    -0.253 OA
ATOM      9  N   UNL     1      20.136  11.132   0.506  0.00  0.00    -0.293 N 
ATOM     10  C   UNL     1      17.555   9.881  -0.222  0.00  0.00    +0.205 C 
ATOM     11  C   UNL     1      16.356   9.126  -0.796  0.00  0.00    +0.233 C 
ATOM     12  O   UNL     1      15.417   8.805  -0.063  0.00  0.00    -0.274 OA
ATOM     13  H   UNL     1      21.039  11.591   0.513  0.00  0.00    +0.151 HD
BRANCH   3  15
ATOM     14  C   UNL     1      16.024   6.366  -2.633  0.00  0.00    +0.024 C 
ATOM     15  C   UNL     1      15.490   7.786  -2.643  0.00  0.00    +0.104 C 
ENDBRANCH   3  15
ENDBRANCH   1   9
BRANCH   1  16
ATOM     16  C   UNL     1      20.090   9.317   2.136  0.00  0.00    -0.024 A 
ATOM     17  C   UNL     1      19.279   8.434   2.858  0.00  0.00    +0.009 A 
ATOM     18  C   UNL     1      19.716   7.142   3.156  0.00  0.00    +0.049 A 
ATOM     19  C   UNL     1      20.996   6.719   2.772  0.00  0.00    +0.156 A 
ATOM     20  C   UNL     1      21.787   7.584   2.020  0.00  0.00    +0.165 A 
ATOM     21  F   UNL     1      23.002   7.201   1.598  0.00  0.00    -0.202 F 
ATOM     22  C   UNL     1      21.354   8.872   1.712  0.00  0.00    +0.047 A 
BRANCH  19  23
ATOM     23  O   UNL     1      21.534   5.504   3.091  0.00  0.00    -0.489 OA
BRANCH  23  24
ATOM     24  C   UNL     1      21.245   4.455   2.166  0.00  0.00    +0.232 C 
BRANCH  24  25
ATOM     25  C   UNL     1      20.131   3.614   2.702  0.00  0.00    +0.027 C 
ATOM     26  C   UNL     1      20.060   2.156   2.322  0.00  0.00    +0.007 C 
ATOM     27  C   UNL     1      19.040   3.122   1.784  0.00  0.00    +0.007 C 
ENDBRANCH  24  25
ENDBRANCH  23  24
ENDBRANCH  19  23
ENDBRANCH   1  16
TORSDOF 6
ENDMDL
MODEL 7
REMARK VINA RESULT:      -5.7      3.627      8.908
REMARK  Name = ZINC000543478179
REMARK  8 active torsions:
REMARK  status: ('A' for Active; 'I' for Inactive)
REMARK    1  A    between atoms: C_1  and  C_2
REMARK    2  A    between atoms: C_2  and  N_3
REMARK    3  A    between atoms: N_9  and  C_10
REMARK    4  A    between atoms: C_10  and  C_11
REMARK    5  A    between atoms: C_10  and  C_12
REMARK    6  A    between atoms: C_15  and  O_16
REMARK    7  A    between atoms: O_16  and  C_17
REMARK    8  A    between atoms: C_17  and  C_18
REMARK                            x       y       z     vdW  Elec       q    Type
REMARK                         _______ _______ _______ _____ _____    ______ ____
ROOT
ATOM      1  C   UNL     1      35.352  24.267   9.520  0.00  0.00    +0.102 C 
ATOM      2  C   UNL     1      35.612  25.774   9.472  0.00  0.00    +0.033 C 
ENDROOT
BRANCH   1   9
ATOM      3  N   UNL     1      37.394  22.314   4.872  0.00  0.00    -0.299 N 
ATOM      4  C   UNL     1      38.227  21.546   5.796  0.00  0.00    +0.127 C 
ATOM      5  C   UNL     1      38.723  22.404   6.963  0.00  0.00    +0.129 C 
ATOM      6  N   UNL     1      37.589  23.000   7.677  0.00  0.00    -0.275 N 
ATOM      7  C   UNL     1      37.570  22.967   9.042  0.00  0.00    +0.303 C 
ATOM      8  O   UNL     1      38.475  22.428   9.687  0.00  0.00    -0.253 OA
ATOM      9  N   UNL     1      36.567  23.498   9.775  0.00  0.00    -0.293 N 
ATOM     10  C   UNL     1      36.581  23.600   6.817  0.00  0.00    +0.205 C 
ATOM     11  C   UNL     1      36.659  23.399   5.304  0.00  0.00    +0.233 C 
ATOM     12  O   UNL     1      35.983  24.105   4.551  0.00  0.00    -0.274 OA
ATOM     13  H   UNL     1      36.765  23.331  10.754  0.00  0.00    +0.151 HD
BRANCH   3  15
ATOM     14  C   UNL     1      38.554  22.339   2.717  0.00  0.00    +0.024 C 
ATOM     15  C   UNL     1      37.311  21.916   3.479  0.00  0.00    +0.104 C 
ENDBRANCH   3  15
ENDBRANCH   1   9
BRANCH   1  16
ATOM     16  C   UNL     1      34.284  23.903  10.535  0.00  0.00    -0.024 A 
ATOM     17  C   UNL     1      32.922  24.083  10.266  0.00  0.00    +0.009 A 
ATOM     18  C   UNL     1      31.955  23.762  11.220  0.00  0.00    +0.049 A 
ATOM     19  C   UNL     1      32.333  23.290  12.484  0.00  0.00    +0.156 A 
ATOM     20  C   UNL     1      33.685  23.075  12.738  0.00  0.00    +0.165 A 
ATOM     21  F   UNL     1      34.085  22.585  13.922  0.00  0.00    -0.202 F 
ATOM     22  C   UNL     1      34.656  23.386  11.787  0.00  0.00    +0.047 A 
BRANCH  19  23
ATOM     23  O   UNL     1      31.460  23.029  13.502  0.00  0.00    -0.489 OA
BRANCH  23  24
ATOM     24  C   UNL     1      31.063  21.662  13.620  0.00  0.00    +0.232 C 
BRANCH  24  25
ATOM     25  C   UNL     1      30.887  21.319  15.065  0.00  0.00    +0.027 C 
ATOM     26  C   UNL     1      31.648  22.101  16.106  0.00  0.00    +0.007 C 
ATOM     27  C   UNL     1      32.008  20.666  15.834  0.00  0.00    +0.007 C 
ENDBRANCH  24  25
ENDBRANCH  23  24
ENDBRANCH  19  23
ENDBRANCH   1  16
TORSDOF 6
ENDMDL
MODEL 8
REMARK VINA RESULT:      -5.7      2.619      4.226
REMARK  Name = ZINC000543478179
REMARK  8 active torsions:
REMARK  status: ('A' for Active; 'I' for Inactive)
REMARK    1  A    between atoms: C_1  and  C_2
REMARK    2  A    between atoms: C_2  and  N_3
REMARK    3  A    between atoms: N_9  and  C_10
REMARK    4  A    between atoms: C_10  and  C_11
REMARK    5  A    between atoms: C_10  and  C_12
REMARK    6  A    between atoms: C_15  and  O_16
REMARK    7  A    between atoms: O_16  and  C_17
REMARK    8  A    between atoms: C_17  and  C_18
REMARK                            x       y       z     vdW  Elec       q    Type
REMARK                         _______ _______ _______ _____ _____    ______ ____
ROOT
ATOM      1  C   UNL     1      34.929  24.013   9.640  0.00  0.00    +0.102 C 
ATOM      2  C   UNL     1      35.719  25.299   9.897  0.00  0.00    +0.033 C 
ENDROOT
BRANCH   1   9
ATOM      3  N   UNL     1      32.810  21.465  13.953  0.00  0.00    -0.299 N 
ATOM      4  C   UNL     1      31.556  21.796  13.278  0.00  0.00    +0.127 C 
ATOM      5  C   UNL     1      31.571  23.220  12.716  0.00  0.00    +0.129 C 
ATOM      6  N   UNL     1      32.701  23.395  11.799  0.00  0.00    -0.275 N 
ATOM      7  C   UNL     1      32.497  24.016  10.600  0.00  0.00    +0.303 C 
ATOM      8  O   UNL     1      31.377  24.414  10.262  0.00  0.00    -0.253 OA
ATOM      9  N   UNL     1      33.485  24.222   9.702  0.00  0.00    -0.293 N 
ATOM     10  C   UNL     1      33.969  22.885  12.297  0.00  0.00    +0.205 C 
ATOM     11  C   UNL     1      34.000  22.058  13.583  0.00  0.00    +0.233 C 
ATOM     12  O   UNL     1      35.071  21.846  14.157  0.00  0.00    -0.274 OA
ATOM     13  H   UNL     1      33.087  24.676   8.889  0.00  0.00    +0.151 HD
BRANCH   3  15
ATOM     14  C   UNL     1      31.580  20.600  15.884  0.00  0.00    +0.024 C 
ATOM     15  C   UNL     1      32.816  20.473  15.011  0.00  0.00    +0.104 C 
ENDBRANCH   3  15
ENDBRANCH   1   9
BRANCH   1  16
ATOM     16  C   UNL     1      35.304  23.367   8.319  0.00  0.00    -0.024 A 
ATOM     17  C   UNL     1      36.250  23.941   7.462  0.00  0.00    +0.009 A 
ATOM     18  C   UNL     1      36.568  23.343   6.241  0.00  0.00    +0.049 A 
ATOM     19  C   UNL     1      35.912  22.174   5.832  0.00  0.00    +0.156 A 
ATOM     20  C   UNL     1      35.000  21.582   6.701  0.00  0.00    +0.165 A 
ATOM     21  F   UNL     1      34.381  20.439   6.364  0.00  0.00    -0.202 F 
ATOM     22  C   UNL     1      34.684  22.169   7.925  0.00  0.00    +0.047 A 
BRANCH  19  23
ATOM     23  O   UNL     1      36.101  21.567   4.622  0.00  0.00    -0.489 OA
BRANCH  23  24
ATOM     24  C   UNL     1      37.400  21.744   4.055  0.00  0.00    +0.232 C 
BRANCH  24  25
ATOM     25  C   UNL     1      37.266  22.313   2.678  0.00  0.00    +0.027 C 
ATOM     26  C   UNL     1      38.452  22.275   1.747  0.00  0.00    +0.007 C 
ATOM     27  C   UNL     1      37.982  23.588   2.309  0.00  0.00    +0.007 C 
ENDBRANCH  24  25
ENDBRANCH  23  24
ENDBRANCH  19  23
ENDBRANCH   1  16
TORSDOF 6
ENDMDL
MODEL 9
REMARK VINA RESULT:      -5.7      3.341      8.321
REMARK  Name = ZINC000543478179
REMARK  8 active torsions:
REMARK  status: ('A' for Active; 'I' for Inactive)
REMARK    1  A    between atoms: C_1  and  C_2
REMARK    2  A    between atoms: C_2  and  N_3
REMARK    3  A    between atoms: N_9  and  C_10
REMARK    4  A    between atoms: C_10  and  C_11
REMARK    5  A    between atoms: C_10  and  C_12
REMARK    6  A    between atoms: C_15  and  O_16
REMARK    7  A    between atoms: O_16  and  C_17
REMARK    8  A    between atoms: C_17  and  C_18
REMARK                            x       y       z     vdW  Elec       q    Type
REMARK                         _______ _______ _______ _____ _____    ______ ____
ROOT
ATOM      1  C   UNL     1      35.920  25.023  10.128  0.00  0.00    +0.102 C 
ATOM      2  C   UNL     1      35.878  26.536  10.350  0.00  0.00    +0.033 C 
ENDROOT
BRANCH   1   9
ATOM      3  N   UNL     1      37.006  21.679   5.977  0.00  0.00    -0.299 N 
ATOM      4  C   UNL     1      38.161  21.347   6.810  0.00  0.00    +0.127 C 
ATOM      5  C   UNL     1      38.789  22.596   7.435  0.00  0.00    +0.129 C 
ATOM      6  N   UNL     1      37.792  23.331   8.219  0.00  0.00    -0.275 N 
ATOM      7  C   UNL     1      38.126  23.787   9.463  0.00  0.00    +0.303 C 
ATOM      8  O   UNL     1      39.242  23.574   9.949  0.00  0.00    -0.253 OA
ATOM      9  N   UNL     1      37.269  24.477  10.246  0.00  0.00    -0.293 N 
ATOM     10  C   UNL     1      36.513  23.518   7.551  0.00  0.00    +0.205 C 
ATOM     11  C   UNL     1      36.236  22.796   6.232  0.00  0.00    +0.233 C 
ATOM     12  O   UNL     1      35.284  23.140   5.526  0.00  0.00    -0.274 OA
ATOM     13  H   UNL     1      37.734  24.684  11.122  0.00  0.00    +0.151 HD
BRANCH   3  15
ATOM     14  C   UNL     1      35.785  19.649   5.365  0.00  0.00    +0.024 C 
ATOM     15  C   UNL     1      36.638  20.805   4.878  0.00  0.00    +0.104 C 
ENDBRANCH   3  15
ENDBRANCH   1   9
BRANCH   1  16
ATOM     16  C   UNL     1      34.976  24.283  11.058  0.00  0.00    -0.024 A 
ATOM     17  C   UNL     1      35.445  23.588  12.180  0.00  0.00    +0.009 A 
ATOM     18  C   UNL     1      34.565  22.897  13.013  0.00  0.00    +0.049 A 
ATOM     19  C   UNL     1      33.196  22.850  12.718  0.00  0.00    +0.156 A 
ATOM     20  C   UNL     1      32.725  23.572  11.624  0.00  0.00    +0.165 A 
ATOM     21  F   UNL     1      31.415  23.587  11.332  0.00  0.00    -0.202 F 
ATOM     22  C   UNL     1      33.597  24.272  10.792  0.00  0.00    +0.047 A 
BRANCH  19  23
ATOM     23  O   UNL     1      32.276  22.133  13.431  0.00  0.00    -0.489 OA
BRANCH  23  24
ATOM     24  C   UNL     1      31.790  22.777  14.608  0.00  0.00    +0.232 C 
BRANCH  24  25
ATOM     25  C   UNL     1      31.802  21.806  15.746  0.00  0.00    +0.027 C 
ATOM     26  C   UNL     1      31.667  20.332  15.457  0.00  0.00    +0.007 C 
ATOM     27  C   UNL     1      30.543  21.070  16.131  0.00  0.00    +0.007 C 
ENDBRANCH  24  25
ENDBRANCH  23  24
ENDBRANCH  19  23
ENDBRANCH   1  16
TORSDOF 6
ENDMDL
