MODEL 1
REMARK VINA RESULT:      -7.4      0.000      0.000
REMARK  Name = ZINC000543478179
REMARK  8 active torsions:
REMARK  status: ('A' for Active; 'I' for Inactive)
REMARK    1  A    between atoms: C_1  and  C_2
REMARK    2  A    between atoms: C_2  and  N_3
REMARK    3  A    between atoms: N_9  and  C_10
REMARK    4  A    between atoms: C_10  and  C_11
REMARK    5  A    between atoms: C_10  and  C_12
REMARK    6  A    between atoms: C_15  and  O_16
REMARK    7  A    between atoms: O_16  and  C_17
REMARK    8  A    between atoms: C_17  and  C_18
REMARK                            x       y       z     vdW  Elec       q    Type
REMARK                         _______ _______ _______ _____ _____    ______ ____
ROOT
ATOM      1  C   UNL     1      26.689  20.628  16.725  0.00  0.00    +0.102 C 
ATOM      2  C   UNL     1      26.211  19.176  16.643  0.00  0.00    +0.033 C 
ENDROOT
BRANCH   1   9
ATOM      3  N   UNL     1      23.450  24.910  17.594  0.00  0.00    -0.299 N 
ATOM      4  C   UNL     1      24.228  24.992  18.829  0.00  0.00    +0.127 C 
ATOM      5  C   UNL     1      24.450  23.612  19.454  0.00  0.00    +0.129 C 
ATOM      6  N   UNL     1      25.110  22.719  18.498  0.00  0.00    -0.275 N 
ATOM      7  C   UNL     1      26.159  21.951  18.917  0.00  0.00    +0.303 C 
ATOM      8  O   UNL     1      26.577  22.008  20.078  0.00  0.00    -0.253 OA
ATOM      9  N   UNL     1      26.816  21.098  18.102  0.00  0.00    -0.293 N 
ATOM     10  C   UNL     1      24.539  22.737  17.160  0.00  0.00    +0.205 C 
ATOM     11  C   UNL     1      23.481  23.780  16.802  0.00  0.00    +0.233 C 
ATOM     12  O   UNL     1      22.803  23.649  15.779  0.00  0.00    -0.274 OA
ATOM     13  H   UNL     1      27.562  20.662  18.630  0.00  0.00    +0.151 HD
BRANCH   3  15
ATOM     14  C   UNL     1      21.423  26.203  18.049  0.00  0.00    +0.024 C 
ATOM     15  C   UNL     1      22.651  26.045  17.172  0.00  0.00    +0.104 C 
ENDBRANCH   3  15
ENDBRANCH   1   9
BRANCH   1  16
ATOM     16  C   UNL     1      27.994  20.842  15.979  0.00  0.00    -0.024 A 
ATOM     17  C   UNL     1      28.815  21.946  16.238  0.00  0.00    +0.009 A 
ATOM     18  C   UNL     1      30.002  22.137  15.529  0.00  0.00    +0.049 A 
ATOM     19  C   UNL     1      30.373  21.247  14.512  0.00  0.00    +0.156 A 
ATOM     20  C   UNL     1      29.576  20.129  14.281  0.00  0.00    +0.165 A 
ATOM     21  F   UNL     1      29.918  19.231  13.344  0.00  0.00    -0.202 F 
ATOM     22  C   UNL     1      28.394  19.927  14.991  0.00  0.00    +0.047 A 
BRANCH  19  23
ATOM     23  O   UNL     1      31.472  21.401  13.715  0.00  0.00    -0.489 OA
BRANCH  23  24
ATOM     24  C   UNL     1      31.746  22.745  13.320  0.00  0.00    +0.232 C 
BRANCH  24  25
ATOM     25  C   UNL     1      30.875  23.109  12.160  0.00  0.00    +0.027 C 
ATOM     26  C   UNL     1      31.486  23.801  10.968  0.00  0.00    +0.007 C 
ATOM     27  C   UNL     1      30.551  24.554  11.875  0.00  0.00    +0.007 C 
ENDBRANCH  24  25
ENDBRANCH  23  24
ENDBRANCH  19  23
ENDBRANCH   1  16
TORSDOF 6
ENDMDL
MODEL 2
REMARK VINA RESULT:      -6.6      1.803      2.435
REMARK  Name = ZINC000543478179
REMARK  8 active torsions:
REMARK  status: ('A' for Active; 'I' for Inactive)
REMARK    1  A    between atoms: C_1  and  C_2
REMARK    2  A    between atoms: C_2  and  N_3
REMARK    3  A    between atoms: N_9  and  C_10
REMARK    4  A    between atoms: C_10  and  C_11
REMARK    5  A    between atoms: C_10  and  C_12
REMARK    6  A    between atoms: C_15  and  O_16
REMARK    7  A    between atoms: O_16  and  C_17
REMARK    8  A    between atoms: C_17  and  C_18
REMARK                            x       y       z     vdW  Elec       q    Type
REMARK                         _______ _______ _______ _____ _____    ______ ____
ROOT
ATOM      1  C   UNL     1      26.772  20.599  16.745  0.00  0.00    +0.102 C 
ATOM      2  C   UNL     1      26.030  19.263  16.666  0.00  0.00    +0.033 C 
ENDROOT
BRANCH   1   9
ATOM      3  N   UNL     1      23.502  24.860  17.606  0.00  0.00    -0.299 N 
ATOM      4  C   UNL     1      24.291  24.961  18.833  0.00  0.00    +0.127 C 
ATOM      5  C   UNL     1      24.532  23.589  19.469  0.00  0.00    +0.129 C 
ATOM      6  N   UNL     1      25.191  22.692  18.514  0.00  0.00    -0.275 N 
ATOM      7  C   UNL     1      26.251  21.938  18.930  0.00  0.00    +0.303 C 
ATOM      8  O   UNL     1      26.679  22.010  20.087  0.00  0.00    -0.253 OA
ATOM      9  N   UNL     1      26.908  21.083  18.116  0.00  0.00    -0.293 N 
ATOM     10  C   UNL     1      24.607  22.692  17.181  0.00  0.00    +0.205 C 
ATOM     11  C   UNL     1      23.536  23.723  16.824  0.00  0.00    +0.233 C 
ATOM     12  O   UNL     1      22.850  23.576  15.809  0.00  0.00    -0.274 OA
ATOM     13  H   UNL     1      27.663  20.660  18.642  0.00  0.00    +0.151 HD
BRANCH   3  15
ATOM     14  C   UNL     1      21.463  26.133  18.063  0.00  0.00    +0.024 C 
ATOM     15  C   UNL     1      22.689  25.984  17.181  0.00  0.00    +0.104 C 
ENDBRANCH   3  15
ENDBRANCH   1   9
BRANCH   1  16
ATOM     16  C   UNL     1      28.134  20.537  16.079  0.00  0.00    -0.024 A 
ATOM     17  C   UNL     1      28.427  19.588  15.092  0.00  0.00    +0.009 A 
ATOM     18  C   UNL     1      29.692  19.532  14.505  0.00  0.00    +0.049 A 
ATOM     19  C   UNL     1      30.708  20.402  14.923  0.00  0.00    +0.156 A 
ATOM     20  C   UNL     1      30.406  21.371  15.876  0.00  0.00    +0.165 A 
ATOM     21  F   UNL     1      31.340  22.249  16.273  0.00  0.00    -0.202 F 
ATOM     22  C   UNL     1      29.143  21.437  16.461  0.00  0.00    +0.047 A 
BRANCH  19  23
ATOM     23  O   UNL     1      31.994  20.364  14.461  0.00  0.00    -0.489 OA
BRANCH  23  24
ATOM     24  C   UNL     1      32.123  20.205  13.048  0.00  0.00    +0.232 C 
BRANCH  24  25
ATOM     25  C   UNL     1      32.745  18.877  12.753  0.00  0.00    +0.027 C 
ATOM     26  C   UNL     1      33.067  18.516  11.325  0.00  0.00    +0.007 C 
ATOM     27  C   UNL     1      31.954  17.806  12.046  0.00  0.00    +0.007 C 
ENDBRANCH  24  25
ENDBRANCH  23  24
ENDBRANCH  19  23
ENDBRANCH   1  16
TORSDOF 6
ENDMDL
MODEL 3
REMARK VINA RESULT:      -6.4      4.476      6.994
REMARK  Name = ZINC000543478179
REMARK  8 active torsions:
REMARK  status: ('A' for Active; 'I' for Inactive)
REMARK    1  A    between atoms: C_1  and  C_2
REMARK    2  A    between atoms: C_2  and  N_3
REMARK    3  A    between atoms: N_9  and  C_10
REMARK    4  A    between atoms: C_10  and  C_11
REMARK    5  A    between atoms: C_10  and  C_12
REMARK    6  A    between atoms: C_15  and  O_16
REMARK    7  A    between atoms: O_16  and  C_17
REMARK    8  A    between atoms: C_17  and  C_18
REMARK                            x       y       z     vdW  Elec       q    Type
REMARK                         _______ _______ _______ _____ _____    ______ ____
ROOT
ATOM      1  C   UNL     1      30.102  20.629  15.089  0.00  0.00    +0.102 C 
ATOM      2  C   UNL     1      30.027  21.614  13.920  0.00  0.00    +0.033 C 
ENDROOT
BRANCH   1   9
ATOM      3  N   UNL     1      31.511  23.249  19.644  0.00  0.00    -0.299 N 
ATOM      4  C   UNL     1      30.203  22.768  20.084  0.00  0.00    +0.127 C 
ATOM      5  C   UNL     1      29.143  22.918  18.990  0.00  0.00    +0.129 C 
ATOM      6  N   UNL     1      29.560  22.211  17.775  0.00  0.00    -0.275 N 
ATOM      7  C   UNL     1      28.658  21.422  17.119  0.00  0.00    +0.303 C 
ATOM      8  O   UNL     1      27.505  21.275  17.539  0.00  0.00    -0.253 OA
ATOM      9  N   UNL     1      28.959  20.743  15.991  0.00  0.00    -0.293 N 
ATOM     10  C   UNL     1      30.938  22.454  17.377  0.00  0.00    +0.205 C 
ATOM     11  C   UNL     1      31.873  23.221  18.312  0.00  0.00    +0.233 C 
ATOM     12  O   UNL     1      32.945  23.662  17.890  0.00  0.00    -0.274 OA
ATOM     13  H   UNL     1      28.142  20.217  15.708  0.00  0.00    +0.151 HD
BRANCH   3  15
ATOM     14  C   UNL     1      32.397  22.923  21.901  0.00  0.00    +0.024 C 
ATOM     15  C   UNL     1      32.463  23.738  20.623  0.00  0.00    +0.104 C 
ENDBRANCH   3  15
ENDBRANCH   1   9
BRANCH   1  16
ATOM     16  C   UNL     1      30.252  19.194  14.619  0.00  0.00    -0.024 A 
ATOM     17  C   UNL     1      31.459  18.714  14.096  0.00  0.00    +0.009 A 
ATOM     18  C   UNL     1      31.571  17.397  13.649  0.00  0.00    +0.049 A 
ATOM     19  C   UNL     1      30.463  16.540  13.677  0.00  0.00    +0.156 A 
ATOM     20  C   UNL     1      29.274  17.005  14.233  0.00  0.00    +0.165 A 
ATOM     21  F   UNL     1      28.201  16.202  14.316  0.00  0.00    -0.202 F 
ATOM     22  C   UNL     1      29.156  18.317  14.688  0.00  0.00    +0.047 A 
BRANCH  19  23
ATOM     23  O   UNL     1      30.462  15.264  13.187  0.00  0.00    -0.489 OA
BRANCH  23  24
ATOM     24  C   UNL     1      31.728  14.606  13.215  0.00  0.00    +0.232 C 
BRANCH  24  25
ATOM     25  C   UNL     1      31.963  13.925  11.904  0.00  0.00    +0.027 C 
ATOM     26  C   UNL     1      30.855  13.108  11.290  0.00  0.00    +0.007 C 
ATOM     27  C   UNL     1      32.077  12.423  11.836  0.00  0.00    +0.007 C 
ENDBRANCH  24  25
ENDBRANCH  23  24
ENDBRANCH  19  23
ENDBRANCH   1  16
TORSDOF 6
ENDMDL
MODEL 4
REMARK VINA RESULT:      -6.4      3.371      8.439
REMARK  Name = ZINC000543478179
REMARK  8 active torsions:
REMARK  status: ('A' for Active; 'I' for Inactive)
REMARK    1  A    between atoms: C_1  and  C_2
REMARK    2  A    between atoms: C_2  and  N_3
REMARK    3  A    between atoms: N_9  and  C_10
REMARK    4  A    between atoms: C_10  and  C_11
REMARK    5  A    between atoms: C_10  and  C_12
REMARK    6  A    between atoms: C_15  and  O_16
REMARK    7  A    between atoms: O_16  and  C_17
REMARK    8  A    between atoms: C_17  and  C_18
REMARK                            x       y       z     vdW  Elec       q    Type
REMARK                         _______ _______ _______ _____ _____    ______ ____
ROOT
ATOM      1  C   UNL     1      29.791  20.429  14.648  0.00  0.00    +0.102 C 
ATOM      2  C   UNL     1      29.374  19.069  14.082  0.00  0.00    +0.033 C 
ENDROOT
BRANCH   1   9
ATOM      3  N   UNL     1      34.214  23.564  15.088  0.00  0.00    -0.299 N 
ATOM      4  C   UNL     1      33.464  24.404  14.156  0.00  0.00    +0.127 C 
ATOM      5  C   UNL     1      32.784  23.575  13.063  0.00  0.00    +0.129 C 
ATOM      6  N   UNL     1      31.903  22.567  13.660  0.00  0.00    -0.275 N 
ATOM      7  C   UNL     1      30.648  22.393  13.149  0.00  0.00    +0.303 C 
ATOM      8  O   UNL     1      30.233  23.080  12.210  0.00  0.00    -0.253 OA
ATOM      9  N   UNL     1      29.777  21.483  13.637  0.00  0.00    -0.293 N 
ATOM     10  C   UNL     1      32.493  21.823  14.761  0.00  0.00    +0.205 C 
ATOM     11  C   UNL     1      33.844  22.256  15.330  0.00  0.00    +0.233 C 
ATOM     12  O   UNL     1      34.477  21.498  16.069  0.00  0.00    -0.274 OA
ATOM     13  H   UNL     1      28.912  21.557  13.114  0.00  0.00    +0.151 HD
BRANCH   3  15
ATOM     14  C   UNL     1      35.658  25.525  15.321  0.00  0.00    +0.024 C 
ATOM     15  C   UNL     1      35.352  24.117  15.797  0.00  0.00    +0.104 C 
ENDBRANCH   3  15
ENDBRANCH   1   9
BRANCH   1  16
ATOM     16  C   UNL     1      28.941  20.838  15.837  0.00  0.00    -0.024 A 
ATOM     17  C   UNL     1      27.588  20.490  15.928  0.00  0.00    +0.009 A 
ATOM     18  C   UNL     1      26.817  20.892  17.020  0.00  0.00    +0.049 A 
ATOM     19  C   UNL     1      27.375  21.690  18.028  0.00  0.00    +0.156 A 
ATOM     20  C   UNL     1      28.730  22.004  17.957  0.00  0.00    +0.165 A 
ATOM     21  F   UNL     1      29.312  22.731  18.923  0.00  0.00    -0.202 F 
ATOM     22  C   UNL     1      29.508  21.599  16.874  0.00  0.00    +0.047 A 
BRANCH  19  23
ATOM     23  O   UNL     1      26.676  22.195  19.088  0.00  0.00    -0.489 OA
BRANCH  23  24
ATOM     24  C   UNL     1      25.256  22.129  18.959  0.00  0.00    +0.232 C 
BRANCH  24  25
ATOM     25  C   UNL     1      24.672  23.483  19.210  0.00  0.00    +0.027 C 
ATOM     26  C   UNL     1      23.188  23.613  19.448  0.00  0.00    +0.007 C 
ATOM     27  C   UNL     1      23.792  24.137  18.174  0.00  0.00    +0.007 C 
ENDBRANCH  24  25
ENDBRANCH  23  24
ENDBRANCH  19  23
ENDBRANCH   1  16
TORSDOF 6
ENDMDL
MODEL 5
REMARK VINA RESULT:      -6.3      5.755      8.444
REMARK  Name = ZINC000543478179
REMARK  8 active torsions:
REMARK  status: ('A' for Active; 'I' for Inactive)
REMARK    1  A    between atoms: C_1  and  C_2
REMARK    2  A    between atoms: C_2  and  N_3
REMARK    3  A    between atoms: N_9  and  C_10
REMARK    4  A    between atoms: C_10  and  C_11
REMARK    5  A    between atoms: C_10  and  C_12
REMARK    6  A    between atoms: C_15  and  O_16
REMARK    7  A    between atoms: O_16  and  C_17
REMARK    8  A    between atoms: C_17  and  C_18
REMARK                            x       y       z     vdW  Elec       q    Type
REMARK                         _______ _______ _______ _____ _____    ______ ____
ROOT
ATOM      1  C   UNL     1      31.313  21.462  14.179  0.00  0.00    +0.102 C 
ATOM      2  C   UNL     1      31.278  22.116  15.562  0.00  0.00    +0.033 C 
ENDROOT
BRANCH   1   9
ATOM      3  N   UNL     1      31.880  16.052  14.252  0.00  0.00    -0.299 N 
ATOM      4  C   UNL     1      30.565  16.108  13.615  0.00  0.00    +0.127 C 
ATOM      5  C   UNL     1      29.656  17.147  14.277  0.00  0.00    +0.129 C 
ATOM      6  N   UNL     1      30.289  18.470  14.252  0.00  0.00    -0.275 N 
ATOM      7  C   UNL     1      29.548  19.556  13.881  0.00  0.00    +0.303 C 
ATOM      8  O   UNL     1      28.364  19.445  13.546  0.00  0.00    -0.253 OA
ATOM      9  N   UNL     1      30.053  20.808  13.837  0.00  0.00    -0.293 N 
ATOM     10  C   UNL     1      31.685  18.480  14.660  0.00  0.00    +0.205 C 
ATOM     11  C   UNL     1      32.421  17.158  14.876  0.00  0.00    +0.233 C 
ATOM     12  O   UNL     1      33.503  17.142  15.468  0.00  0.00    -0.274 OA
ATOM     13  H   UNL     1      29.325  21.434  13.514  0.00  0.00    +0.151 HD
BRANCH   3  15
ATOM     14  C   UNL     1      32.108  13.884  13.141  0.00  0.00    +0.024 C 
ATOM     15  C   UNL     1      32.649  14.823  14.203  0.00  0.00    +0.104 C 
ENDBRANCH   3  15
ENDBRANCH   1   9
BRANCH   1  16
ATOM     16  C   UNL     1      31.699  22.447  13.091  0.00  0.00    -0.024 A 
ATOM     17  C   UNL     1      33.028  22.604  12.679  0.00  0.00    +0.009 A 
ATOM     18  C   UNL     1      33.367  23.530  11.691  0.00  0.00    +0.049 A 
ATOM     19  C   UNL     1      32.385  24.351  11.120  0.00  0.00    +0.156 A 
ATOM     20  C   UNL     1      31.058  24.167  11.502  0.00  0.00    +0.165 A 
ATOM     21  F   UNL     1      30.083  24.905  10.948  0.00  0.00    -0.202 F 
ATOM     22  C   UNL     1      30.711  23.239  12.482  0.00  0.00    +0.047 A 
BRANCH  19  23
ATOM     23  O   UNL     1      32.638  25.337  10.208  0.00  0.00    -0.489 OA
BRANCH  23  24
ATOM     24  C   UNL     1      33.527  24.968   9.153  0.00  0.00    +0.232 C 
BRANCH  24  25
ATOM     25  C   UNL     1      32.784  24.156   8.140  0.00  0.00    +0.027 C 
ATOM     26  C   UNL     1      32.915  22.654   8.159  0.00  0.00    +0.007 C 
ATOM     27  C   UNL     1      33.530  23.446   7.038  0.00  0.00    +0.007 C 
ENDBRANCH  24  25
ENDBRANCH  23  24
ENDBRANCH  19  23
ENDBRANCH   1  16
TORSDOF 6
ENDMDL
MODEL 6
REMARK VINA RESULT:      -6.2      4.274      9.523
REMARK  Name = ZINC000543478179
REMARK  8 active torsions:
REMARK  status: ('A' for Active; 'I' for Inactive)
REMARK    1  A    between atoms: C_1  and  C_2
REMARK    2  A    between atoms: C_2  and  N_3
REMARK    3  A    between atoms: N_9  and  C_10
REMARK    4  A    between atoms: C_10  and  C_11
REMARK    5  A    between atoms: C_10  and  C_12
REMARK    6  A    between atoms: C_15  and  O_16
REMARK    7  A    between atoms: O_16  and  C_17
REMARK    8  A    between atoms: C_17  and  C_18
REMARK                            x       y       z     vdW  Elec       q    Type
REMARK                         _______ _______ _______ _____ _____    ______ ____
ROOT
ATOM      1  C   UNL     1      29.263  19.298  15.107  0.00  0.00    +0.102 C 
ATOM      2  C   UNL     1      28.508  19.192  13.780  0.00  0.00    +0.033 C 
ENDROOT
BRANCH   1   9
ATOM      3  N   UNL     1      32.691  15.509  13.242  0.00  0.00    -0.299 N 
ATOM      4  C   UNL     1      33.683  16.524  13.589  0.00  0.00    +0.127 C 
ATOM      5  C   UNL     1      33.232  17.927  13.173  0.00  0.00    +0.129 C 
ATOM      6  N   UNL     1      31.939  18.250  13.785  0.00  0.00    -0.275 N 
ATOM      7  C   UNL     1      31.764  19.475  14.365  0.00  0.00    +0.303 C 
ATOM      8  O   UNL     1      32.676  20.307  14.402  0.00  0.00    -0.253 OA
ATOM      9  N   UNL     1      30.604  19.853  14.944  0.00  0.00    -0.293 N 
ATOM     10  C   UNL     1      30.942  17.195  13.687  0.00  0.00    +0.205 C 
ATOM     11  C   UNL     1      31.347  15.817  13.166  0.00  0.00    +0.233 C 
ATOM     12  O   UNL     1      30.482  15.004  12.828  0.00  0.00    -0.274 OA
ATOM     13  H   UNL     1      30.724  20.786  15.320  0.00  0.00    +0.151 HD
BRANCH   3  15
ATOM     14  C   UNL     1      33.633  13.974  11.585  0.00  0.00    +0.024 C 
ATOM     15  C   UNL     1      33.115  14.142  13.002  0.00  0.00    +0.104 C 
ENDBRANCH   3  15
ENDBRANCH   1   9
BRANCH   1  16
ATOM     16  C   UNL     1      28.491  20.098  16.141  0.00  0.00    -0.024 A 
ATOM     17  C   UNL     1      27.096  20.025  16.235  0.00  0.00    +0.009 A 
ATOM     18  C   UNL     1      26.402  20.784  17.179  0.00  0.00    +0.049 A 
ATOM     19  C   UNL     1      27.088  21.666  18.025  0.00  0.00    +0.156 A 
ATOM     20  C   UNL     1      28.478  21.709  17.957  0.00  0.00    +0.165 A 
ATOM     21  F   UNL     1      29.174  22.511  18.779  0.00  0.00    -0.202 F 
ATOM     22  C   UNL     1      29.179  20.949  17.023  0.00  0.00    +0.047 A 
BRANCH  19  23
ATOM     23  O   UNL     1      26.483  22.503  18.920  0.00  0.00    -0.489 OA
BRANCH  23  24
ATOM     24  C   UNL     1      25.083  22.288  19.095  0.00  0.00    +0.232 C 
BRANCH  24  25
ATOM     25  C   UNL     1      24.361  23.593  18.970  0.00  0.00    +0.027 C 
ATOM     26  C   UNL     1      23.287  23.939  19.970  0.00  0.00    +0.007 C 
ATOM     27  C   UNL     1      22.914  23.625  18.547  0.00  0.00    +0.007 C 
ENDBRANCH  24  25
ENDBRANCH  23  24
ENDBRANCH  19  23
ENDBRANCH   1  16
TORSDOF 6
ENDMDL
MODEL 7
REMARK VINA RESULT:      -6.2      4.382      7.586
REMARK  Name = ZINC000543478179
REMARK  8 active torsions:
REMARK  status: ('A' for Active; 'I' for Inactive)
REMARK    1  A    between atoms: C_1  and  C_2
REMARK    2  A    between atoms: C_2  and  N_3
REMARK    3  A    between atoms: N_9  and  C_10
REMARK    4  A    between atoms: C_10  and  C_11
REMARK    5  A    between atoms: C_10  and  C_12
REMARK    6  A    between atoms: C_15  and  O_16
REMARK    7  A    between atoms: O_16  and  C_17
REMARK    8  A    between atoms: C_17  and  C_18
REMARK                            x       y       z     vdW  Elec       q    Type
REMARK                         _______ _______ _______ _____ _____    ______ ____
ROOT
ATOM      1  C   UNL     1      28.676  20.222  15.832  0.00  0.00    +0.102 C 
ATOM      2  C   UNL     1      27.259  20.167  16.406  0.00  0.00    +0.033 C 
ENDROOT
BRANCH   1   9
ATOM      3  N   UNL     1      32.725  23.053  13.556  0.00  0.00    -0.299 N 
ATOM      4  C   UNL     1      33.351  22.816  14.855  0.00  0.00    +0.127 C 
ATOM      5  C   UNL     1      32.361  23.009  16.007  0.00  0.00    +0.129 C 
ATOM      6  N   UNL     1      31.200  22.130  15.835  0.00  0.00    -0.275 N 
ATOM      7  C   UNL     1      30.737  21.420  16.907  0.00  0.00    +0.303 C 
ATOM      8  O   UNL     1      31.288  21.486  18.011  0.00  0.00    -0.253 OA
ATOM      9  N   UNL     1      29.671  20.593  16.835  0.00  0.00    -0.293 N 
ATOM     10  C   UNL     1      30.637  22.125  14.494  0.00  0.00    +0.205 C 
ATOM     11  C   UNL     1      31.375  22.837  13.361  0.00  0.00    +0.233 C 
ATOM     12  O   UNL     1      30.797  23.071  12.296  0.00  0.00    -0.274 OA
ATOM     13  H   UNL     1      29.537  20.166  17.743  0.00  0.00    +0.151 HD
BRANCH   3  15
ATOM     14  C   UNL     1      34.253  22.321  11.790  0.00  0.00    +0.024 C 
ATOM     15  C   UNL     1      33.537  23.493  12.437  0.00  0.00    +0.104 C 
ENDBRANCH   3  15
ENDBRANCH   1   9
BRANCH   1  16
ATOM     16  C   UNL     1      29.073  18.918  15.164  0.00  0.00    -0.024 A 
ATOM     17  C   UNL     1      30.370  18.703  14.683  0.00  0.00    +0.009 A 
ATOM     18  C   UNL     1      30.711  17.505  14.053  0.00  0.00    +0.049 A 
ATOM     19  C   UNL     1      29.746  16.508  13.854  0.00  0.00    +0.156 A 
ATOM     20  C   UNL     1      28.467  16.706  14.367  0.00  0.00    +0.165 A 
ATOM     21  F   UNL     1      27.526  15.757  14.234  0.00  0.00    -0.202 F 
ATOM     22  C   UNL     1      28.122  17.896  15.004  0.00  0.00    +0.047 A 
BRANCH  19  23
ATOM     23  O   UNL     1      29.971  15.341  13.178  0.00  0.00    -0.489 OA
BRANCH  23  24
ATOM     24  C   UNL     1      31.330  15.114  12.803  0.00  0.00    +0.232 C 
BRANCH  24  25
ATOM     25  C   UNL     1      31.437  13.799  12.099  0.00  0.00    +0.027 C 
ATOM     26  C   UNL     1      32.616  12.904  12.387  0.00  0.00    +0.007 C 
ATOM     27  C   UNL     1      32.497  13.582  11.049  0.00  0.00    +0.007 C 
ENDBRANCH  24  25
ENDBRANCH  23  24
ENDBRANCH  19  23
ENDBRANCH   1  16
TORSDOF 6
ENDMDL
MODEL 8
REMARK VINA RESULT:      -6.2      7.552     12.122
REMARK  Name = ZINC000543478179
REMARK  8 active torsions:
REMARK  status: ('A' for Active; 'I' for Inactive)
REMARK    1  A    between atoms: C_1  and  C_2
REMARK    2  A    between atoms: C_2  and  N_3
REMARK    3  A    between atoms: N_9  and  C_10
REMARK    4  A    between atoms: C_10  and  C_11
REMARK    5  A    between atoms: C_10  and  C_12
REMARK    6  A    between atoms: C_15  and  O_16
REMARK    7  A    between atoms: O_16  and  C_17
REMARK    8  A    between atoms: C_17  and  C_18
REMARK                            x       y       z     vdW  Elec       q    Type
REMARK                         _______ _______ _______ _____ _____    ______ ____
ROOT
ATOM      1  C   UNL     1      33.069  15.600  14.441  0.00  0.00    +0.102 C 
ATOM      2  C   UNL     1      34.027  16.042  15.550  0.00  0.00    +0.033 C 
ENDROOT
BRANCH   1   9
ATOM      3  N   UNL     1      35.233  12.476  10.550  0.00  0.00    -0.299 N 
ATOM      4  C   UNL     1      34.270  11.508  11.072  0.00  0.00    +0.127 C 
ATOM      5  C   UNL     1      34.225  11.519  12.602  0.00  0.00    +0.129 C 
ATOM      6  N   UNL     1      33.911  12.864  13.095  0.00  0.00    -0.275 N 
ATOM      7  C   UNL     1      32.979  13.011  14.083  0.00  0.00    +0.303 C 
ATOM      8  O   UNL     1      32.381  12.039  14.555  0.00  0.00    -0.253 OA
ATOM      9  N   UNL     1      32.638  14.213  14.596  0.00  0.00    -0.293 N 
ATOM     10  C   UNL     1      34.671  13.932  12.464  0.00  0.00    +0.205 C 
ATOM     11  C   UNL     1      35.547  13.623  11.250  0.00  0.00    +0.233 C 
ATOM     12  O   UNL     1      36.390  14.440  10.871  0.00  0.00    -0.274 OA
ATOM     13  H   UNL     1      31.917  14.069  15.293  0.00  0.00    +0.151 HD
BRANCH   3  15
ATOM     14  C   UNL     1      35.905  10.766   8.933  0.00  0.00    +0.024 C 
ATOM     15  C   UNL     1      35.852  12.248   9.257  0.00  0.00    +0.104 C 
ENDBRANCH   3  15
ENDBRANCH   1   9
BRANCH   1  16
ATOM     16  C   UNL     1      31.860  16.511  14.333  0.00  0.00    -0.024 A 
ATOM     17  C   UNL     1      31.982  17.904  14.395  0.00  0.00    +0.009 A 
ATOM     18  C   UNL     1      30.857  18.726  14.315  0.00  0.00    +0.049 A 
ATOM     19  C   UNL     1      29.576  18.168  14.211  0.00  0.00    +0.156 A 
ATOM     20  C   UNL     1      29.458  16.784  14.111  0.00  0.00    +0.165 A 
ATOM     21  F   UNL     1      28.251  16.212  13.969  0.00  0.00    -0.202 F 
ATOM     22  C   UNL     1      30.578  15.957  14.183  0.00  0.00    +0.047 A 
BRANCH  19  23
ATOM     23  O   UNL     1      28.416  18.892  14.208  0.00  0.00    -0.489 OA
BRANCH  23  24
ATOM     24  C   UNL     1      28.365  19.951  15.163  0.00  0.00    +0.232 C 
BRANCH  24  25
ATOM     25  C   UNL     1      27.698  19.463  16.410  0.00  0.00    +0.027 C 
ATOM     26  C   UNL     1      26.454  18.618  16.297  0.00  0.00    +0.007 C 
ATOM     27  C   UNL     1      26.361  20.023  16.827  0.00  0.00    +0.007 C 
ENDBRANCH  24  25
ENDBRANCH  23  24
ENDBRANCH  19  23
ENDBRANCH   1  16
TORSDOF 6
ENDMDL
MODEL 9
REMARK VINA RESULT:      -6.1      6.228      8.697
REMARK  Name = ZINC000543478179
REMARK  8 active torsions:
REMARK  status: ('A' for Active; 'I' for Inactive)
REMARK    1  A    between atoms: C_1  and  C_2
REMARK    2  A    between atoms: C_2  and  N_3
REMARK    3  A    between atoms: N_9  and  C_10
REMARK    4  A    between atoms: C_10  and  C_11
REMARK    5  A    between atoms: C_10  and  C_12
REMARK    6  A    between atoms: C_15  and  O_16
REMARK    7  A    between atoms: O_16  and  C_17
REMARK    8  A    between atoms: C_17  and  C_18
REMARK                            x       y       z     vdW  Elec       q    Type
REMARK                         _______ _______ _______ _____ _____    ______ ____
ROOT
ATOM      1  C   UNL     1      32.772  21.510  19.526  0.00  0.00    +0.102 C 
ATOM      2  C   UNL     1      33.178  20.057  19.783  0.00  0.00    +0.033 C 
ENDROOT
BRANCH   1   9
ATOM      3  N   UNL     1      34.296  25.350  23.064  0.00  0.00    -0.299 N 
ATOM      4  C   UNL     1      35.041  25.838  21.904  0.00  0.00    +0.127 C 
ATOM      5  C   UNL     1      35.710  24.695  21.136  0.00  0.00    +0.129 C 
ATOM      6  N   UNL     1      34.711  23.706  20.719  0.00  0.00    -0.275 N 
ATOM      7  C   UNL     1      34.745  23.224  19.441  0.00  0.00    +0.303 C 
ATOM      8  O   UNL     1      35.585  23.617  18.625  0.00  0.00    -0.253 OA
ATOM      9  N   UNL     1      33.866  22.307  18.980  0.00  0.00    -0.293 N 
ATOM     10  C   UNL     1      33.770  23.321  21.759  0.00  0.00    +0.205 C 
ATOM     11  C   UNL     1      33.752  24.081  23.084  0.00  0.00    +0.233 C 
ATOM     12  O   UNL     1      33.160  23.612  24.060  0.00  0.00    -0.274 OA
ATOM     13  H   UNL     1      34.078  22.125  18.006  0.00  0.00    +0.151 HD
BRANCH   3  15
ATOM     14  C   UNL     1      34.927  27.484  24.081  0.00  0.00    +0.024 C 
ATOM     15  C   UNL     1      34.095  26.221  24.207  0.00  0.00    +0.104 C 
ENDBRANCH   3  15
ENDBRANCH   1   9
BRANCH   1  16
ATOM     16  C   UNL     1      31.554  21.612  18.627  0.00  0.00    -0.024 A 
ATOM     17  C   UNL     1      30.446  22.394  18.975  0.00  0.00    +0.009 A 
ATOM     18  C   UNL     1      29.327  22.459  18.145  0.00  0.00    +0.049 A 
ATOM     19  C   UNL     1      29.274  21.709  16.962  0.00  0.00    +0.156 A 
ATOM     20  C   UNL     1      30.391  20.962  16.597  0.00  0.00    +0.165 A 
ATOM     21  F   UNL     1      30.396  20.262  15.451  0.00  0.00    -0.202 F 
ATOM     22  C   UNL     1      31.516  20.898  17.417  0.00  0.00    +0.047 A 
BRANCH  19  23
ATOM     23  O   UNL     1      28.189  21.650  16.133  0.00  0.00    -0.489 OA
BRANCH  23  24
ATOM     24  C   UNL     1      27.003  21.125  16.728  0.00  0.00    +0.232 C 
BRANCH  24  25
ATOM     25  C   UNL     1      27.158  19.651  16.927  0.00  0.00    +0.027 C 
ATOM     26  C   UNL     1      27.410  18.769  15.730  0.00  0.00    +0.007 C 
ATOM     27  C   UNL     1      26.089  18.702  16.447  0.00  0.00    +0.007 C 
ENDBRANCH  24  25
ENDBRANCH  23  24
ENDBRANCH  19  23
ENDBRANCH   1  16
TORSDOF 6
ENDMDL
