MODEL 1
REMARK VINA RESULT:      -6.4      0.000      0.000
REMARK  Name = ZINC000583127796
REMARK  2 active torsions:
REMARK  status: ('A' for Active; 'I' for Inactive)
REMARK    1  A    between atoms: C_2  and  C_4
REMARK    2  A    between atoms: C_7  and  C_8
REMARK                            x       y       z     vdW  Elec       q    Type
REMARK                         _______ _______ _______ _____ _____    ______ ____
ROOT
ATOM      1  C   UNL     1      32.228  22.876  14.241  0.00  0.00    +0.247 C 
ATOM      2  O   UNL     1      33.144  22.127  14.575  0.00  0.00    -0.270 OA
ATOM      3  N   UNL     1      32.393  23.904  13.298  0.00  0.00    -0.297 N 
ATOM      4  C   UNL     1      31.362  24.836  12.836  0.00  0.00    +0.108 C 
ATOM      5  C   UNL     1      31.217  24.837  11.325  0.00  0.00    +0.020 C 
ATOM      6  C   UNL     1      32.557  25.017  10.636  0.00  0.00    +0.011 C 
ATOM      7  C   UNL     1      33.627  24.010  11.126  0.00  0.00    -0.004 C 
ATOM      8  C   UNL     1      34.957  24.397  10.443  0.00  0.00    +0.020 C 
ATOM      9  C   UNL     1      35.871  23.192  10.381  0.00  0.00    +0.070 C 
ATOM     10  S   UNL     1      34.774  21.830   9.957  0.00  0.00    -0.160 S 
ATOM     11  C   UNL     1      33.284  22.568  10.685  0.00  0.00    +0.077 C 
ATOM     12  C   UNL     1      33.714  24.089  12.675  0.00  0.00    +0.115 C 
ENDROOT
BRANCH   1  16
ATOM     13  C   UNL     1      28.534  21.881  16.156  0.00  0.00    +0.037 A 
ATOM     14  C   UNL     1      28.928  21.167  15.019  0.00  0.00    +0.014 A 
ATOM     15  C   UNL     1      30.071  21.555  14.315  0.00  0.00    +0.014 A 
ATOM     16  C   UNL     1      30.879  22.587  14.802  0.00  0.00    +0.037 A 
ATOM     17  C   UNL     1      30.428  23.365  15.878  0.00  0.00    +0.014 A 
ATOM     18  C   UNL     1      29.250  23.019  16.546  0.00  0.00    +0.014 A 
BRANCH  13  20
ATOM     19  N   UNL     1      26.462  22.421  17.308  0.00  0.00    -0.325 N 
ATOM     20  C   UNL     1      27.366  21.454  16.968  0.00  0.00    +0.242 C 
ATOM     21  O   UNL     1      27.194  20.283  17.271  0.00  0.00    -0.270 OA
ATOM     22  H   UNL     1      25.610  22.093  17.747  0.00  0.00    +0.145 HD
ATOM     23  H   UNL     1      26.431  23.317  16.843  0.00  0.00    +0.145 HD
ENDBRANCH  13  20
ENDBRANCH   1  16
TORSDOF 2
ENDMDL
MODEL 2
REMARK VINA RESULT:      -6.3      3.495      5.292
REMARK  Name = ZINC000583127796
REMARK  2 active torsions:
REMARK  status: ('A' for Active; 'I' for Inactive)
REMARK    1  A    between atoms: C_2  and  C_4
REMARK    2  A    between atoms: C_7  and  C_8
REMARK                            x       y       z     vdW  Elec       q    Type
REMARK                         _______ _______ _______ _____ _____    ______ ____
ROOT
ATOM      1  C   UNL     1      33.160  25.357   9.154  0.00  0.00    +0.247 C 
ATOM      2  O   UNL     1      33.640  26.487   9.085  0.00  0.00    -0.270 OA
ATOM      3  N   UNL     1      33.285  24.415   8.120  0.00  0.00    -0.297 N 
ATOM      4  C   UNL     1      32.755  23.049   8.117  0.00  0.00    +0.108 C 
ATOM      5  C   UNL     1      33.828  22.013   7.835  0.00  0.00    +0.020 C 
ATOM      6  C   UNL     1      34.627  22.361   6.593  0.00  0.00    +0.011 C 
ATOM      7  C   UNL     1      35.193  23.803   6.624  0.00  0.00    -0.004 C 
ATOM      8  C   UNL     1      35.860  24.055   5.255  0.00  0.00    +0.020 C 
ATOM      9  C   UNL     1      36.906  25.141   5.386  0.00  0.00    +0.070 C 
ATOM     10  S   UNL     1      37.716  24.781   6.953  0.00  0.00    -0.160 S 
ATOM     11  C   UNL     1      36.288  23.952   7.705  0.00  0.00    +0.077 C 
ATOM     12  C   UNL     1      34.026  24.790   6.904  0.00  0.00    +0.115 C 
ENDROOT
BRANCH   1  16
ATOM     13  C   UNL     1      31.206  23.918  12.677  0.00  0.00    +0.037 A 
ATOM     14  C   UNL     1      30.632  24.974  11.962  0.00  0.00    +0.014 A 
ATOM     15  C   UNL     1      31.314  25.532  10.877  0.00  0.00    +0.014 A 
ATOM     16  C   UNL     1      32.519  24.971  10.442  0.00  0.00    +0.037 A 
ATOM     17  C   UNL     1      33.141  23.985  11.221  0.00  0.00    +0.014 A 
ATOM     18  C   UNL     1      32.489  23.468  12.345  0.00  0.00    +0.014 A 
BRANCH  13  20
ATOM     19  N   UNL     1      30.495  23.887  15.002  0.00  0.00    -0.325 N 
ATOM     20  C   UNL     1      30.478  23.256  13.790  0.00  0.00    +0.242 C 
ATOM     21  O   UNL     1      29.849  22.224  13.615  0.00  0.00    -0.270 OA
ATOM     22  H   UNL     1      29.890  23.493  15.713  0.00  0.00    +0.145 HD
ATOM     23  H   UNL     1      30.760  24.857  15.101  0.00  0.00    +0.145 HD
ENDBRANCH  13  20
ENDBRANCH   1  16
TORSDOF 2
ENDMDL
MODEL 3
REMARK VINA RESULT:      -6.1      2.983      3.699
REMARK  Name = ZINC000583127796
REMARK  2 active torsions:
REMARK  status: ('A' for Active; 'I' for Inactive)
REMARK    1  A    between atoms: C_2  and  C_4
REMARK    2  A    between atoms: C_7  and  C_8
REMARK                            x       y       z     vdW  Elec       q    Type
REMARK                         _______ _______ _______ _____ _____    ______ ____
ROOT
ATOM      1  C   UNL     1      32.328  20.062  12.850  0.00  0.00    +0.247 C 
ATOM      2  O   UNL     1      32.567  19.824  11.667  0.00  0.00    -0.270 OA
ATOM      3  N   UNL     1      32.922  21.129  13.544  0.00  0.00    -0.297 N 
ATOM      4  C   UNL     1      32.693  21.492  14.945  0.00  0.00    +0.108 C 
ATOM      5  C   UNL     1      32.266  22.940  15.104  0.00  0.00    +0.020 C 
ATOM      6  C   UNL     1      33.205  23.882  14.374  0.00  0.00    +0.011 C 
ATOM      7  C   UNL     1      33.419  23.491  12.891  0.00  0.00    -0.004 C 
ATOM      8  C   UNL     1      34.488  24.449  12.321  0.00  0.00    +0.020 C 
ATOM      9  C   UNL     1      34.341  24.544  10.817  0.00  0.00    +0.070 C 
ATOM     10  S   UNL     1      32.562  24.601  10.553  0.00  0.00    -0.160 S 
ATOM     11  C   UNL     1      32.128  23.695  12.064  0.00  0.00    +0.077 C 
ATOM     12  C   UNL     1      33.865  22.004  12.827  0.00  0.00    +0.115 C 
ENDROOT
BRANCH   1  16
ATOM     13  C   UNL     1      29.500  17.761  15.088  0.00  0.00    +0.037 A 
ATOM     14  C   UNL     1      30.450  17.099  14.303  0.00  0.00    +0.014 A 
ATOM     15  C   UNL     1      31.305  17.834  13.477  0.00  0.00    +0.014 A 
ATOM     16  C   UNL     1      31.282  19.231  13.511  0.00  0.00    +0.037 A 
ATOM     17  C   UNL     1      30.264  19.887  14.216  0.00  0.00    +0.014 A 
ATOM     18  C   UNL     1      29.366  19.151  14.994  0.00  0.00    +0.014 A 
BRANCH  13  20
ATOM     19  N   UNL     1      28.073  17.729  17.056  0.00  0.00    -0.325 N 
ATOM     20  C   UNL     1      28.624  17.016  16.029  0.00  0.00    +0.242 C 
ATOM     21  O   UNL     1      28.368  15.834  15.861  0.00  0.00    -0.270 OA
ATOM     22  H   UNL     1      27.380  17.239  17.610  0.00  0.00    +0.145 HD
ATOM     23  H   UNL     1      28.040  18.738  17.055  0.00  0.00    +0.145 HD
ENDBRANCH  13  20
ENDBRANCH   1  16
TORSDOF 2
ENDMDL
MODEL 4
REMARK VINA RESULT:      -6.0      5.568      6.547
REMARK  Name = ZINC000583127796
REMARK  2 active torsions:
REMARK  status: ('A' for Active; 'I' for Inactive)
REMARK    1  A    between atoms: C_2  and  C_4
REMARK    2  A    between atoms: C_7  and  C_8
REMARK                            x       y       z     vdW  Elec       q    Type
REMARK                         _______ _______ _______ _____ _____    ______ ____
ROOT
ATOM      1  C   UNL     1      32.114  16.615  13.294  0.00  0.00    +0.247 C 
ATOM      2  O   UNL     1      31.748  15.873  12.384  0.00  0.00    -0.270 OA
ATOM      3  N   UNL     1      33.373  16.501  13.906  0.00  0.00    -0.297 N 
ATOM      4  C   UNL     1      33.896  17.341  14.987  0.00  0.00    +0.108 C 
ATOM      5  C   UNL     1      35.236  17.964  14.639  0.00  0.00    +0.020 C 
ATOM      6  C   UNL     1      36.222  16.924  14.141  0.00  0.00    +0.011 C 
ATOM      7  C   UNL     1      35.656  16.059  12.987  0.00  0.00    -0.004 C 
ATOM      8  C   UNL     1      36.709  14.972  12.680  0.00  0.00    +0.020 C 
ATOM      9  C   UNL     1      36.539  14.481  11.259  0.00  0.00    +0.070 C 
ATOM     10  S   UNL     1      36.195  15.975  10.316  0.00  0.00    -0.160 S 
ATOM     11  C   UNL     1      35.467  16.895  11.700  0.00  0.00    +0.077 C 
ATOM     12  C   UNL     1      34.297  15.455  13.438  0.00  0.00    +0.115 C 
ENDROOT
BRANCH   1  16
ATOM     13  C   UNL     1      29.797  19.982  14.557  0.00  0.00    +0.037 A 
ATOM     14  C   UNL     1      29.532  18.725  15.110  0.00  0.00    +0.014 A 
ATOM     15  C   UNL     1      30.199  17.596  14.626  0.00  0.00    +0.014 A 
ATOM     16  C   UNL     1      31.203  17.735  13.663  0.00  0.00    +0.037 A 
ATOM     17  C   UNL     1      31.392  18.976  13.038  0.00  0.00    +0.014 A 
ATOM     18  C   UNL     1      30.680  20.095  13.477  0.00  0.00    +0.014 A 
BRANCH  13  20
ATOM     19  N   UNL     1      29.491  22.394  14.498  0.00  0.00    -0.325 N 
ATOM     20  C   UNL     1      29.158  21.211  15.095  0.00  0.00    +0.242 C 
ATOM     21  O   UNL     1      28.334  21.158  15.995  0.00  0.00    -0.270 OA
ATOM     22  H   UNL     1      28.953  23.201  14.789  0.00  0.00    +0.145 HD
ATOM     23  H   UNL     1      29.939  22.433  13.593  0.00  0.00    +0.145 HD
ENDBRANCH  13  20
ENDBRANCH   1  16
TORSDOF 2
ENDMDL
MODEL 5
REMARK VINA RESULT:      -6.0      4.649      5.778
REMARK  Name = ZINC000583127796
REMARK  2 active torsions:
REMARK  status: ('A' for Active; 'I' for Inactive)
REMARK    1  A    between atoms: C_2  and  C_4
REMARK    2  A    between atoms: C_7  and  C_8
REMARK                            x       y       z     vdW  Elec       q    Type
REMARK                         _______ _______ _______ _____ _____    ______ ____
ROOT
ATOM      1  C   UNL     1      31.717  18.856  12.889  0.00  0.00    +0.247 C 
ATOM      2  O   UNL     1      31.807  18.965  11.668  0.00  0.00    -0.270 OA
ATOM      3  N   UNL     1      32.255  17.768  13.595  0.00  0.00    -0.297 N 
ATOM      4  C   UNL     1      32.203  17.558  15.044  0.00  0.00    +0.108 C 
ATOM      5  C   UNL     1      33.579  17.341  15.647  0.00  0.00    +0.020 C 
ATOM      6  C   UNL     1      34.352  16.269  14.901  0.00  0.00    +0.011 C 
ATOM      7  C   UNL     1      34.411  16.520  13.374  0.00  0.00    -0.004 C 
ATOM      8  C   UNL     1      35.105  15.294  12.742  0.00  0.00    +0.020 C 
ATOM      9  C   UNL     1      35.719  15.681  11.414  0.00  0.00    +0.070 C 
ATOM     10  S   UNL     1      36.424  17.309  11.715  0.00  0.00    -0.160 S 
ATOM     11  C   UNL     1      35.271  17.760  13.041  0.00  0.00    +0.077 C 
ATOM     12  C   UNL     1      32.962  16.716  12.846  0.00  0.00    +0.115 C 
ENDROOT
BRANCH   1  16
ATOM     13  C   UNL     1      30.091  21.965  15.336  0.00  0.00    +0.037 A 
ATOM     14  C   UNL     1      29.230  21.010  14.784  0.00  0.00    +0.014 A 
ATOM     15  C   UNL     1      29.728  20.058  13.891  0.00  0.00    +0.014 A 
ATOM     16  C   UNL     1      31.099  19.993  13.627  0.00  0.00    +0.037 A 
ATOM     17  C   UNL     1      31.940  21.012  14.097  0.00  0.00    +0.014 A 
ATOM     18  C   UNL     1      31.433  22.004  14.941  0.00  0.00    +0.014 A 
BRANCH  13  20
ATOM     19  N   UNL     1      28.258  23.020  16.537  0.00  0.00    -0.325 N 
ATOM     20  C   UNL     1      29.609  22.946  16.342  0.00  0.00    +0.242 C 
ATOM     21  O   UNL     1      30.387  23.617  17.003  0.00  0.00    -0.270 OA
ATOM     22  H   UNL     1      27.955  23.596  17.313  0.00  0.00    +0.145 HD
ATOM     23  H   UNL     1      27.628  22.297  16.220  0.00  0.00    +0.145 HD
ENDBRANCH  13  20
ENDBRANCH   1  16
TORSDOF 2
ENDMDL
MODEL 6
REMARK VINA RESULT:      -5.9      3.545      4.597
REMARK  Name = ZINC000583127796
REMARK  2 active torsions:
REMARK  status: ('A' for Active; 'I' for Inactive)
REMARK    1  A    between atoms: C_2  and  C_4
REMARK    2  A    between atoms: C_7  and  C_8
REMARK                            x       y       z     vdW  Elec       q    Type
REMARK                         _______ _______ _______ _____ _____    ______ ____
ROOT
ATOM      1  C   UNL     1      30.953  21.333  13.873  0.00  0.00    +0.247 C 
ATOM      2  O   UNL     1      31.661  22.073  13.192  0.00  0.00    -0.270 OA
ATOM      3  N   UNL     1      30.811  19.962  13.605  0.00  0.00    -0.297 N 
ATOM      4  C   UNL     1      29.998  19.006  14.363  0.00  0.00    +0.108 C 
ATOM      5  C   UNL     1      30.804  17.808  14.834  0.00  0.00    +0.020 C 
ATOM      6  C   UNL     1      31.585  17.180  13.695  0.00  0.00    +0.011 C 
ATOM      7  C   UNL     1      32.450  18.203  12.919  0.00  0.00    -0.004 C 
ATOM      8  C   UNL     1      33.075  17.452  11.724  0.00  0.00    +0.020 C 
ATOM      9  C   UNL     1      34.337  18.158  11.277  0.00  0.00    +0.070 C 
ATOM     10  S   UNL     1      35.140  18.635  12.815  0.00  0.00    -0.160 S 
ATOM     11  C   UNL     1      33.613  18.731  13.791  0.00  0.00    +0.077 C 
ATOM     12  C   UNL     1      31.543  19.381  12.468  0.00  0.00    +0.115 C 
ENDROOT
BRANCH   1  16
ATOM     13  C   UNL     1      29.304  22.754  17.555  0.00  0.00    +0.037 A 
ATOM     14  C   UNL     1      28.462  22.137  16.624  0.00  0.00    +0.014 A 
ATOM     15  C   UNL     1      28.960  21.772  15.370  0.00  0.00    +0.014 A 
ATOM     16  C   UNL     1      30.320  21.928  15.083  0.00  0.00    +0.037 A 
ATOM     17  C   UNL     1      31.135  22.639  15.975  0.00  0.00    +0.014 A 
ATOM     18  C   UNL     1      30.623  23.062  17.205  0.00  0.00    +0.014 A 
BRANCH  13  20
ATOM     19  N   UNL     1      28.839  22.084  19.846  0.00  0.00    -0.325 N 
ATOM     20  C   UNL     1      28.826  23.090  18.921  0.00  0.00    +0.242 C 
ATOM     21  O   UNL     1      28.488  24.226  19.216  0.00  0.00    -0.270 OA
ATOM     22  H   UNL     1      28.634  22.359  20.800  0.00  0.00    +0.145 HD
ATOM     23  H   UNL     1      29.366  21.234  19.710  0.00  0.00    +0.145 HD
ENDBRANCH  13  20
ENDBRANCH   1  16
TORSDOF 2
ENDMDL
MODEL 7
REMARK VINA RESULT:      -5.8      3.435      4.043
REMARK  Name = ZINC000583127796
REMARK  2 active torsions:
REMARK  status: ('A' for Active; 'I' for Inactive)
REMARK    1  A    between atoms: C_2  and  C_4
REMARK    2  A    between atoms: C_7  and  C_8
REMARK                            x       y       z     vdW  Elec       q    Type
REMARK                         _______ _______ _______ _____ _____    ______ ____
ROOT
ATOM      1  C   UNL     1      33.770  21.768  12.006  0.00  0.00    +0.247 C 
ATOM      2  O   UNL     1      34.786  21.609  11.332  0.00  0.00    -0.270 OA
ATOM      3  N   UNL     1      33.161  23.022  12.177  0.00  0.00    -0.297 N 
ATOM      4  C   UNL     1      31.950  23.304  12.952  0.00  0.00    +0.108 C 
ATOM      5  C   UNL     1      30.893  24.021  12.132  0.00  0.00    +0.020 C 
ATOM      6  C   UNL     1      31.464  25.237  11.426  0.00  0.00    +0.011 C 
ATOM      7  C   UNL     1      32.733  24.913  10.598  0.00  0.00    -0.004 C 
ATOM      8  C   UNL     1      33.270  26.254  10.054  0.00  0.00    +0.020 C 
ATOM      9  C   UNL     1      34.102  26.007   8.814  0.00  0.00    +0.070 C 
ATOM     10  S   UNL     1      33.187  24.745   7.916  0.00  0.00    -0.160 S 
ATOM     11  C   UNL     1      32.397  24.022   9.380  0.00  0.00    +0.077 C 
ATOM     12  C   UNL     1      33.758  24.196  11.519  0.00  0.00    +0.115 C 
ENDROOT
BRANCH   1  16
ATOM     13  C   UNL     1      31.578  18.411  13.499  0.00  0.00    +0.037 A 
ATOM     14  C   UNL     1      32.187  19.286  14.405  0.00  0.00    +0.014 A 
ATOM     15  C   UNL     1      33.002  20.319  13.934  0.00  0.00    +0.014 A 
ATOM     16  C   UNL     1      33.126  20.543  12.559  0.00  0.00    +0.037 A 
ATOM     17  C   UNL     1      32.602  19.606  11.658  0.00  0.00    +0.014 A 
ATOM     18  C   UNL     1      31.838  18.534  12.129  0.00  0.00    +0.014 A 
BRANCH  13  20
ATOM     19  N   UNL     1      29.946  17.595  15.106  0.00  0.00    -0.325 N 
ATOM     20  C   UNL     1      30.650  17.347  13.961  0.00  0.00    +0.242 C 
ATOM     21  O   UNL     1      30.485  16.321  13.319  0.00  0.00    -0.270 OA
ATOM     22  H   UNL     1      29.226  16.920  15.336  0.00  0.00    +0.145 HD
ATOM     23  H   UNL     1      29.852  18.524  15.491  0.00  0.00    +0.145 HD
ENDBRANCH  13  20
ENDBRANCH   1  16
TORSDOF 2
ENDMDL
MODEL 8
REMARK VINA RESULT:      -5.8      3.756      7.876
REMARK  Name = ZINC000583127796
REMARK  2 active torsions:
REMARK  status: ('A' for Active; 'I' for Inactive)
REMARK    1  A    between atoms: C_2  and  C_4
REMARK    2  A    between atoms: C_7  and  C_8
REMARK                            x       y       z     vdW  Elec       q    Type
REMARK                         _______ _______ _______ _____ _____    ______ ____
ROOT
ATOM      1  C   UNL     1      32.224  24.559  11.095  0.00  0.00    +0.247 C 
ATOM      2  O   UNL     1      31.080  24.990  11.227  0.00  0.00    -0.270 OA
ATOM      3  N   UNL     1      32.995  24.110  12.180  0.00  0.00    -0.297 N 
ATOM      4  C   UNL     1      34.359  23.577  12.118  0.00  0.00    +0.108 C 
ATOM      5  C   UNL     1      34.474  22.207  12.763  0.00  0.00    +0.020 C 
ATOM      6  C   UNL     1      33.874  22.195  14.157  0.00  0.00    +0.011 C 
ATOM      7  C   UNL     1      32.428  22.746  14.197  0.00  0.00    -0.004 C 
ATOM      8  C   UNL     1      32.005  22.795  15.681  0.00  0.00    +0.020 C 
ATOM      9  C   UNL     1      30.495  22.747  15.786  0.00  0.00    +0.070 C 
ATOM     10  S   UNL     1      30.008  21.539  14.544  0.00  0.00    -0.160 S 
ATOM     11  C   UNL     1      31.446  21.799  13.469  0.00  0.00    +0.077 C 
ATOM     12  C   UNL     1      32.410  24.149  13.531  0.00  0.00    +0.115 C 
ENDROOT
BRANCH   1  16
ATOM     13  C   UNL     1      34.007  23.966   7.252  0.00  0.00    +0.037 A 
ATOM     14  C   UNL     1      34.055  25.235   7.838  0.00  0.00    +0.014 A 
ATOM     15  C   UNL     1      33.378  25.475   9.037  0.00  0.00    +0.014 A 
ATOM     16  C   UNL     1      32.742  24.424   9.705  0.00  0.00    +0.037 A 
ATOM     17  C   UNL     1      32.607  23.183   9.067  0.00  0.00    +0.014 A 
ATOM     18  C   UNL     1      33.230  22.959   7.836  0.00  0.00    +0.014 A 
BRANCH  13  20
ATOM     19  N   UNL     1      35.007  24.698   5.160  0.00  0.00    -0.325 N 
ATOM     20  C   UNL     1      34.772  23.659   6.016  0.00  0.00    +0.242 C 
ATOM     21  O   UNL     1      35.216  22.541   5.802  0.00  0.00    -0.270 OA
ATOM     22  H   UNL     1      35.637  24.502   4.391  0.00  0.00    +0.145 HD
ATOM     23  H   UNL     1      34.901  25.663   5.441  0.00  0.00    +0.145 HD
ENDBRANCH  13  20
ENDBRANCH   1  16
TORSDOF 2
ENDMDL
MODEL 9
REMARK VINA RESULT:      -5.7      7.185      8.806
REMARK  Name = ZINC000583127796
REMARK  2 active torsions:
REMARK  status: ('A' for Active; 'I' for Inactive)
REMARK    1  A    between atoms: C_2  and  C_4
REMARK    2  A    between atoms: C_7  and  C_8
REMARK                            x       y       z     vdW  Elec       q    Type
REMARK                         _______ _______ _______ _____ _____    ______ ____
ROOT
ATOM      1  C   UNL     1      33.942  23.757  20.362  0.00  0.00    +0.247 C 
ATOM      2  O   UNL     1      33.988  24.869  20.886  0.00  0.00    -0.270 OA
ATOM      3  N   UNL     1      34.985  22.823  20.473  0.00  0.00    -0.297 N 
ATOM      4  C   UNL     1      35.015  21.478  19.891  0.00  0.00    +0.108 C 
ATOM      5  C   UNL     1      35.286  20.404  20.930  0.00  0.00    +0.020 C 
ATOM      6  C   UNL     1      36.507  20.736  21.769  0.00  0.00    +0.011 C 
ATOM      7  C   UNL     1      36.446  22.154  22.389  0.00  0.00    -0.004 C 
ATOM      8  C   UNL     1      37.797  22.396  23.095  0.00  0.00    +0.020 C 
ATOM      9  C   UNL     1      37.630  23.439  24.179  0.00  0.00    +0.070 C 
ATOM     10  S   UNL     1      36.051  23.031  24.940  0.00  0.00    -0.160 S 
ATOM     11  C   UNL     1      35.339  22.249  23.465  0.00  0.00    +0.077 C 
ATOM     12  C   UNL     1      36.179  23.182  21.255  0.00  0.00    +0.115 C 
ENDROOT
BRANCH   1  16
ATOM     13  C   UNL     1      30.199  23.059  18.412  0.00  0.00    +0.037 A 
ATOM     14  C   UNL     1      30.369  22.636  19.735  0.00  0.00    +0.014 A 
ATOM     15  C   UNL     1      31.620  22.752  20.347  0.00  0.00    +0.014 A 
ATOM     16  C   UNL     1      32.673  23.383  19.678  0.00  0.00    +0.037 A 
ATOM     17  C   UNL     1      32.530  23.709  18.322  0.00  0.00    +0.014 A 
ATOM     18  C   UNL     1      31.297  23.536  17.687  0.00  0.00    +0.014 A 
BRANCH  13  20
ATOM     19  N   UNL     1      28.823  23.332  16.426  0.00  0.00    -0.325 N 
ATOM     20  C   UNL     1      28.867  23.016  17.755  0.00  0.00    +0.242 C 
ATOM     21  O   UNL     1      27.868  22.663  18.362  0.00  0.00    -0.270 OA
ATOM     22  H   UNL     1      27.935  23.173  15.965  0.00  0.00    +0.145 HD
ATOM     23  H   UNL     1      29.652  23.350  15.849  0.00  0.00    +0.145 HD
ENDBRANCH  13  20
ENDBRANCH   1  16
TORSDOF 2
ENDMDL
