MODEL 1
REMARK VINA RESULT:      -6.8      0.000      0.000
REMARK  Name = ZINC000329563636
REMARK  3 active torsions:
REMARK  status: ('A' for Active; 'I' for Inactive)
REMARK    1  A    between atoms: C_1  and  C_2
REMARK    2  A    between atoms: C_2  and  N_3
REMARK    3  A    between atoms: N_9  and  C_10
REMARK                            x       y       z     vdW  Elec       q    Type
REMARK                         _______ _______ _______ _____ _____    ______ ____
ROOT
ATOM      1  C   UNL     1      31.587  24.110  13.476  0.00  0.00    +0.112 C 
ATOM      2  C   UNL     1      30.621  23.064  14.042  0.00  0.00    +0.075 C 
ATOM      3  C   UNL     1      30.737  22.828  15.555  0.00  0.00    +0.113 C 
ATOM      4  C   UNL     1      29.942  23.830  16.433  0.00  0.00    +0.048 C 
ATOM      5  C   UNL     1      28.808  23.034  17.069  0.00  0.00    +0.004 C 
ATOM      6  C   UNL     1      29.373  21.633  17.199  0.00  0.00    +0.004 C 
ATOM      7  C   UNL     1      30.115  21.446  15.886  0.00  0.00    +0.048 C 
ATOM      8  O   UNL     1      32.111  22.784  15.988  0.00  0.00    -0.485 OA
ATOM      9  C   UNL     1      32.810  23.918  15.665  0.00  0.00    +0.126 A 
ATOM     10  C   UNL     1      33.775  24.356  16.569  0.00  0.00    +0.046 A 
ATOM     11  C   UNL     1      34.491  25.527  16.315  0.00  0.00    +0.004 A 
ATOM     12  C   UNL     1      34.257  26.245  15.144  0.00  0.00    +0.001 A 
ATOM     13  C   UNL     1      33.312  25.785  14.225  0.00  0.00    +0.009 A 
ATOM     14  C   UNL     1      32.579  24.615  14.481  0.00  0.00    +0.015 A 
ENDROOT
BRANCH   1  21
ATOM     15  N   UNL     1      35.350  23.073   8.509  0.00  0.00    -0.299 N 
ATOM     16  C   UNL     1      34.658  24.362   8.525  0.00  0.00    +0.127 C 
ATOM     17  C   UNL     1      33.174  24.198   8.834  0.00  0.00    +0.129 C 
ATOM     18  N   UNL     1      33.034  23.542  10.126  0.00  0.00    -0.275 N 
ATOM     19  C   UNL     1      32.383  24.205  11.142  0.00  0.00    +0.303 C 
ATOM     20  O   UNL     1      31.917  25.334  11.001  0.00  0.00    -0.253 OA
ATOM     21  N   UNL     1      32.310  23.547  12.334  0.00  0.00    -0.292 N 
ATOM     22  C   UNL     1      33.696  22.237  10.215  0.00  0.00    +0.205 C 
ATOM     23  C   UNL     1      34.971  22.043   9.367  0.00  0.00    +0.233 C 
ATOM     24  O   UNL     1      35.599  20.983   9.439  0.00  0.00    -0.274 OA
ATOM     25  H   UNL     1      32.366  22.541  12.325  0.00  0.00    +0.151 HD
BRANCH  15  27
ATOM     26  C   UNL     1      36.540  22.509   6.409  0.00  0.00    +0.024 C 
ATOM     27  C   UNL     1      36.647  22.998   7.846  0.00  0.00    +0.104 C 
ENDBRANCH  15  27
ENDBRANCH   1  21
TORSDOF 2
ENDMDL
MODEL 2
REMARK VINA RESULT:      -6.5      2.802      6.947
REMARK  Name = ZINC000329563636
REMARK  3 active torsions:
REMARK  status: ('A' for Active; 'I' for Inactive)
REMARK    1  A    between atoms: C_1  and  C_2
REMARK    2  A    between atoms: C_2  and  N_3
REMARK    3  A    between atoms: N_9  and  C_10
REMARK                            x       y       z     vdW  Elec       q    Type
REMARK                         _______ _______ _______ _____ _____    ______ ____
ROOT
ATOM      1  C   UNL     1      32.973  25.585  12.917  0.00  0.00    +0.112 C 
ATOM      2  C   UNL     1      33.857  26.658  13.562  0.00  0.00    +0.075 C 
ATOM      3  C   UNL     1      34.941  27.241  12.644  0.00  0.00    +0.113 C 
ATOM      4  C   UNL     1      34.462  28.393  11.722  0.00  0.00    +0.048 C 
ATOM      5  C   UNL     1      35.148  29.657  12.225  0.00  0.00    +0.004 C 
ATOM      6  C   UNL     1      36.456  29.157  12.807  0.00  0.00    +0.004 C 
ATOM      7  C   UNL     1      36.039  27.887  13.530  0.00  0.00    +0.048 C 
ATOM      8  O   UNL     1      35.583  26.220  11.856  0.00  0.00    -0.485 OA
ATOM      9  C   UNL     1      34.702  25.499  11.094  0.00  0.00    +0.126 A 
ATOM     10  C   UNL     1      35.136  25.078   9.838  0.00  0.00    +0.046 A 
ATOM     11  C   UNL     1      34.269  24.375   8.999  0.00  0.00    +0.004 A 
ATOM     12  C   UNL     1      32.978  24.075   9.427  0.00  0.00    +0.001 A 
ATOM     13  C   UNL     1      32.558  24.470  10.697  0.00  0.00    +0.009 A 
ATOM     14  C   UNL     1      33.420  25.188  11.542  0.00  0.00    +0.015 A 
ENDROOT
BRANCH   1  21
ATOM     15  N   UNL     1      31.907  19.916  15.493  0.00  0.00    -0.299 N 
ATOM     16  C   UNL     1      30.737  20.589  14.928  0.00  0.00    +0.127 C 
ATOM     17  C   UNL     1      30.648  22.040  15.387  0.00  0.00    +0.129 C 
ATOM     18  N   UNL     1      31.862  22.734  14.985  0.00  0.00    -0.275 N 
ATOM     19  C   UNL     1      31.764  23.807  14.128  0.00  0.00    +0.303 C 
ATOM     20  O   UNL     1      30.687  24.200  13.684  0.00  0.00    -0.253 OA
ATOM     21  N   UNL     1      32.940  24.395  13.769  0.00  0.00    -0.292 N 
ATOM     22  C   UNL     1      33.098  22.137  15.502  0.00  0.00    +0.205 C 
ATOM     23  C   UNL     1      33.097  20.607  15.712  0.00  0.00    +0.233 C 
ATOM     24  O   UNL     1      34.123  20.041  16.097  0.00  0.00    -0.274 OA
ATOM     25  H   UNL     1      33.727  24.301  14.391  0.00  0.00    +0.151 HD
BRANCH  15  27
ATOM     26  C   UNL     1      31.934  17.872  14.091  0.00  0.00    +0.024 C 
ATOM     27  C   UNL     1      31.927  18.458  15.495  0.00  0.00    +0.104 C 
ENDBRANCH  15  27
ENDBRANCH   1  21
TORSDOF 2
ENDMDL
MODEL 3
REMARK VINA RESULT:      -6.5      2.432      4.814
REMARK  Name = ZINC000329563636
REMARK  3 active torsions:
REMARK  status: ('A' for Active; 'I' for Inactive)
REMARK    1  A    between atoms: C_1  and  C_2
REMARK    2  A    between atoms: C_2  and  N_3
REMARK    3  A    between atoms: N_9  and  C_10
REMARK                            x       y       z     vdW  Elec       q    Type
REMARK                         _______ _______ _______ _____ _____    ______ ____
ROOT
ATOM      1  C   UNL     1      32.683  23.122  16.925  0.00  0.00    +0.112 C 
ATOM      2  C   UNL     1      33.329  24.099  17.913  0.00  0.00    +0.075 C 
ATOM      3  C   UNL     1      32.432  24.519  19.087  0.00  0.00    +0.113 C 
ATOM      4  C   UNL     1      32.426  23.533  20.285  0.00  0.00    +0.048 C 
ATOM      5  C   UNL     1      33.127  24.250  21.433  0.00  0.00    +0.004 C 
ATOM      6  C   UNL     1      32.828  25.716  21.185  0.00  0.00    +0.004 C 
ATOM      7  C   UNL     1      32.985  25.842  19.679  0.00  0.00    +0.048 C 
ATOM      8  O   UNL     1      31.080  24.780  18.664  0.00  0.00    -0.485 OA
ATOM      9  C   UNL     1      30.502  23.712  18.028  0.00  0.00    +0.126 A 
ATOM     10  C   UNL     1      29.140  23.503  18.236  0.00  0.00    +0.046 A 
ATOM     11  C   UNL     1      28.504  22.408  17.649  0.00  0.00    +0.004 A 
ATOM     12  C   UNL     1      29.226  21.538  16.835  0.00  0.00    +0.001 A 
ATOM     13  C   UNL     1      30.583  21.770  16.603  0.00  0.00    +0.009 A 
ATOM     14  C   UNL     1      31.232  22.862  17.201  0.00  0.00    +0.015 A 
ENDROOT
BRANCH   1  21
ATOM     15  N   UNL     1      33.507  23.860  10.705  0.00  0.00    -0.299 N 
ATOM     16  C   UNL     1      34.432  22.939  11.364  0.00  0.00    +0.127 C 
ATOM     17  C   UNL     1      35.021  23.547  12.632  0.00  0.00    +0.129 C 
ATOM     18  N   UNL     1      33.934  23.892  13.536  0.00  0.00    -0.275 N 
ATOM     19  C   UNL     1      33.881  23.291  14.774  0.00  0.00    +0.303 C 
ATOM     20  O   UNL     1      34.717  22.469  15.145  0.00  0.00    -0.253 OA
ATOM     21  N   UNL     1      32.822  23.636  15.561  0.00  0.00    -0.292 N 
ATOM     22  C   UNL     1      32.946  24.815  12.968  0.00  0.00    +0.205 C 
ATOM     23  C   UNL     1      32.708  24.730  11.445  0.00  0.00    +0.233 C 
ATOM     24  O   UNL     1      31.854  25.446  10.917  0.00  0.00    -0.274 OA
ATOM     25  H   UNL     1      32.382  24.528  15.399  0.00  0.00    +0.151 HD
BRANCH  15  27
ATOM     26  C   UNL     1      32.849  22.156   9.027  0.00  0.00    +0.024 C 
ATOM     27  C   UNL     1      33.176  23.617   9.305  0.00  0.00    +0.104 C 
ENDBRANCH  15  27
ENDBRANCH   1  21
TORSDOF 2
ENDMDL
MODEL 4
REMARK VINA RESULT:      -6.3      4.260      5.964
REMARK  Name = ZINC000329563636
REMARK  3 active torsions:
REMARK  status: ('A' for Active; 'I' for Inactive)
REMARK    1  A    between atoms: C_1  and  C_2
REMARK    2  A    between atoms: C_2  and  N_3
REMARK    3  A    between atoms: N_9  and  C_10
REMARK                            x       y       z     vdW  Elec       q    Type
REMARK                         _______ _______ _______ _____ _____    ______ ____
ROOT
ATOM      1  C   UNL     1      33.441  22.529  14.266  0.00  0.00    +0.112 C 
ATOM      2  C   UNL     1      33.251  23.457  13.061  0.00  0.00    +0.075 C 
ATOM      3  C   UNL     1      32.027  24.380  13.143  0.00  0.00    +0.113 C 
ATOM      4  C   UNL     1      32.253  25.692  13.938  0.00  0.00    +0.048 C 
ATOM      5  C   UNL     1      32.206  26.824  12.918  0.00  0.00    +0.004 C 
ATOM      6  C   UNL     1      31.265  26.311  11.846  0.00  0.00    +0.004 C 
ATOM      7  C   UNL     1      31.673  24.854  11.708  0.00  0.00    +0.048 C 
ATOM      8  O   UNL     1      30.869  23.693  13.656  0.00  0.00    -0.485 OA
ATOM      9  C   UNL     1      31.082  23.134  14.889  0.00  0.00    +0.126 A 
ATOM     10  C   UNL     1      30.013  23.130  15.784  0.00  0.00    +0.046 A 
ATOM     11  C   UNL     1      30.181  22.612  17.070  0.00  0.00    +0.004 A 
ATOM     12  C   UNL     1      31.409  22.077  17.449  0.00  0.00    +0.001 A 
ATOM     13  C   UNL     1      32.467  22.053  16.539  0.00  0.00    +0.009 A 
ATOM     14  C   UNL     1      32.310  22.584  15.249  0.00  0.00    +0.015 A 
ENDROOT
BRANCH   1  21
ATOM     15  N   UNL     1      35.161  16.510  13.421  0.00  0.00    -0.299 N 
ATOM     16  C   UNL     1      36.249  17.451  13.684  0.00  0.00    +0.127 C 
ATOM     17  C   UNL     1      36.137  18.696  12.811  0.00  0.00    +0.129 C 
ATOM     18  N   UNL     1      34.854  19.334  13.067  0.00  0.00    -0.275 N 
ATOM     19  C   UNL     1      34.836  20.620  13.561  0.00  0.00    +0.303 C 
ATOM     20  O   UNL     1      35.866  21.250  13.797  0.00  0.00    -0.253 OA
ATOM     21  N   UNL     1      33.604  21.149  13.805  0.00  0.00    -0.292 N 
ATOM     22  C   UNL     1      33.693  18.471  12.833  0.00  0.00    +0.205 C 
ATOM     23  C   UNL     1      33.886  16.960  13.085  0.00  0.00    +0.233 C 
ATOM     24  O   UNL     1      32.932  16.189  12.953  0.00  0.00    -0.274 OA
ATOM     25  H   UNL     1      32.819  20.781  13.291  0.00  0.00    +0.151 HD
BRANCH  15  27
ATOM     26  C   UNL     1      35.431  14.994  15.365  0.00  0.00    +0.024 C 
ATOM     27  C   UNL     1      35.331  15.126  13.852  0.00  0.00    +0.104 C 
ENDBRANCH  15  27
ENDBRANCH   1  21
TORSDOF 2
ENDMDL
MODEL 5
REMARK VINA RESULT:      -6.2      3.913      8.579
REMARK  Name = ZINC000329563636
REMARK  3 active torsions:
REMARK  status: ('A' for Active; 'I' for Inactive)
REMARK    1  A    between atoms: C_1  and  C_2
REMARK    2  A    between atoms: C_2  and  N_3
REMARK    3  A    between atoms: N_9  and  C_10
REMARK                            x       y       z     vdW  Elec       q    Type
REMARK                         _______ _______ _______ _____ _____    ______ ____
ROOT
ATOM      1  C   UNL     1      31.817  24.138  14.936  0.00  0.00    +0.112 C 
ATOM      2  C   UNL     1      31.838  25.322  13.962  0.00  0.00    +0.075 C 
ATOM      3  C   UNL     1      32.839  25.190  12.806  0.00  0.00    +0.113 C 
ATOM      4  C   UNL     1      32.323  24.380  11.587  0.00  0.00    +0.048 C 
ATOM      5  C   UNL     1      32.156  25.380  10.449  0.00  0.00    +0.004 C 
ATOM      6  C   UNL     1      33.211  26.433  10.730  0.00  0.00    +0.004 C 
ATOM      7  C   UNL     1      33.121  26.606  12.237  0.00  0.00    +0.048 C 
ATOM      8  O   UNL     1      34.103  24.655  13.246  0.00  0.00    -0.485 OA
ATOM      9  C   UNL     1      33.981  23.438  13.864  0.00  0.00    +0.126 A 
ATOM     10  C   UNL     1      35.005  22.513  13.664  0.00  0.00    +0.046 A 
ATOM     11  C   UNL     1      34.918  21.241  14.234  0.00  0.00    +0.004 A 
ATOM     12  C   UNL     1      33.820  20.906  15.023  0.00  0.00    +0.001 A 
ATOM     13  C   UNL     1      32.814  21.847  15.247  0.00  0.00    +0.009 A 
ATOM     14  C   UNL     1      32.887  23.123  14.667  0.00  0.00    +0.015 A 
ENDROOT
BRANCH   1  21
ATOM     15  N   UNL     1      32.215  24.767  21.209  0.00  0.00    -0.299 N 
ATOM     16  C   UNL     1      31.146  23.896  20.724  0.00  0.00    +0.127 C 
ATOM     17  C   UNL     1      30.352  24.554  19.600  0.00  0.00    +0.129 C 
ATOM     18  N   UNL     1      31.262  24.878  18.512  0.00  0.00    -0.275 N 
ATOM     19  C   UNL     1      31.056  24.303  17.277  0.00  0.00    +0.303 C 
ATOM     20  O   UNL     1      30.132  23.521  17.060  0.00  0.00    -0.253 OA
ATOM     21  N   UNL     1      31.959  24.627  16.309  0.00  0.00    -0.292 N 
ATOM     22  C   UNL     1      32.375  25.751  18.895  0.00  0.00    +0.205 C 
ATOM     23  C   UNL     1      32.893  25.623  20.344  0.00  0.00    +0.233 C 
ATOM     24  O   UNL     1      33.860  26.296  20.710  0.00  0.00    -0.274 OA
ATOM     25  H   UNL     1      32.457  25.498  16.397  0.00  0.00    +0.151 HD
BRANCH  15  27
ATOM     26  C   UNL     1      31.848  23.699  23.416  0.00  0.00    +0.024 C 
ATOM     27  C   UNL     1      32.794  24.481  22.517  0.00  0.00    +0.104 C 
ENDBRANCH  15  27
ENDBRANCH   1  21
TORSDOF 2
ENDMDL
MODEL 6
REMARK VINA RESULT:      -6.1      2.816      3.855
REMARK  Name = ZINC000329563636
REMARK  3 active torsions:
REMARK  status: ('A' for Active; 'I' for Inactive)
REMARK    1  A    between atoms: C_1  and  C_2
REMARK    2  A    between atoms: C_2  and  N_3
REMARK    3  A    between atoms: N_9  and  C_10
REMARK                            x       y       z     vdW  Elec       q    Type
REMARK                         _______ _______ _______ _____ _____    ______ ____
ROOT
ATOM      1  C   UNL     1      33.458  21.454  13.770  0.00  0.00    +0.112 C 
ATOM      2  C   UNL     1      32.276  22.237  14.353  0.00  0.00    +0.075 C 
ATOM      3  C   UNL     1      31.179  21.373  14.990  0.00  0.00    +0.113 C 
ATOM      4  C   UNL     1      31.447  20.960  16.461  0.00  0.00    +0.048 C 
ATOM      5  C   UNL     1      30.423  21.706  17.308  0.00  0.00    +0.004 C 
ATOM      6  C   UNL     1      29.229  21.860  16.387  0.00  0.00    +0.004 C 
ATOM      7  C   UNL     1      29.873  22.208  15.055  0.00  0.00    +0.048 C 
ATOM      8  O   UNL     1      30.890  20.203  14.200  0.00  0.00    -0.485 OA
ATOM      9  C   UNL     1      31.994  19.421  13.980  0.00  0.00    +0.126 A 
ATOM     10  C   UNL     1      31.804  18.041  13.943  0.00  0.00    +0.046 A 
ATOM     11  C   UNL     1      32.897  17.190  13.763  0.00  0.00    +0.004 A 
ATOM     12  C   UNL     1      34.173  17.723  13.597  0.00  0.00    +0.001 A 
ATOM     13  C   UNL     1      34.353  19.106  13.602  0.00  0.00    +0.009 A 
ATOM     14  C   UNL     1      33.262  19.968  13.795  0.00  0.00    +0.015 A 
ENDROOT
BRANCH   1  21
ATOM     15  N   UNL     1      35.722  23.970   8.436  0.00  0.00    -0.299 N 
ATOM     16  C   UNL     1      35.741  24.843   9.610  0.00  0.00    +0.127 C 
ATOM     17  C   UNL     1      34.402  24.832  10.339  0.00  0.00    +0.129 C 
ATOM     18  N   UNL     1      34.098  23.466  10.740  0.00  0.00    -0.275 N 
ATOM     19  C   UNL     1      33.955  23.182  12.080  0.00  0.00    +0.303 C 
ATOM     20  O   UNL     1      34.078  24.039  12.953  0.00  0.00    -0.253 OA
ATOM     21  N   UNL     1      33.699  21.879  12.390  0.00  0.00    -0.292 N 
ATOM     22  C   UNL     1      34.055  22.507   9.632  0.00  0.00    +0.205 C 
ATOM     23  C   UNL     1      34.985  22.788   8.432  0.00  0.00    +0.233 C 
ATOM     24  O   UNL     1      35.029  21.990   7.492  0.00  0.00    -0.274 OA
ATOM     25  H   UNL     1      33.263  21.302  11.689  0.00  0.00    +0.151 HD
BRANCH  15  27
ATOM     26  C   UNL     1      36.369  25.245   6.411  0.00  0.00    +0.024 C 
ATOM     27  C   UNL     1      36.746  24.167   7.416  0.00  0.00    +0.104 C 
ENDBRANCH  15  27
ENDBRANCH   1  21
TORSDOF 2
ENDMDL
MODEL 7
REMARK VINA RESULT:      -6.1      2.505      7.829
REMARK  Name = ZINC000329563636
REMARK  3 active torsions:
REMARK  status: ('A' for Active; 'I' for Inactive)
REMARK    1  A    between atoms: C_1  and  C_2
REMARK    2  A    between atoms: C_2  and  N_3
REMARK    3  A    between atoms: N_9  and  C_10
REMARK                            x       y       z     vdW  Elec       q    Type
REMARK                         _______ _______ _______ _____ _____    ______ ____
ROOT
ATOM      1  C   UNL     1      34.089  23.707  13.145  0.00  0.00    +0.112 C 
ATOM      2  C   UNL     1      34.017  22.627  12.060  0.00  0.00    +0.075 C 
ATOM      3  C   UNL     1      33.877  23.159  10.626  0.00  0.00    +0.113 C 
ATOM      4  C   UNL     1      35.214  23.554   9.945  0.00  0.00    +0.048 C 
ATOM      5  C   UNL     1      35.445  22.536   8.834  0.00  0.00    +0.004 C 
ATOM      6  C   UNL     1      34.046  22.135   8.409  0.00  0.00    +0.004 C 
ATOM      7  C   UNL     1      33.310  22.023   9.734  0.00  0.00    +0.048 C 
ATOM      8  O   UNL     1      32.947  24.258  10.549  0.00  0.00    -0.485 OA
ATOM      9  C   UNL     1      33.281  25.299  11.374  0.00  0.00    +0.126 A 
ATOM     10  C   UNL     1      33.015  26.589  10.918  0.00  0.00    +0.046 A 
ATOM     11  C   UNL     1      33.370  27.693  11.696  0.00  0.00    +0.004 A 
ATOM     12  C   UNL     1      33.968  27.503  12.940  0.00  0.00    +0.001 A 
ATOM     13  C   UNL     1      34.203  26.209  13.407  0.00  0.00    +0.009 A 
ATOM     14  C   UNL     1      33.861  25.095  12.624  0.00  0.00    +0.015 A 
ENDROOT
BRANCH   1  21
ATOM     15  N   UNL     1      30.519  23.659  18.357  0.00  0.00    -0.299 N 
ATOM     16  C   UNL     1      31.954  23.842  18.570  0.00  0.00    +0.127 C 
ATOM     17  C   UNL     1      32.773  22.821  17.788  0.00  0.00    +0.129 C 
ATOM     18  N   UNL     1      32.460  22.954  16.373  0.00  0.00    -0.275 N 
ATOM     19  C   UNL     1      33.468  23.287  15.496  0.00  0.00    +0.303 C 
ATOM     20  O   UNL     1      34.626  23.480  15.864  0.00  0.00    -0.253 OA
ATOM     21  N   UNL     1      33.103  23.423  14.189  0.00  0.00    -0.292 N 
ATOM     22  C   UNL     1      31.039  22.787  16.051  0.00  0.00    +0.205 C 
ATOM     23  C   UNL     1      30.024  23.227  17.127  0.00  0.00    +0.233 C 
ATOM     24  O   UNL     1      28.815  23.157  16.894  0.00  0.00    -0.274 OA
ATOM     25  H   UNL     1      32.283  22.931  13.872  0.00  0.00    +0.151 HD
BRANCH  15  27
ATOM     26  C   UNL     1      30.153  24.264  20.733  0.00  0.00    +0.024 C 
ATOM     27  C   UNL     1      29.599  24.260  19.316  0.00  0.00    +0.104 C 
ENDBRANCH  15  27
ENDBRANCH   1  21
TORSDOF 2
ENDMDL
MODEL 8
REMARK VINA RESULT:      -6.0      3.196      8.127
REMARK  Name = ZINC000329563636
REMARK  3 active torsions:
REMARK  status: ('A' for Active; 'I' for Inactive)
REMARK    1  A    between atoms: C_1  and  C_2
REMARK    2  A    between atoms: C_2  and  N_3
REMARK    3  A    between atoms: N_9  and  C_10
REMARK                            x       y       z     vdW  Elec       q    Type
REMARK                         _______ _______ _______ _____ _____    ______ ____
ROOT
ATOM      1  C   UNL     1      34.075  24.202  14.124  0.00  0.00    +0.112 C 
ATOM      2  C   UNL     1      33.211  23.950  12.883  0.00  0.00    +0.075 C 
ATOM      3  C   UNL     1      33.301  25.036  11.801  0.00  0.00    +0.113 C 
ATOM      4  C   UNL     1      34.496  24.883  10.824  0.00  0.00    +0.048 C 
ATOM      5  C   UNL     1      33.898  24.521   9.470  0.00  0.00    +0.004 C 
ATOM      6  C   UNL     1      32.538  25.189   9.480  0.00  0.00    +0.004 C 
ATOM      7  C   UNL     1      32.046  24.930  10.895  0.00  0.00    +0.048 C 
ATOM      8  O   UNL     1      33.300  26.361  12.367  0.00  0.00    -0.485 OA
ATOM      9  C   UNL     1      34.311  26.556  13.272  0.00  0.00    +0.126 A 
ATOM     10  C   UNL     1      34.897  27.820  13.315  0.00  0.00    +0.046 A 
ATOM     11  C   UNL     1      35.959  28.068  14.187  0.00  0.00    +0.004 A 
ATOM     12  C   UNL     1      36.417  27.059  15.030  0.00  0.00    +0.001 A 
ATOM     13  C   UNL     1      35.806  25.804  15.006  0.00  0.00    +0.009 A 
ATOM     14  C   UNL     1      34.746  25.543  14.123  0.00  0.00    +0.015 A 
ENDROOT
BRANCH   1  21
ATOM     15  N   UNL     1      31.878  23.877  20.037  0.00  0.00    -0.299 N 
ATOM     16  C   UNL     1      33.121  23.151  19.780  0.00  0.00    +0.127 C 
ATOM     17  C   UNL     1      33.022  22.297  18.521  0.00  0.00    +0.129 C 
ATOM     18  N   UNL     1      32.707  23.160  17.392  0.00  0.00    -0.275 N 
ATOM     19  C   UNL     1      33.595  23.234  16.342  0.00  0.00    +0.303 C 
ATOM     20  O   UNL     1      34.647  22.598  16.322  0.00  0.00    -0.253 OA
ATOM     21  N   UNL     1      33.254  24.081  15.330  0.00  0.00    -0.292 N 
ATOM     22  C   UNL     1      31.473  23.936  17.551  0.00  0.00    +0.205 C 
ATOM     23  C   UNL     1      31.089  24.347  18.989  0.00  0.00    +0.233 C 
ATOM     24  O   UNL     1      30.088  25.042  19.181  0.00  0.00    -0.274 OA
ATOM     25  H   UNL     1      32.278  24.296  15.199  0.00  0.00    +0.151 HD
BRANCH  15  27
ATOM     26  C   UNL     1      31.710  23.321  22.448  0.00  0.00    +0.024 C 
ATOM     27  C   UNL     1      31.655  24.404  21.379  0.00  0.00    +0.104 C 
ENDBRANCH  15  27
ENDBRANCH   1  21
TORSDOF 2
ENDMDL
MODEL 9
REMARK VINA RESULT:      -6.0      4.285      6.256
REMARK  Name = ZINC000329563636
REMARK  3 active torsions:
REMARK  status: ('A' for Active; 'I' for Inactive)
REMARK    1  A    between atoms: C_1  and  C_2
REMARK    2  A    between atoms: C_2  and  N_3
REMARK    3  A    between atoms: N_9  and  C_10
REMARK                            x       y       z     vdW  Elec       q    Type
REMARK                         _______ _______ _______ _____ _____    ______ ____
ROOT
ATOM      1  C   UNL     1      34.416  21.296  15.797  0.00  0.00    +0.112 C 
ATOM      2  C   UNL     1      34.716  21.301  17.300  0.00  0.00    +0.075 C 
ATOM      3  C   UNL     1      34.122  20.120  18.082  0.00  0.00    +0.113 C 
ATOM      4  C   UNL     1      34.980  18.828  18.059  0.00  0.00    +0.048 C 
ATOM      5  C   UNL     1      35.507  18.638  19.477  0.00  0.00    +0.004 C 
ATOM      6  C   UNL     1      34.433  19.256  20.351  0.00  0.00    +0.004 C 
ATOM      7  C   UNL     1      34.053  20.510  19.582  0.00  0.00    +0.048 C 
ATOM      8  O   UNL     1      32.777  19.820  17.663  0.00  0.00    -0.485 OA
ATOM      9  C   UNL     1      32.682  19.553  16.322  0.00  0.00    +0.126 A 
ATOM     10  C   UNL     1      31.758  18.587  15.925  0.00  0.00    +0.046 A 
ATOM     11  C   UNL     1      31.644  18.242  14.577  0.00  0.00    +0.004 A 
ATOM     12  C   UNL     1      32.438  18.880  13.626  0.00  0.00    +0.001 A 
ATOM     13  C   UNL     1      33.338  19.869  14.024  0.00  0.00    +0.009 A 
ATOM     14  C   UNL     1      33.467  20.212  15.380  0.00  0.00    +0.015 A 
ENDROOT
BRANCH   1  21
ATOM     15  N   UNL     1      33.354  27.017  13.337  0.00  0.00    -0.299 N 
ATOM     16  C   UNL     1      34.694  26.796  13.880  0.00  0.00    +0.127 C 
ATOM     17  C   UNL     1      34.641  26.169  15.268  0.00  0.00    +0.129 C 
ATOM     18  N   UNL     1      33.925  24.905  15.184  0.00  0.00    -0.275 N 
ATOM     19  C   UNL     1      34.580  23.744  15.528  0.00  0.00    +0.303 C 
ATOM     20  O   UNL     1      35.752  23.733  15.902  0.00  0.00    -0.253 OA
ATOM     21  N   UNL     1      33.861  22.592  15.401  0.00  0.00    -0.292 N 
ATOM     22  C   UNL     1      32.564  25.017  14.650  0.00  0.00    +0.205 C 
ATOM     23  C   UNL     1      32.311  26.137  13.618  0.00  0.00    +0.233 C 
ATOM     24  O   UNL     1      31.199  26.249  13.096  0.00  0.00    -0.274 OA
ATOM     25  H   UNL     1      32.857  22.652  15.447  0.00  0.00    +0.151 HD
BRANCH  15  27
ATOM     26  C   UNL     1      34.367  28.936  12.138  0.00  0.00    +0.024 C 
ATOM     27  C   UNL     1      33.206  27.957  12.231  0.00  0.00    +0.104 C 
ENDBRANCH  15  27
ENDBRANCH   1  21
TORSDOF 2
ENDMDL
