MODEL 1
REMARK VINA RESULT:      -6.3      0.000      0.000
REMARK  Name = ZINC000870248439
REMARK  2 active torsions:
REMARK  status: ('A' for Active; 'I' for Inactive)
REMARK    1  A    between atoms: C_2  and  C_4
REMARK    2  A    between atoms: C_7  and  C_8
REMARK                            x       y       z     vdW  Elec       q    Type
REMARK                         _______ _______ _______ _____ _____    ______ ____
ROOT
ATOM      1  C   UNL     1      33.274  23.366   9.181  0.00  0.00    +0.247 C 
ATOM      2  O   UNL     1      32.535  24.250   8.749  0.00  0.00    -0.270 OA
ATOM      3  N   UNL     1      33.317  22.993  10.531  0.00  0.00    -0.297 N 
ATOM      4  C   UNL     1      34.199  21.975  11.106  0.00  0.00    +0.108 C 
ATOM      5  C   UNL     1      33.535  21.149  12.201  0.00  0.00    +0.026 C 
ATOM      6  C   UNL     1      32.838  22.002  13.282  0.00  0.00    -0.025 C 
ATOM      7  C   UNL     1      32.033  21.036  14.188  0.00  0.00    +0.017 C 
ATOM      8  C   UNL     1      31.300  21.698  15.346  0.00  0.00    +0.069 C 
ATOM      9  S   UNL     1      32.429  22.558  16.476  0.00  0.00    -0.161 S 
ATOM     10  C   UNL     1      33.333  23.575  15.278  0.00  0.00    +0.069 C 
ATOM     11  C   UNL     1      33.902  22.739  14.136  0.00  0.00    +0.017 C 
ATOM     12  C   UNL     1      31.884  22.980  12.547  0.00  0.00    +0.026 C 
ATOM     13  C   UNL     1      32.593  23.825  11.489  0.00  0.00    +0.108 C 
ENDROOT
BRANCH   1  17
ATOM     14  C   UNL     1      35.545  21.435   6.125  0.00  0.00    +0.037 A 
ATOM     15  C   UNL     1      34.473  20.755   6.714  0.00  0.00    +0.014 A 
ATOM     16  C   UNL     1      33.787  21.338   7.779  0.00  0.00    +0.014 A 
ATOM     17  C   UNL     1      34.106  22.636   8.192  0.00  0.00    +0.037 A 
ATOM     18  C   UNL     1      35.234  23.277   7.664  0.00  0.00    +0.014 A 
ATOM     19  C   UNL     1      35.961  22.670   6.637  0.00  0.00    +0.014 A 
BRANCH  14  21
ATOM     20  N   UNL     1      36.620  21.735   3.966  0.00  0.00    -0.325 N 
ATOM     21  C   UNL     1      36.262  20.864   4.957  0.00  0.00    +0.242 C 
ATOM     22  O   UNL     1      36.565  19.682   4.905  0.00  0.00    -0.270 OA
ATOM     23  H   UNL     1      37.213  21.359   3.236  0.00  0.00    +0.145 HD
ATOM     24  H   UNL     1      36.621  22.736   4.099  0.00  0.00    +0.145 HD
ENDBRANCH  14  21
ENDBRANCH   1  17
TORSDOF 2
ENDMDL
MODEL 2
REMARK VINA RESULT:      -6.3     28.289     30.769
REMARK  Name = ZINC000870248439
REMARK  2 active torsions:
REMARK  status: ('A' for Active; 'I' for Inactive)
REMARK    1  A    between atoms: C_2  and  C_4
REMARK    2  A    between atoms: C_7  and  C_8
REMARK                            x       y       z     vdW  Elec       q    Type
REMARK                         _______ _______ _______ _____ _____    ______ ____
ROOT
ATOM      1  C   UNL     1      18.957   5.117  28.133  0.00  0.00    +0.247 C 
ATOM      2  O   UNL     1      18.939   5.664  27.031  0.00  0.00    -0.270 OA
ATOM      3  N   UNL     1      20.124   4.608  28.719  0.00  0.00    -0.297 N 
ATOM      4  C   UNL     1      20.199   3.917  30.008  0.00  0.00    +0.108 C 
ATOM      5  C   UNL     1      21.455   4.256  30.802  0.00  0.00    +0.026 C 
ATOM      6  C   UNL     1      22.758   4.122  29.985  0.00  0.00    -0.025 C 
ATOM      7  C   UNL     1      23.907   4.704  30.847  0.00  0.00    +0.017 C 
ATOM      8  C   UNL     1      25.290   4.624  30.215  0.00  0.00    +0.069 C 
ATOM      9  S   UNL     1      25.793   2.917  29.868  0.00  0.00    -0.161 S 
ATOM     10  C   UNL     1      24.339   2.360  28.938  0.00  0.00    +0.069 C 
ATOM     11  C   UNL     1      23.043   2.625  29.695  0.00  0.00    +0.017 C 
ATOM     12  C   UNL     1      22.573   4.955  28.690  0.00  0.00    +0.026 C 
ATOM     13  C   UNL     1      21.330   4.556  27.895  0.00  0.00    +0.108 C 
ENDROOT
BRANCH   1  17
ATOM     14  C   UNL     1      15.137   5.036  30.038  0.00  0.00    +0.037 A 
ATOM     15  C   UNL     1      16.026   6.076  30.330  0.00  0.00    +0.014 A 
ATOM     16  C   UNL     1      17.311   6.060  29.789  0.00  0.00    +0.014 A 
ATOM     17  C   UNL     1      17.677   5.060  28.881  0.00  0.00    +0.037 A 
ATOM     18  C   UNL     1      16.820   3.974  28.661  0.00  0.00    +0.014 A 
ATOM     19  C   UNL     1      15.553   3.957  29.248  0.00  0.00    +0.014 A 
BRANCH  14  21
ATOM     20  N   UNL     1      12.948   6.088  30.153  0.00  0.00    -0.325 N 
ATOM     21  C   UNL     1      13.746   5.053  30.555  0.00  0.00    +0.242 C 
ATOM     22  O   UNL     1      13.314   4.156  31.264  0.00  0.00    -0.270 OA
ATOM     23  H   UNL     1      11.972   6.023  30.411  0.00  0.00    +0.145 HD
ATOM     24  H   UNL     1      13.187   6.684  29.374  0.00  0.00    +0.145 HD
ENDBRANCH  14  21
ENDBRANCH   1  17
TORSDOF 2
ENDMDL
MODEL 3
REMARK VINA RESULT:      -6.3      4.173      8.132
REMARK  Name = ZINC000870248439
REMARK  2 active torsions:
REMARK  status: ('A' for Active; 'I' for Inactive)
REMARK    1  A    between atoms: C_2  and  C_4
REMARK    2  A    between atoms: C_7  and  C_8
REMARK                            x       y       z     vdW  Elec       q    Type
REMARK                         _______ _______ _______ _____ _____    ______ ____
ROOT
ATOM      1  C   UNL     1      35.448  24.587   8.808  0.00  0.00    +0.247 C 
ATOM      2  O   UNL     1      35.803  25.765   8.837  0.00  0.00    -0.270 OA
ATOM      3  N   UNL     1      36.040  23.628   7.976  0.00  0.00    -0.297 N 
ATOM      4  C   UNL     1      35.637  22.223   7.874  0.00  0.00    +0.108 C 
ATOM      5  C   UNL     1      36.813  21.270   7.697  0.00  0.00    +0.026 C 
ATOM      6  C   UNL     1      37.783  21.687   6.571  0.00  0.00    -0.025 C 
ATOM      7  C   UNL     1      39.021  20.759   6.660  0.00  0.00    +0.017 C 
ATOM      8  C   UNL     1      40.083  20.999   5.595  0.00  0.00    +0.069 C 
ATOM      9  S   UNL     1      39.443  20.756   3.915  0.00  0.00    -0.161 S 
ATOM     10  C   UNL     1      37.983  21.828   3.994  0.00  0.00    +0.069 C 
ATOM     11  C   UNL     1      37.099  21.499   5.192  0.00  0.00    +0.017 C 
ATOM     12  C   UNL     1      38.187  23.160   6.839  0.00  0.00    +0.026 C 
ATOM     13  C   UNL     1      36.984  24.096   6.964  0.00  0.00    +0.108 C 
ENDROOT
BRANCH   1  17
ATOM     14  C   UNL     1      32.315  23.698  11.569  0.00  0.00    +0.037 A 
ATOM     15  C   UNL     1      33.646  23.552  11.974  0.00  0.00    +0.014 A 
ATOM     16  C   UNL     1      34.675  23.745  11.052  0.00  0.00    +0.014 A 
ATOM     17  C   UNL     1      34.381  24.179   9.754  0.00  0.00    +0.037 A 
ATOM     18  C   UNL     1      33.048  24.237   9.325  0.00  0.00    +0.014 A 
ATOM     19  C   UNL     1      32.014  23.986  10.231  0.00  0.00    +0.014 A 
BRANCH  14  21
ATOM     20  N   UNL     1      30.621  24.701  12.994  0.00  0.00    -0.325 N 
ATOM     21  C   UNL     1      31.201  23.551  12.538  0.00  0.00    +0.242 C 
ATOM     22  O   UNL     1      30.784  22.452  12.874  0.00  0.00    -0.270 OA
ATOM     23  H   UNL     1      29.787  24.587  13.556  0.00  0.00    +0.145 HD
ATOM     24  H   UNL     1      30.762  25.594  12.543  0.00  0.00    +0.145 HD
ENDBRANCH  14  21
ENDBRANCH   1  17
TORSDOF 2
ENDMDL
MODEL 4
REMARK VINA RESULT:      -6.1      3.913      8.165
REMARK  Name = ZINC000870248439
REMARK  2 active torsions:
REMARK  status: ('A' for Active; 'I' for Inactive)
REMARK    1  A    between atoms: C_2  and  C_4
REMARK    2  A    between atoms: C_7  and  C_8
REMARK                            x       y       z     vdW  Elec       q    Type
REMARK                         _______ _______ _______ _____ _____    ______ ____
ROOT
ATOM      1  C   UNL     1      35.024  21.208  12.425  0.00  0.00    +0.247 C 
ATOM      2  O   UNL     1      35.917  20.489  12.872  0.00  0.00    -0.270 OA
ATOM      3  N   UNL     1      35.077  21.796  11.154  0.00  0.00    -0.297 N 
ATOM      4  C   UNL     1      34.063  22.687  10.586  0.00  0.00    +0.108 C 
ATOM      5  C   UNL     1      33.840  22.473   9.094  0.00  0.00    +0.026 C 
ATOM      6  C   UNL     1      35.145  22.463   8.268  0.00  0.00    -0.025 C 
ATOM      7  C   UNL     1      34.779  22.020   6.829  0.00  0.00    +0.017 C 
ATOM      8  C   UNL     1      35.944  21.986   5.850  0.00  0.00    +0.069 C 
ATOM      9  S   UNL     1      36.725  23.610   5.649  0.00  0.00    -0.161 S 
ATOM     10  C   UNL     1      37.019  24.018   7.392  0.00  0.00    +0.069 C 
ATOM     11  C   UNL     1      35.751  23.890   8.228  0.00  0.00    +0.017 C 
ATOM     12  C   UNL     1      36.095  21.431   8.930  0.00  0.00    +0.026 C 
ATOM     13  C   UNL     1      36.333  21.705  10.415  0.00  0.00    +0.108 C 
ENDROOT
BRANCH   1  17
ATOM     14  C   UNL     1      31.713  21.640  15.085  0.00  0.00    +0.037 A 
ATOM     15  C   UNL     1      31.698  20.612  14.136  0.00  0.00    +0.014 A 
ATOM     16  C   UNL     1      32.728  20.522  13.200  0.00  0.00    +0.014 A 
ATOM     17  C   UNL     1      33.819  21.395  13.271  0.00  0.00    +0.037 A 
ATOM     18  C   UNL     1      33.788  22.476  14.161  0.00  0.00    +0.014 A 
ATOM     19  C   UNL     1      32.728  22.605  15.062  0.00  0.00    +0.014 A 
BRANCH  14  21
ATOM     20  N   UNL     1      30.346  22.982  16.582  0.00  0.00    -0.325 N 
ATOM     21  C   UNL     1      30.660  21.732  16.127  0.00  0.00    +0.242 C 
ATOM     22  O   UNL     1      30.061  20.743  16.523  0.00  0.00    -0.270 OA
ATOM     23  H   UNL     1      29.546  23.044  17.198  0.00  0.00    +0.145 HD
ATOM     24  H   UNL     1      30.626  23.822  16.094  0.00  0.00    +0.145 HD
ENDBRANCH  14  21
ENDBRANCH   1  17
TORSDOF 2
ENDMDL
MODEL 5
REMARK VINA RESULT:      -6.0     14.834     16.482
REMARK  Name = ZINC000870248439
REMARK  2 active torsions:
REMARK  status: ('A' for Active; 'I' for Inactive)
REMARK    1  A    between atoms: C_2  and  C_4
REMARK    2  A    between atoms: C_7  and  C_8
REMARK                            x       y       z     vdW  Elec       q    Type
REMARK                         _______ _______ _______ _____ _____    ______ ____
ROOT
ATOM      1  C   UNL     1      26.238  32.171  16.754  0.00  0.00    +0.247 C 
ATOM      2  O   UNL     1      27.062  31.385  17.222  0.00  0.00    -0.270 OA
ATOM      3  N   UNL     1      26.535  33.508  16.457  0.00  0.00    -0.297 N 
ATOM      4  C   UNL     1      25.588  34.495  15.934  0.00  0.00    +0.108 C 
ATOM      5  C   UNL     1      26.208  35.446  14.918  0.00  0.00    +0.026 C 
ATOM      6  C   UNL     1      27.525  36.092  15.399  0.00  0.00    -0.025 C 
ATOM      7  C   UNL     1      28.138  36.847  14.192  0.00  0.00    +0.017 C 
ATOM      8  C   UNL     1      29.437  37.585  14.486  0.00  0.00    +0.069 C 
ATOM      9  S   UNL     1      29.236  38.851  15.769  0.00  0.00    -0.161 S 
ATOM     10  C   UNL     1      28.453  37.847  17.060  0.00  0.00    +0.069 C 
ATOM     11  C   UNL     1      27.230  37.101  16.539  0.00  0.00    +0.017 C 
ATOM     12  C   UNL     1      28.459  34.940  15.852  0.00  0.00    +0.026 C 
ATOM     13  C   UNL     1      27.822  34.033  16.905  0.00  0.00    +0.108 C 
ENDROOT
BRANCH   1  17
ATOM     14  C   UNL     1      22.442  30.371  15.994  0.00  0.00    +0.037 A 
ATOM     15  C   UNL     1      23.339  30.551  14.935  0.00  0.00    +0.014 A 
ATOM     16  C   UNL     1      24.541  31.225  15.154  0.00  0.00    +0.014 A 
ATOM     17  C   UNL     1      24.890  31.633  16.445  0.00  0.00    +0.037 A 
ATOM     18  C   UNL     1      23.955  31.534  17.483  0.00  0.00    +0.014 A 
ATOM     19  C   UNL     1      22.725  30.912  17.254  0.00  0.00    +0.014 A 
BRANCH  14  21
ATOM     20  N   UNL     1      21.289  28.347  15.301  0.00  0.00    -0.325 N 
ATOM     21  C   UNL     1      21.181  29.612  15.805  0.00  0.00    +0.242 C 
ATOM     22  O   UNL     1      20.099  30.074  16.135  0.00  0.00    -0.270 OA
ATOM     23  H   UNL     1      20.440  27.796  15.292  0.00  0.00    +0.145 HD
ATOM     24  H   UNL     1      22.169  27.850  15.271  0.00  0.00    +0.145 HD
ENDBRANCH  14  21
ENDBRANCH   1  17
TORSDOF 2
ENDMDL
MODEL 6
REMARK VINA RESULT:      -6.0      7.197      9.738
REMARK  Name = ZINC000870248439
REMARK  2 active torsions:
REMARK  status: ('A' for Active; 'I' for Inactive)
REMARK    1  A    between atoms: C_2  and  C_4
REMARK    2  A    between atoms: C_7  and  C_8
REMARK                            x       y       z     vdW  Elec       q    Type
REMARK                         _______ _______ _______ _____ _____    ______ ____
ROOT
ATOM      1  C   UNL     1      35.725  18.873  14.977  0.00  0.00    +0.247 C 
ATOM      2  O   UNL     1      36.318  19.034  13.912  0.00  0.00    -0.270 OA
ATOM      3  N   UNL     1      36.225  18.085  16.023  0.00  0.00    -0.297 N 
ATOM      4  C   UNL     1      35.547  17.830  17.296  0.00  0.00    +0.108 C 
ATOM      5  C   UNL     1      36.498  17.780  18.486  0.00  0.00    +0.026 C 
ATOM      6  C   UNL     1      37.713  16.853  18.269  0.00  0.00    -0.025 C 
ATOM      7  C   UNL     1      38.685  17.077  19.455  0.00  0.00    +0.017 C 
ATOM      8  C   UNL     1      39.939  16.212  19.433  0.00  0.00    +0.069 C 
ATOM      9  S   UNL     1      39.555  14.440  19.478  0.00  0.00    -0.161 S 
ATOM     10  C   UNL     1      38.373  14.355  18.106  0.00  0.00    +0.069 C 
ATOM     11  C   UNL     1      37.249  15.373  18.258  0.00  0.00    +0.017 C 
ATOM     12  C   UNL     1      38.378  17.277  16.933  0.00  0.00    +0.026 C 
ATOM     13  C   UNL     1      37.406  17.269  15.753  0.00  0.00    +0.108 C 
ENDROOT
BRANCH   1  17
ATOM     14  C   UNL     1      32.057  20.905  15.784  0.00  0.00    +0.037 A 
ATOM     15  C   UNL     1      32.033  19.713  15.051  0.00  0.00    +0.014 A 
ATOM     16  C   UNL     1      33.232  19.094  14.699  0.00  0.00    +0.014 A 
ATOM     17  C   UNL     1      34.449  19.608  15.159  0.00  0.00    +0.037 A 
ATOM     18  C   UNL     1      34.477  20.846  15.814  0.00  0.00    +0.014 A 
ATOM     19  C   UNL     1      33.280  21.501  16.117  0.00  0.00    +0.014 A 
BRANCH  14  21
ATOM     20  N   UNL     1      30.796  22.925  16.266  0.00  0.00    -0.325 N 
ATOM     21  C   UNL     1      30.798  21.559  16.218  0.00  0.00    +0.242 C 
ATOM     22  O   UNL     1      29.793  20.913  16.471  0.00  0.00    -0.270 OA
ATOM     23  H   UNL     1      29.900  23.363  16.443  0.00  0.00    +0.145 HD
ATOM     24  H   UNL     1      31.508  23.484  15.817  0.00  0.00    +0.145 HD
ENDBRANCH  14  21
ENDBRANCH   1  17
TORSDOF 2
ENDMDL
MODEL 7
REMARK VINA RESULT:      -5.9      6.820      9.445
REMARK  Name = ZINC000870248439
REMARK  2 active torsions:
REMARK  status: ('A' for Active; 'I' for Inactive)
REMARK    1  A    between atoms: C_2  and  C_4
REMARK    2  A    between atoms: C_7  and  C_8
REMARK                            x       y       z     vdW  Elec       q    Type
REMARK                         _______ _______ _______ _____ _____    ______ ____
ROOT
ATOM      1  C   UNL     1      35.119  17.278  13.912  0.00  0.00    +0.247 C 
ATOM      2  O   UNL     1      36.206  17.428  14.470  0.00  0.00    -0.270 OA
ATOM      3  N   UNL     1      34.719  16.072  13.321  0.00  0.00    -0.297 N 
ATOM      4  C   UNL     1      33.456  15.848  12.614  0.00  0.00    +0.108 C 
ATOM      5  C   UNL     1      32.865  14.465  12.860  0.00  0.00    +0.026 C 
ATOM      6  C   UNL     1      33.871  13.314  12.647  0.00  0.00    -0.025 C 
ATOM      7  C   UNL     1      33.196  12.011  13.143  0.00  0.00    +0.017 C 
ATOM      8  C   UNL     1      34.033  10.749  12.977  0.00  0.00    +0.069 C 
ATOM      9  S   UNL     1      34.452  10.422  11.243  0.00  0.00    -0.161 S 
ATOM     10  C   UNL     1      35.149  12.035  10.795  0.00  0.00    +0.069 C 
ATOM     11  C   UNL     1      34.202  13.180  11.138  0.00  0.00    +0.017 C 
ATOM     12  C   UNL     1      35.123  13.639  13.504  0.00  0.00    +0.026 C 
ATOM     13  C   UNL     1      35.718  15.013  13.197  0.00  0.00    +0.108 C 
ENDROOT
BRANCH   1  17
ATOM     14  C   UNL     1      32.205  20.398  13.981  0.00  0.00    +0.037 A 
ATOM     15  C   UNL     1      32.888  20.126  12.791  0.00  0.00    +0.014 A 
ATOM     16  C   UNL     1      33.910  19.176  12.782  0.00  0.00    +0.014 A 
ATOM     17  C   UNL     1      34.184  18.430  13.934  0.00  0.00    +0.037 A 
ATOM     18  C   UNL     1      33.563  18.765  15.144  0.00  0.00    +0.014 A 
ATOM     19  C   UNL     1      32.580  19.758  15.169  0.00  0.00    +0.014 A 
BRANCH  14  21
ATOM     20  N   UNL     1      30.399  21.485  15.190  0.00  0.00    -0.325 N 
ATOM     21  C   UNL     1      31.079  21.364  14.011  0.00  0.00    +0.242 C 
ATOM     22  O   UNL     1      30.804  22.059  13.044  0.00  0.00    -0.270 OA
ATOM     23  H   UNL     1      29.716  22.231  15.236  0.00  0.00    +0.145 HD
ATOM     24  H   UNL     1      30.762  21.130  16.063  0.00  0.00    +0.145 HD
ENDBRANCH  14  21
ENDBRANCH   1  17
TORSDOF 2
ENDMDL
MODEL 8
REMARK VINA RESULT:      -5.9     14.774     17.264
REMARK  Name = ZINC000870248439
REMARK  2 active torsions:
REMARK  status: ('A' for Active; 'I' for Inactive)
REMARK    1  A    between atoms: C_2  and  C_4
REMARK    2  A    between atoms: C_7  and  C_8
REMARK                            x       y       z     vdW  Elec       q    Type
REMARK                         _______ _______ _______ _____ _____    ______ ____
ROOT
ATOM      1  C   UNL     1      25.126  35.792  15.961  0.00  0.00    +0.247 C 
ATOM      2  O   UNL     1      24.382  36.367  16.755  0.00  0.00    -0.270 OA
ATOM      3  N   UNL     1      26.123  36.451  15.229  0.00  0.00    -0.297 N 
ATOM      4  C   UNL     1      27.012  35.826  14.247  0.00  0.00    +0.108 C 
ATOM      5  C   UNL     1      28.430  36.383  14.277  0.00  0.00    +0.026 C 
ATOM      6  C   UNL     1      28.491  37.924  14.229  0.00  0.00    -0.025 C 
ATOM      7  C   UNL     1      29.962  38.338  14.488  0.00  0.00    +0.017 C 
ATOM      8  C   UNL     1      30.227  39.837  14.443  0.00  0.00    +0.069 C 
ATOM      9  S   UNL     1      29.820  40.561  12.830  0.00  0.00    -0.161 S 
ATOM     10  C   UNL     1      28.129  39.935  12.640  0.00  0.00    +0.069 C 
ATOM     11  C   UNL     1      28.057  38.424  12.827  0.00  0.00    +0.017 C 
ATOM     12  C   UNL     1      27.570  38.452  15.360  0.00  0.00    +0.026 C 
ATOM     13  C   UNL     1      26.144  37.911  15.271  0.00  0.00    +0.108 C 
ENDROOT
BRANCH   1  17
ATOM     14  C   UNL     1      24.470  31.577  15.793  0.00  0.00    +0.037 A 
ATOM     15  C   UNL     1      25.565  32.071  16.510  0.00  0.00    +0.014 A 
ATOM     16  C   UNL     1      25.844  33.437  16.491  0.00  0.00    +0.014 A 
ATOM     17  C   UNL     1      24.977  34.321  15.838  0.00  0.00    +0.037 A 
ATOM     18  C   UNL     1      23.936  33.817  15.048  0.00  0.00    +0.014 A 
ATOM     19  C   UNL     1      23.689  32.442  15.017  0.00  0.00    +0.014 A 
BRANCH  14  21
ATOM     20  N   UNL     1      22.939  29.770  15.245  0.00  0.00    -0.325 N 
ATOM     21  C   UNL     1      24.116  30.136  15.836  0.00  0.00    +0.242 C 
ATOM     22  O   UNL     1      24.865  29.306  16.329  0.00  0.00    -0.270 OA
ATOM     23  H   UNL     1      22.768  28.775  15.173  0.00  0.00    +0.145 HD
ATOM     24  H   UNL     1      22.440  30.377  14.611  0.00  0.00    +0.145 HD
ENDBRANCH  14  21
ENDBRANCH   1  17
TORSDOF 2
ENDMDL
MODEL 9
REMARK VINA RESULT:      -5.9      6.886      9.673
REMARK  Name = ZINC000870248439
REMARK  2 active torsions:
REMARK  status: ('A' for Active; 'I' for Inactive)
REMARK    1  A    between atoms: C_2  and  C_4
REMARK    2  A    between atoms: C_7  and  C_8
REMARK                            x       y       z     vdW  Elec       q    Type
REMARK                         _______ _______ _______ _____ _____    ______ ____
ROOT
ATOM      1  C   UNL     1      34.612  18.712  17.661  0.00  0.00    +0.247 C 
ATOM      2  O   UNL     1      34.243  18.753  18.834  0.00  0.00    -0.270 OA
ATOM      3  N   UNL     1      35.450  17.709  17.155  0.00  0.00    -0.297 N 
ATOM      4  C   UNL     1      35.949  17.630  15.780  0.00  0.00    +0.108 C 
ATOM      5  C   UNL     1      36.019  16.205  15.245  0.00  0.00    +0.026 C 
ATOM      6  C   UNL     1      36.743  15.224  16.192  0.00  0.00    -0.025 C 
ATOM      7  C   UNL     1      36.541  13.797  15.623  0.00  0.00    +0.017 C 
ATOM      8  C   UNL     1      37.222  12.686  16.411  0.00  0.00    +0.069 C 
ATOM      9  S   UNL     1      39.022  12.901  16.491  0.00  0.00    -0.161 S 
ATOM     10  C   UNL     1      39.092  14.611  17.091  0.00  0.00    +0.069 C 
ATOM     11  C   UNL     1      38.259  15.552  16.228  0.00  0.00    +0.017 C 
ATOM     12  C   UNL     1      36.073  15.354  17.584  0.00  0.00    +0.026 C 
ATOM     13  C   UNL     1      36.062  16.790  18.110  0.00  0.00    +0.108 C 
ENDROOT
BRANCH   1  17
ATOM     14  C   UNL     1      32.951  21.833  15.267  0.00  0.00    +0.037 A 
ATOM     15  C   UNL     1      32.411  20.545  15.184  0.00  0.00    +0.014 A 
ATOM     16  C   UNL     1      33.007  19.498  15.887  0.00  0.00    +0.014 A 
ATOM     17  C   UNL     1      34.080  19.754  16.748  0.00  0.00    +0.037 A 
ATOM     18  C   UNL     1      34.675  21.022  16.761  0.00  0.00    +0.014 A 
ATOM     19  C   UNL     1      34.115  22.060  16.011  0.00  0.00    +0.014 A 
BRANCH  14  21
ATOM     20  N   UNL     1      31.238  23.556  15.196  0.00  0.00    -0.325 N 
ATOM     21  C   UNL     1      32.308  22.976  14.573  0.00  0.00    +0.242 C 
ATOM     22  O   UNL     1      32.746  23.416  13.521  0.00  0.00    -0.270 OA
ATOM     23  H   UNL     1      30.887  24.407  14.777  0.00  0.00    +0.145 HD
ATOM     24  H   UNL     1      31.024  23.391  16.170  0.00  0.00    +0.145 HD
ENDBRANCH  14  21
ENDBRANCH   1  17
TORSDOF 2
ENDMDL
