MODEL 1
REMARK VINA RESULT:      -7.0      0.000      0.000
REMARK  Name = ZINC000826139982
REMARK  4 active torsions:
REMARK  status: ('A' for Active; 'I' for Inactive)
REMARK    1  A    between atoms: C_2  and  C_4
REMARK    2  A    between atoms: C_8  and  C_10
REMARK    3  A    between atoms: C_14  and  S_15
REMARK    4  A    between atoms: S_15  and  C_16
REMARK                            x       y       z     vdW  Elec       q    Type
REMARK                         _______ _______ _______ _____ _____    ______ ____
ROOT
ATOM      1  C   UNL     1      30.645  23.612  19.430  0.00  0.00    +0.093 C 
ATOM      2  C   UNL     1      29.138  23.809  19.624  0.00  0.00    +0.033 C 
ATOM      3  C   UNL     1      28.480  22.667  18.862  0.00  0.00    +0.109 C 
ATOM      4  N   UNL     1      29.431  22.340  17.820  0.00  0.00    -0.297 N 
ATOM      5  C   UNL     1      29.028  21.752  16.627  0.00  0.00    +0.247 C 
ATOM      6  O   UNL     1      27.839  21.561  16.374  0.00  0.00    -0.270 OA
ATOM      7  C   UNL     1      30.778  22.596  18.303  0.00  0.00    +0.120 C 
ENDROOT
BRANCH   5   8
ATOM      8  C   UNL     1      30.030  21.395  15.568  0.00  0.00    +0.038 A 
ATOM      9  C   UNL     1      30.298  20.081  15.172  0.00  0.00    +0.013 A 
ATOM     10  C   UNL     1      31.326  19.797  14.274  0.00  0.00    +0.002 A 
ATOM     11  C   UNL     1      32.030  20.836  13.676  0.00  0.00    +0.015 A 
ATOM     12  C   UNL     1      31.688  22.164  13.950  0.00  0.00    +0.017 A 
ATOM     13  C   UNL     1      30.714  22.438  14.922  0.00  0.00    +0.028 A 
BRANCH  12  14
ATOM     14  S   UNL     1      32.503  23.506  13.108  0.00  0.00    -0.016 S 
BRANCH  14  15
ATOM     15  C   UNL     1      31.127  24.233  12.194  0.00  0.00    +0.448 C 
ATOM     16  F   UNL     1      30.698  25.417  12.690  0.00  0.00    -0.160 F 
ATOM     17  F   UNL     1      31.466  24.444  10.899  0.00  0.00    -0.160 F 
ATOM     18  F   UNL     1      30.060  23.396  12.194  0.00  0.00    -0.160 F 
ENDBRANCH  14  15
ENDBRANCH  12  14
ENDBRANCH   5   8
BRANCH   1  20
ATOM     19  N   UNL     1      30.872  23.658  21.848  0.00  0.00    -0.329 N 
ATOM     20  C   UNL     1      31.387  23.178  20.680  0.00  0.00    +0.215 C 
ATOM     21  O   UNL     1      32.406  22.504  20.689  0.00  0.00    -0.276 OA
ATOM     22  H   UNL     1      31.377  23.449  22.701  0.00  0.00    +0.145 HD
ATOM     23  H   UNL     1      30.075  24.276  21.894  0.00  0.00    +0.145 HD
ENDBRANCH   1  20
TORSDOF 4
ENDMDL
MODEL 2
REMARK VINA RESULT:      -6.9      2.908      3.786
REMARK  Name = ZINC000826139982
REMARK  4 active torsions:
REMARK  status: ('A' for Active; 'I' for Inactive)
REMARK    1  A    between atoms: C_2  and  C_4
REMARK    2  A    between atoms: C_8  and  C_10
REMARK    3  A    between atoms: C_14  and  S_15
REMARK    4  A    between atoms: S_15  and  C_16
REMARK                            x       y       z     vdW  Elec       q    Type
REMARK                         _______ _______ _______ _____ _____    ______ ____
ROOT
ATOM      1  C   UNL     1      30.688  23.597  19.394  0.00  0.00    +0.093 C 
ATOM      2  C   UNL     1      29.165  23.714  19.523  0.00  0.00    +0.033 C 
ATOM      3  C   UNL     1      28.600  22.563  18.701  0.00  0.00    +0.109 C 
ATOM      4  N   UNL     1      29.612  22.314  17.696  0.00  0.00    -0.297 N 
ATOM      5  C   UNL     1      29.294  21.742  16.470  0.00  0.00    +0.247 C 
ATOM      6  O   UNL     1      28.128  21.500  16.158  0.00  0.00    -0.270 OA
ATOM      7  C   UNL     1      30.922  22.621  18.248  0.00  0.00    +0.120 C 
ENDROOT
BRANCH   5   8
ATOM      8  C   UNL     1      30.358  21.464  15.450  0.00  0.00    +0.038 A 
ATOM      9  C   UNL     1      30.837  22.425  14.554  0.00  0.00    +0.013 A 
ATOM     10  C   UNL     1      31.736  22.082  13.546  0.00  0.00    +0.002 A 
ATOM     11  C   UNL     1      32.253  20.792  13.487  0.00  0.00    +0.015 A 
ATOM     12  C   UNL     1      31.897  19.850  14.457  0.00  0.00    +0.017 A 
ATOM     13  C   UNL     1      30.924  20.179  15.412  0.00  0.00    +0.028 A 
BRANCH  12  14
ATOM     14  S   UNL     1      32.635  18.229  14.464  0.00  0.00    -0.016 S 
BRANCH  14  15
ATOM     15  C   UNL     1      31.244  17.208  13.932  0.00  0.00    +0.448 C 
ATOM     16  F   UNL     1      31.607  16.044  13.344  0.00  0.00    -0.160 F 
ATOM     17  F   UNL     1      30.448  16.892  14.981  0.00  0.00    -0.160 F 
ATOM     18  F   UNL     1      30.476  17.879  13.038  0.00  0.00    -0.160 F 
ENDBRANCH  14  15
ENDBRANCH  12  14
ENDBRANCH   5   8
BRANCH   1  20
ATOM     19  N   UNL     1      30.840  23.637  21.818  0.00  0.00    -0.329 N 
ATOM     20  C   UNL     1      31.393  23.163  20.666  0.00  0.00    +0.215 C 
ATOM     21  O   UNL     1      32.416  22.496  20.704  0.00  0.00    -0.276 OA
ATOM     22  H   UNL     1      31.319  23.429  22.686  0.00  0.00    +0.145 HD
ATOM     23  H   UNL     1      30.038  24.250  21.841  0.00  0.00    +0.145 HD
ENDBRANCH   1  20
TORSDOF 4
ENDMDL
MODEL 3
REMARK VINA RESULT:      -6.7      4.730      6.897
REMARK  Name = ZINC000826139982
REMARK  4 active torsions:
REMARK  status: ('A' for Active; 'I' for Inactive)
REMARK    1  A    between atoms: C_2  and  C_4
REMARK    2  A    between atoms: C_8  and  C_10
REMARK    3  A    between atoms: C_14  and  S_15
REMARK    4  A    between atoms: S_15  and  C_16
REMARK                            x       y       z     vdW  Elec       q    Type
REMARK                         _______ _______ _______ _____ _____    ______ ____
ROOT
ATOM      1  C   UNL     1      31.062  17.779  14.502  0.00  0.00    +0.093 C 
ATOM      2  C   UNL     1      31.539  18.286  13.137  0.00  0.00    +0.033 C 
ATOM      3  C   UNL     1      32.207  19.626  13.415  0.00  0.00    +0.109 C 
ATOM      4  N   UNL     1      31.548  20.111  14.610  0.00  0.00    -0.297 N 
ATOM      5  C   UNL     1      31.470  21.468  14.897  0.00  0.00    +0.247 C 
ATOM      6  O   UNL     1      31.883  22.317  14.107  0.00  0.00    -0.270 OA
ATOM      7  C   UNL     1      31.160  18.979  15.436  0.00  0.00    +0.120 C 
ENDROOT
BRANCH   5   8
ATOM      8  C   UNL     1      30.808  21.952  16.153  0.00  0.00    +0.038 A 
ATOM      9  C   UNL     1      29.473  21.689  16.473  0.00  0.00    +0.013 A 
ATOM     10  C   UNL     1      28.874  22.266  17.591  0.00  0.00    +0.002 A 
ATOM     11  C   UNL     1      29.635  23.033  18.467  0.00  0.00    +0.015 A 
ATOM     12  C   UNL     1      31.006  23.197  18.245  0.00  0.00    +0.017 A 
ATOM     13  C   UNL     1      31.579  22.687  17.070  0.00  0.00    +0.028 A 
BRANCH  12  14
ATOM     14  S   UNL     1      32.018  24.080  19.414  0.00  0.00    -0.016 S 
BRANCH  14  15
ATOM     15  C   UNL     1      32.370  22.784  20.621  0.00  0.00    +0.448 C 
ATOM     16  F   UNL     1      33.416  23.057  21.435  0.00  0.00    -0.160 F 
ATOM     17  F   UNL     1      31.296  22.559  21.415  0.00  0.00    -0.160 F 
ATOM     18  F   UNL     1      32.653  21.614  19.995  0.00  0.00    -0.160 F 
ENDBRANCH  14  15
ENDBRANCH  12  14
ENDBRANCH   5   8
BRANCH   1  20
ATOM     19  N   UNL     1      32.185  15.666  14.083  0.00  0.00    -0.329 N 
ATOM     20  C   UNL     1      31.830  16.581  15.030  0.00  0.00    +0.215 C 
ATOM     21  O   UNL     1      32.080  16.376  16.208  0.00  0.00    -0.276 OA
ATOM     22  H   UNL     1      32.638  14.818  14.401  0.00  0.00    +0.145 HD
ATOM     23  H   UNL     1      31.941  15.750  13.107  0.00  0.00    +0.145 HD
ENDBRANCH   1  20
TORSDOF 4
ENDMDL
MODEL 4
REMARK VINA RESULT:      -6.6      4.738      7.130
REMARK  Name = ZINC000826139982
REMARK  4 active torsions:
REMARK  status: ('A' for Active; 'I' for Inactive)
REMARK    1  A    between atoms: C_2  and  C_4
REMARK    2  A    between atoms: C_8  and  C_10
REMARK    3  A    between atoms: C_14  and  S_15
REMARK    4  A    between atoms: S_15  and  C_16
REMARK                            x       y       z     vdW  Elec       q    Type
REMARK                         _______ _______ _______ _____ _____    ______ ____
ROOT
ATOM      1  C   UNL     1      32.632  23.145  12.746  0.00  0.00    +0.093 C 
ATOM      2  C   UNL     1      33.421  21.840  12.588  0.00  0.00    +0.033 C 
ATOM      3  C   UNL     1      32.634  20.795  13.368  0.00  0.00    +0.109 C 
ATOM      4  N   UNL     1      31.944  21.558  14.388  0.00  0.00    -0.297 N 
ATOM      5  C   UNL     1      31.558  20.980  15.591  0.00  0.00    +0.247 C 
ATOM      6  O   UNL     1      31.860  19.821  15.873  0.00  0.00    -0.270 OA
ATOM      7  C   UNL     1      31.639  22.882  13.872  0.00  0.00    +0.120 C 
ENDROOT
BRANCH   5   8
ATOM      8  C   UNL     1      30.820  21.777  16.626  0.00  0.00    +0.038 A 
ATOM      9  C   UNL     1      29.427  21.781  16.747  0.00  0.00    +0.013 A 
ATOM     10  C   UNL     1      28.787  22.634  17.644  0.00  0.00    +0.002 A 
ATOM     11  C   UNL     1      29.539  23.421  18.510  0.00  0.00    +0.015 A 
ATOM     12  C   UNL     1      30.934  23.332  18.505  0.00  0.00    +0.017 A 
ATOM     13  C   UNL     1      31.569  22.538  17.539  0.00  0.00    +0.028 A 
BRANCH  12  14
ATOM     14  S   UNL     1      31.908  24.245  19.683  0.00  0.00    -0.016 S 
BRANCH  14  15
ATOM     15  C   UNL     1      32.109  23.021  20.995  0.00  0.00    +0.448 C 
ATOM     16  F   UNL     1      32.558  21.819  20.564  0.00  0.00    -0.160 F 
ATOM     17  F   UNL     1      32.984  23.458  21.933  0.00  0.00    -0.160 F 
ATOM     18  F   UNL     1      30.929  22.799  21.624  0.00  0.00    -0.160 F 
ENDBRANCH  14  15
ENDBRANCH  12  14
ENDBRANCH   5   8
BRANCH   1  20
ATOM     19  N   UNL     1      32.210  22.872  10.369  0.00  0.00    -0.329 N 
ATOM     20  C   UNL     1      31.946  23.619  11.479  0.00  0.00    +0.215 C 
ATOM     21  O   UNL     1      31.253  24.622  11.394  0.00  0.00    -0.276 OA
ATOM     22  H   UNL     1      31.828  23.194   9.488  0.00  0.00    +0.145 HD
ATOM     23  H   UNL     1      32.832  22.077  10.367  0.00  0.00    +0.145 HD
ENDBRANCH   1  20
TORSDOF 4
ENDMDL
MODEL 5
REMARK VINA RESULT:      -6.4      3.452      5.768
REMARK  Name = ZINC000826139982
REMARK  4 active torsions:
REMARK  status: ('A' for Active; 'I' for Inactive)
REMARK    1  A    between atoms: C_2  and  C_4
REMARK    2  A    between atoms: C_8  and  C_10
REMARK    3  A    between atoms: C_14  and  S_15
REMARK    4  A    between atoms: S_15  and  C_16
REMARK                            x       y       z     vdW  Elec       q    Type
REMARK                         _______ _______ _______ _____ _____    ______ ____
ROOT
ATOM      1  C   UNL     1      29.934  21.522  16.181  0.00  0.00    +0.093 C 
ATOM      2  C   UNL     1      28.597  21.605  16.928  0.00  0.00    +0.033 C 
ATOM      3  C   UNL     1      28.772  22.725  17.944  0.00  0.00    +0.109 C 
ATOM      4  N   UNL     1      30.195  22.745  18.212  0.00  0.00    -0.297 N 
ATOM      5  C   UNL     1      30.702  23.223  19.414  0.00  0.00    +0.247 C 
ATOM      6  O   UNL     1      29.959  23.571  20.331  0.00  0.00    -0.270 OA
ATOM      7  C   UNL     1      30.913  22.339  17.014  0.00  0.00    +0.120 C 
ENDROOT
BRANCH   5   8
ATOM      8  C   UNL     1      32.181  23.262  19.664  0.00  0.00    +0.038 A 
ATOM      9  C   UNL     1      32.897  22.197  20.219  0.00  0.00    +0.013 A 
ATOM     10  C   UNL     1      34.246  22.332  20.545  0.00  0.00    +0.002 A 
ATOM     11  C   UNL     1      34.924  23.502  20.221  0.00  0.00    +0.015 A 
ATOM     12  C   UNL     1      34.264  24.528  19.539  0.00  0.00    +0.017 A 
ATOM     13  C   UNL     1      32.887  24.419  19.296  0.00  0.00    +0.028 A 
BRANCH  12  14
ATOM     14  S   UNL     1      35.145  25.985  19.015  0.00  0.00    -0.016 S 
BRANCH  14  15
ATOM     15  C   UNL     1      34.237  26.423  17.517  0.00  0.00    +0.448 C 
ATOM     16  F   UNL     1      33.981  25.374  16.700  0.00  0.00    -0.160 F 
ATOM     17  F   UNL     1      33.044  26.987  17.823  0.00  0.00    -0.160 F 
ATOM     18  F   UNL     1      34.931  27.331  16.787  0.00  0.00    -0.160 F 
ENDBRANCH  14  15
ENDBRANCH  12  14
ENDBRANCH   5   8
BRANCH   1  20
ATOM     19  N   UNL     1      30.193  23.308  14.555  0.00  0.00    -0.329 N 
ATOM     20  C   UNL     1      29.877  21.994  14.740  0.00  0.00    +0.215 C 
ATOM     21  O   UNL     1      29.521  21.308  13.794  0.00  0.00    -0.276 OA
ATOM     22  H   UNL     1      30.101  23.682  13.619  0.00  0.00    +0.145 HD
ATOM     23  H   UNL     1      30.425  23.938  15.310  0.00  0.00    +0.145 HD
ENDBRANCH   1  20
TORSDOF 4
ENDMDL
MODEL 6
REMARK VINA RESULT:      -6.2      3.944      4.984
REMARK  Name = ZINC000826139982
REMARK  4 active torsions:
REMARK  status: ('A' for Active; 'I' for Inactive)
REMARK    1  A    between atoms: C_2  and  C_4
REMARK    2  A    between atoms: C_8  and  C_10
REMARK    3  A    between atoms: C_14  and  S_15
REMARK    4  A    between atoms: S_15  and  C_16
REMARK                            x       y       z     vdW  Elec       q    Type
REMARK                         _______ _______ _______ _____ _____    ______ ____
ROOT
ATOM      1  C   UNL     1      27.803  22.125  19.233  0.00  0.00    +0.093 C 
ATOM      2  C   UNL     1      28.755  23.074  19.969  0.00  0.00    +0.033 C 
ATOM      3  C   UNL     1      29.651  23.667  18.889  0.00  0.00    +0.109 C 
ATOM      4  N   UNL     1      29.674  22.655  17.853  0.00  0.00    -0.297 N 
ATOM      5  C   UNL     1      30.739  22.546  16.967  0.00  0.00    +0.247 C 
ATOM      6  O   UNL     1      31.742  23.251  17.079  0.00  0.00    -0.270 OA
ATOM      7  C   UNL     1      28.404  21.948  17.844  0.00  0.00    +0.120 C 
ENDROOT
BRANCH   5   8
ATOM      8  C   UNL     1      30.735  21.511  15.882  0.00  0.00    +0.038 A 
ATOM      9  C   UNL     1      29.941  21.598  14.735  0.00  0.00    +0.013 A 
ATOM     10  C   UNL     1      29.884  20.549  13.819  0.00  0.00    +0.002 A 
ATOM     11  C   UNL     1      30.705  19.439  13.984  0.00  0.00    +0.015 A 
ATOM     12  C   UNL     1      31.610  19.389  15.048  0.00  0.00    +0.017 A 
ATOM     13  C   UNL     1      31.596  20.407  16.012  0.00  0.00    +0.028 A 
BRANCH  12  14
ATOM     14  S   UNL     1      32.749  18.029  15.211  0.00  0.00    -0.016 S 
BRANCH  14  15
ATOM     15  C   UNL     1      31.675  16.627  14.839  0.00  0.00    +0.448 C 
ATOM     16  F   UNL     1      32.161  15.434  15.254  0.00  0.00    -0.160 F 
ATOM     17  F   UNL     1      30.460  16.783  15.417  0.00  0.00    -0.160 F 
ATOM     18  F   UNL     1      31.470  16.525  13.502  0.00  0.00    -0.160 F 
ENDBRANCH  14  15
ENDBRANCH  12  14
ENDBRANCH   5   8
BRANCH   1  20
ATOM     19  N   UNL     1      25.693  22.264  18.038  0.00  0.00    -0.329 N 
ATOM     20  C   UNL     1      26.364  22.601  19.176  0.00  0.00    +0.215 C 
ATOM     21  O   UNL     1      25.822  23.290  20.028  0.00  0.00    -0.276 OA
ATOM     22  H   UNL     1      24.752  22.620  17.928  0.00  0.00    +0.145 HD
ATOM     23  H   UNL     1      26.114  21.758  17.272  0.00  0.00    +0.145 HD
ENDBRANCH   1  20
TORSDOF 4
ENDMDL
MODEL 7
REMARK VINA RESULT:      -6.1      2.829      3.870
REMARK  Name = ZINC000826139982
REMARK  4 active torsions:
REMARK  status: ('A' for Active; 'I' for Inactive)
REMARK    1  A    between atoms: C_2  and  C_4
REMARK    2  A    between atoms: C_8  and  C_10
REMARK    3  A    between atoms: C_14  and  S_15
REMARK    4  A    between atoms: S_15  and  C_16
REMARK                            x       y       z     vdW  Elec       q    Type
REMARK                         _______ _______ _______ _____ _____    ______ ____
ROOT
ATOM      1  C   UNL     1      32.049  23.211  17.417  0.00  0.00    +0.093 C 
ATOM      2  C   UNL     1      30.824  22.360  17.770  0.00  0.00    +0.033 C 
ATOM      3  C   UNL     1      30.530  21.536  16.524  0.00  0.00    +0.109 C 
ATOM      4  N   UNL     1      31.045  22.341  15.436  0.00  0.00    -0.297 N 
ATOM      5  C   UNL     1      30.538  22.231  14.147  0.00  0.00    +0.247 C 
ATOM      6  O   UNL     1      29.576  21.506  13.895  0.00  0.00    -0.270 OA
ATOM      7  C   UNL     1      32.193  23.102  15.904  0.00  0.00    +0.120 C 
ENDROOT
BRANCH   5   8
ATOM      8  C   UNL     1      31.102  23.053  13.025  0.00  0.00    +0.038 A 
ATOM      9  C   UNL     1      30.668  24.348  12.725  0.00  0.00    +0.013 A 
ATOM     10  C   UNL     1      31.138  25.018  11.596  0.00  0.00    +0.002 A 
ATOM     11  C   UNL     1      32.130  24.442  10.810  0.00  0.00    +0.015 A 
ATOM     12  C   UNL     1      32.680  23.208  11.169  0.00  0.00    +0.017 A 
ATOM     13  C   UNL     1      32.138  22.502  12.253  0.00  0.00    +0.028 A 
BRANCH  12  14
ATOM     14  S   UNL     1      34.028  22.508  10.239  0.00  0.00    -0.016 S 
BRANCH  14  15
ATOM     15  C   UNL     1      33.201  22.071   8.696  0.00  0.00    +0.448 C 
ATOM     16  F   UNL     1      32.622  23.119   8.064  0.00  0.00    -0.160 F 
ATOM     17  F   UNL     1      34.073  21.513   7.822  0.00  0.00    -0.160 F 
ATOM     18  F   UNL     1      32.223  21.159   8.921  0.00  0.00    -0.160 F 
ENDBRANCH  14  15
ENDBRANCH  12  14
ENDBRANCH   5   8
BRANCH   1  20
ATOM     19  N   UNL     1      33.126  22.126  19.305  0.00  0.00    -0.329 N 
ATOM     20  C   UNL     1      33.320  22.810  18.141  0.00  0.00    +0.215 C 
ATOM     21  O   UNL     1      34.450  23.107  17.784  0.00  0.00    -0.276 OA
ATOM     22  H   UNL     1      33.945  21.899  19.855  0.00  0.00    +0.145 HD
ATOM     23  H   UNL     1      32.213  21.916  19.683  0.00  0.00    +0.145 HD
ENDBRANCH   1  20
TORSDOF 4
ENDMDL
MODEL 8
REMARK VINA RESULT:      -6.1      2.485      3.372
REMARK  Name = ZINC000826139982
REMARK  4 active torsions:
REMARK  status: ('A' for Active; 'I' for Inactive)
REMARK    1  A    between atoms: C_2  and  C_4
REMARK    2  A    between atoms: C_8  and  C_10
REMARK    3  A    between atoms: C_14  and  S_15
REMARK    4  A    between atoms: S_15  and  C_16
REMARK                            x       y       z     vdW  Elec       q    Type
REMARK                         _______ _______ _______ _____ _____    ______ ____
ROOT
ATOM      1  C   UNL     1      34.417  21.688  19.486  0.00  0.00    +0.093 C 
ATOM      2  C   UNL     1      34.250  22.906  20.401  0.00  0.00    +0.033 C 
ATOM      3  C   UNL     1      32.749  23.158  20.468  0.00  0.00    +0.109 C 
ATOM      4  N   UNL     1      32.244  22.633  19.217  0.00  0.00    -0.297 N 
ATOM      5  C   UNL     1      31.069  23.110  18.650  0.00  0.00    +0.247 C 
ATOM      6  O   UNL     1      30.454  24.054  19.145  0.00  0.00    -0.270 OA
ATOM      7  C   UNL     1      33.068  21.509  18.801  0.00  0.00    +0.120 C 
ENDROOT
BRANCH   5   8
ATOM      8  C   UNL     1      30.544  22.536  17.367  0.00  0.00    +0.038 A 
ATOM      9  C   UNL     1      29.258  22.006  17.228  0.00  0.00    +0.013 A 
ATOM     10  C   UNL     1      28.865  21.374  16.049  0.00  0.00    +0.002 A 
ATOM     11  C   UNL     1      29.720  21.357  14.953  0.00  0.00    +0.015 A 
ATOM     12  C   UNL     1      30.959  22.003  15.021  0.00  0.00    +0.017 A 
ATOM     13  C   UNL     1      31.381  22.557  16.238  0.00  0.00    +0.028 A 
BRANCH  12  14
ATOM     14  S   UNL     1      32.018  22.090  13.592  0.00  0.00    -0.016 S 
BRANCH  14  15
ATOM     15  C   UNL     1      31.388  23.573  12.779  0.00  0.00    +0.448 C 
ATOM     16  F   UNL     1      32.122  23.973  11.714  0.00  0.00    -0.160 F 
ATOM     17  F   UNL     1      30.122  23.380  12.337  0.00  0.00    -0.160 F 
ATOM     18  F   UNL     1      31.353  24.614  13.646  0.00  0.00    -0.160 F 
ENDBRANCH  14  15
ENDBRANCH  12  14
ENDBRANCH   5   8
BRANCH   1  20
ATOM     19  N   UNL     1      34.179  19.299  19.857  0.00  0.00    -0.329 N 
ATOM     20  C   UNL     1      34.866  20.426  20.199  0.00  0.00    +0.215 C 
ATOM     21  O   UNL     1      35.728  20.382  21.064  0.00  0.00    -0.276 OA
ATOM     22  H   UNL     1      34.400  18.448  20.360  0.00  0.00    +0.145 HD
ATOM     23  H   UNL     1      33.411  19.291  19.202  0.00  0.00    +0.145 HD
ENDBRANCH   1  20
TORSDOF 4
ENDMDL
MODEL 9
REMARK VINA RESULT:      -6.1      4.465      5.898
REMARK  Name = ZINC000826139982
REMARK  4 active torsions:
REMARK  status: ('A' for Active; 'I' for Inactive)
REMARK    1  A    between atoms: C_2  and  C_4
REMARK    2  A    between atoms: C_8  and  C_10
REMARK    3  A    between atoms: C_14  and  S_15
REMARK    4  A    between atoms: S_15  and  C_16
REMARK                            x       y       z     vdW  Elec       q    Type
REMARK                         _______ _______ _______ _____ _____    ______ ____
ROOT
ATOM      1  C   UNL     1      31.481  19.677  14.812  0.00  0.00    +0.093 C 
ATOM      2  C   UNL     1      30.389  20.480  15.526  0.00  0.00    +0.033 C 
ATOM      3  C   UNL     1      29.999  21.585  14.555  0.00  0.00    +0.109 C 
ATOM      4  N   UNL     1      31.191  21.797  13.760  0.00  0.00    -0.297 N 
ATOM      5  C   UNL     1      31.447  23.016  13.144  0.00  0.00    +0.247 C 
ATOM      6  O   UNL     1      30.714  23.989  13.318  0.00  0.00    -0.270 OA
ATOM      7  C   UNL     1      31.911  20.540  13.632  0.00  0.00    +0.120 C 
ENDROOT
BRANCH   5   8
ATOM      8  C   UNL     1      32.672  23.210  12.301  0.00  0.00    +0.038 A 
ATOM      9  C   UNL     1      33.919  23.567  12.823  0.00  0.00    +0.013 A 
ATOM     10  C   UNL     1      34.994  23.855  11.983  0.00  0.00    +0.002 A 
ATOM     11  C   UNL     1      34.864  23.687  10.609  0.00  0.00    +0.015 A 
ATOM     12  C   UNL     1      33.670  23.197  10.072  0.00  0.00    +0.017 A 
ATOM     13  C   UNL     1      32.568  22.995  10.916  0.00  0.00    +0.028 A 
BRANCH  12  14
ATOM     14  S   UNL     1      33.523  22.867   8.328  0.00  0.00    -0.016 S 
BRANCH  14  15
ATOM     15  C   UNL     1      33.311  21.074   8.327  0.00  0.00    +0.448 C 
ATOM     16  F   UNL     1      33.845  20.455   9.406  0.00  0.00    -0.160 F 
ATOM     17  F   UNL     1      31.997  20.744   8.290  0.00  0.00    -0.160 F 
ATOM     18  F   UNL     1      33.890  20.526   7.231  0.00  0.00    -0.160 F 
ENDBRANCH  14  15
ENDBRANCH  12  14
ENDBRANCH   5   8
BRANCH   1  20
ATOM     19  N   UNL     1      30.795  18.159  13.043  0.00  0.00    -0.329 N 
ATOM     20  C   UNL     1      31.054  18.287  14.375  0.00  0.00    +0.215 C 
ATOM     21  O   UNL     1      30.879  17.342  15.130  0.00  0.00    -0.276 OA
ATOM     22  H   UNL     1      30.440  17.267  12.720  0.00  0.00    +0.145 HD
ATOM     23  H   UNL     1      30.854  18.925  12.387  0.00  0.00    +0.145 HD
ENDBRANCH   1  20
TORSDOF 4
ENDMDL
