MODEL 1
REMARK VINA RESULT:      -7.0      0.000      0.000
REMARK  Name = ZINC000329563636
REMARK  3 active torsions:
REMARK  status: ('A' for Active; 'I' for Inactive)
REMARK    1  A    between atoms: C_1  and  C_2
REMARK    2  A    between atoms: C_2  and  N_3
REMARK    3  A    between atoms: N_9  and  C_10
REMARK                            x       y       z     vdW  Elec       q    Type
REMARK                         _______ _______ _______ _____ _____    ______ ____
ROOT
ATOM      1  C   UNL     1      30.378  22.086  15.377  0.00  0.00    +0.112 C 
ATOM      2  C   UNL     1      29.394  20.962  15.037  0.00  0.00    +0.075 C 
ATOM      3  C   UNL     1      28.895  20.150  16.242  0.00  0.00    +0.113 C 
ATOM      4  C   UNL     1      27.691  20.774  16.993  0.00  0.00    +0.048 C 
ATOM      5  C   UNL     1      26.502  19.855  16.735  0.00  0.00    +0.004 C 
ATOM      6  C   UNL     1      27.127  18.487  16.550  0.00  0.00    +0.004 C 
ATOM      7  C   UNL     1      28.366  18.788  15.725  0.00  0.00    +0.048 C 
ATOM      8  O   UNL     1      29.957  19.868  17.173  0.00  0.00    -0.485 OA
ATOM      9  C   UNL     1      30.581  20.997  17.634  0.00  0.00    +0.126 A 
ATOM     10  C   UNL     1      31.017  20.997  18.958  0.00  0.00    +0.046 A 
ATOM     11  C   UNL     1      31.623  22.135  19.492  0.00  0.00    +0.004 A 
ATOM     12  C   UNL     1      31.812  23.264  18.698  0.00  0.00    +0.001 A 
ATOM     13  C   UNL     1      31.404  23.247  17.365  0.00  0.00    +0.009 A 
ATOM     14  C   UNL     1      30.783  22.110  16.822  0.00  0.00    +0.015 A 
ENDROOT
BRANCH   1  21
ATOM     15  N   UNL     1      35.670  23.067  12.115  0.00  0.00    -0.299 N 
ATOM     16  C   UNL     1      34.611  24.043  11.863  0.00  0.00    +0.127 C 
ATOM     17  C   UNL     1      33.260  23.378  11.617  0.00  0.00    +0.129 C 
ATOM     18  N   UNL     1      32.940  22.524  12.752  0.00  0.00    -0.275 N 
ATOM     19  C   UNL     1      31.796  22.773  13.476  0.00  0.00    +0.303 C 
ATOM     20  O   UNL     1      31.024  23.690  13.198  0.00  0.00    -0.253 OA
ATOM     21  N   UNL     1      31.579  21.960  14.551  0.00  0.00    -0.292 N 
ATOM     22  C   UNL     1      33.940  21.490  13.032  0.00  0.00    +0.205 C 
ATOM     23  C   UNL     1      35.397  21.806  12.636  0.00  0.00    +0.233 C 
ATOM     24  O   UNL     1      36.277  20.958  12.799  0.00  0.00    -0.274 OA
ATOM     25  H   UNL     1      31.994  21.043  14.543  0.00  0.00    +0.151 HD
BRANCH  15  27
ATOM     26  C   UNL     1      37.215  24.991  12.029  0.00  0.00    +0.024 C 
ATOM     27  C   UNL     1      37.055  23.485  11.924  0.00  0.00    +0.104 C 
ENDBRANCH  15  27
ENDBRANCH   1  21
TORSDOF 2
ENDMDL
MODEL 2
REMARK VINA RESULT:      -6.9     13.028     15.176
REMARK  Name = ZINC000329563636
REMARK  3 active torsions:
REMARK  status: ('A' for Active; 'I' for Inactive)
REMARK    1  A    between atoms: C_1  and  C_2
REMARK    2  A    between atoms: C_2  and  N_3
REMARK    3  A    between atoms: N_9  and  C_10
REMARK                            x       y       z     vdW  Elec       q    Type
REMARK                         _______ _______ _______ _____ _____    ______ ____
ROOT
ATOM      1  C   UNL     1      24.963  21.361  28.504  0.00  0.00    +0.112 C 
ATOM      2  C   UNL     1      24.121  22.467  29.148  0.00  0.00    +0.075 C 
ATOM      3  C   UNL     1      23.074  23.107  28.223  0.00  0.00    +0.113 C 
ATOM      4  C   UNL     1      21.729  22.340  28.135  0.00  0.00    +0.048 C 
ATOM      5  C   UNL     1      20.687  23.223  28.812  0.00  0.00    +0.004 C 
ATOM      6  C   UNL     1      21.196  24.633  28.588  0.00  0.00    +0.004 C 
ATOM      7  C   UNL     1      22.693  24.492  28.804  0.00  0.00    +0.048 C 
ATOM      8  O   UNL     1      23.595  23.330  26.900  0.00  0.00    -0.485 OA
ATOM      9  C   UNL     1      24.064  22.187  26.306  0.00  0.00    +0.126 A 
ATOM     10  C   UNL     1      23.881  22.053  24.931  0.00  0.00    +0.046 A 
ATOM     11  C   UNL     1      24.302  20.893  24.281  0.00  0.00    +0.004 A 
ATOM     12  C   UNL     1      24.924  19.876  25.003  0.00  0.00    +0.001 A 
ATOM     13  C   UNL     1      25.133  20.028  26.373  0.00  0.00    +0.009 A 
ATOM     14  C   UNL     1      24.702  21.189  27.037  0.00  0.00    +0.015 A 
ENDROOT
BRANCH   1  21
ATOM     15  N   UNL     1      31.175  21.021  29.454  0.00  0.00    -0.299 N 
ATOM     16  C   UNL     1      30.375  20.202  30.365  0.00  0.00    +0.127 C 
ATOM     17  C   UNL     1      29.200  20.976  30.955  0.00  0.00    +0.129 C 
ATOM     18  N   UNL     1      28.392  21.511  29.869  0.00  0.00    -0.275 N 
ATOM     19  C   UNL     1      27.072  21.136  29.769  0.00  0.00    +0.303 C 
ATOM     20  O   UNL     1      26.541  20.367  30.568  0.00  0.00    -0.253 OA
ATOM     21  N   UNL     1      26.385  21.642  28.704  0.00  0.00    -0.292 N 
ATOM     22  C   UNL     1      29.123  22.381  28.943  0.00  0.00    +0.205 C 
ATOM     23  C   UNL     1      30.633  22.108  28.778  0.00  0.00    +0.233 C 
ATOM     24  O   UNL     1      31.314  22.837  28.053  0.00  0.00    -0.274 OA
ATOM     25  H   UNL     1      26.707  22.506  28.299  0.00  0.00    +0.151 HD
BRANCH  15  27
ATOM     26  C   UNL     1      32.696  19.089  29.220  0.00  0.00    +0.024 C 
ATOM     27  C   UNL     1      32.541  20.599  29.166  0.00  0.00    +0.104 C 
ENDBRANCH  15  27
ENDBRANCH   1  21
TORSDOF 2
ENDMDL
MODEL 3
REMARK VINA RESULT:      -6.9      4.390      6.511
REMARK  Name = ZINC000329563636
REMARK  3 active torsions:
REMARK  status: ('A' for Active; 'I' for Inactive)
REMARK    1  A    between atoms: C_1  and  C_2
REMARK    2  A    between atoms: C_2  and  N_3
REMARK    3  A    between atoms: N_9  and  C_10
REMARK                            x       y       z     vdW  Elec       q    Type
REMARK                         _______ _______ _______ _____ _____    ______ ____
ROOT
ATOM      1  C   UNL     1      31.143  18.570  16.794  0.00  0.00    +0.112 C 
ATOM      2  C   UNL     1      32.037  19.773  17.111  0.00  0.00    +0.075 C 
ATOM      3  C   UNL     1      31.285  21.071  17.441  0.00  0.00    +0.113 C 
ATOM      4  C   UNL     1      30.837  21.205  18.919  0.00  0.00    +0.048 C 
ATOM      5  C   UNL     1      31.673  22.330  19.520  0.00  0.00    +0.004 C 
ATOM      6  C   UNL     1      31.965  23.241  18.345  0.00  0.00    +0.004 C 
ATOM      7  C   UNL     1      32.251  22.263  17.219  0.00  0.00    +0.048 C 
ATOM      8  O   UNL     1      30.156  21.272  16.570  0.00  0.00    -0.485 OA
ATOM      9  C   UNL     1      29.266  20.231  16.596  0.00  0.00    +0.126 A 
ATOM     10  C   UNL     1      27.912  20.538  16.476  0.00  0.00    +0.046 A 
ATOM     11  C   UNL     1      26.958  19.521  16.537  0.00  0.00    +0.004 A 
ATOM     12  C   UNL     1      27.359  18.197  16.697  0.00  0.00    +0.001 A 
ATOM     13  C   UNL     1      28.717  17.891  16.785  0.00  0.00    +0.009 A 
ATOM     14  C   UNL     1      29.683  18.910  16.736  0.00  0.00    +0.015 A 
ENDROOT
BRANCH   1  21
ATOM     15  N   UNL     1      32.784  14.694  12.116  0.00  0.00    -0.299 N 
ATOM     16  C   UNL     1      33.487  14.457  13.376  0.00  0.00    +0.127 C 
ATOM     17  C   UNL     1      34.021  15.747  13.991  0.00  0.00    +0.129 C 
ATOM     18  N   UNL     1      32.917  16.682  14.162  0.00  0.00    -0.275 N 
ATOM     19  C   UNL     1      32.615  17.137  15.425  0.00  0.00    +0.303 C 
ATOM     20  O   UNL     1      33.247  16.789  16.422  0.00  0.00    -0.253 OA
ATOM     21  N   UNL     1      31.544  17.977  15.519  0.00  0.00    -0.292 N 
ATOM     22  C   UNL     1      32.197  17.001  12.926  0.00  0.00    +0.205 C 
ATOM     23  C   UNL     1      32.183  15.915  11.830  0.00  0.00    +0.233 C 
ATOM     24  O   UNL     1      31.638  16.141  10.747  0.00  0.00    -0.274 OA
ATOM     25  H   UNL     1      31.288  18.510  14.704  0.00  0.00    +0.151 HD
BRANCH  15  27
ATOM     26  C   UNL     1      33.873  13.295  10.397  0.00  0.00    +0.024 C 
ATOM     27  C   UNL     1      32.614  13.572  11.199  0.00  0.00    +0.104 C 
ENDBRANCH  15  27
ENDBRANCH   1  21
TORSDOF 2
ENDMDL
MODEL 4
REMARK VINA RESULT:      -6.9      2.066      2.857
REMARK  Name = ZINC000329563636
REMARK  3 active torsions:
REMARK  status: ('A' for Active; 'I' for Inactive)
REMARK    1  A    between atoms: C_1  and  C_2
REMARK    2  A    between atoms: C_2  and  N_3
REMARK    3  A    between atoms: N_9  and  C_10
REMARK                            x       y       z     vdW  Elec       q    Type
REMARK                         _______ _______ _______ _____ _____    ______ ____
ROOT
ATOM      1  C   UNL     1      29.398  21.813  15.137  0.00  0.00    +0.112 C 
ATOM      2  C   UNL     1      29.387  20.348  14.688  0.00  0.00    +0.075 C 
ATOM      3  C   UNL     1      29.774  19.334  15.775  0.00  0.00    +0.113 C 
ATOM      4  C   UNL     1      28.611  18.902  16.706  0.00  0.00    +0.048 C 
ATOM      5  C   UNL     1      28.328  17.438  16.387  0.00  0.00    +0.004 C 
ATOM      6  C   UNL     1      29.668  16.895  15.933  0.00  0.00    +0.004 C 
ATOM      7  C   UNL     1      30.222  18.023  15.080  0.00  0.00    +0.048 C 
ATOM      8  O   UNL     1      30.885  19.796  16.567  0.00  0.00    -0.485 OA
ATOM      9  C   UNL     1      30.654  21.008  17.162  0.00  0.00    +0.126 A 
ATOM     10  C   UNL     1      31.188  21.215  18.432  0.00  0.00    +0.046 A 
ATOM     11  C   UNL     1      30.950  22.416  19.102  0.00  0.00    +0.004 A 
ATOM     12  C   UNL     1      30.196  23.417  18.493  0.00  0.00    +0.001 A 
ATOM     13  C   UNL     1      29.689  23.217  17.209  0.00  0.00    +0.009 A 
ATOM     14  C   UNL     1      29.915  22.007  16.533  0.00  0.00    +0.015 A 
ENDROOT
BRANCH   1  21
ATOM     15  N   UNL     1      33.065  23.862  10.450  0.00  0.00    -0.299 N 
ATOM     16  C   UNL     1      33.537  22.641  11.102  0.00  0.00    +0.127 C 
ATOM     17  C   UNL     1      33.511  22.753  12.624  0.00  0.00    +0.129 C 
ATOM     18  N   UNL     1      32.162  23.097  13.049  0.00  0.00    -0.275 N 
ATOM     19  C   UNL     1      31.486  22.243  13.890  0.00  0.00    +0.303 C 
ATOM     20  O   UNL     1      31.980  21.195  14.305  0.00  0.00    -0.253 OA
ATOM     21  N   UNL     1      30.211  22.607  14.216  0.00  0.00    -0.292 N 
ATOM     22  C   UNL     1      31.642  24.338  12.468  0.00  0.00    +0.205 C 
ATOM     23  C   UNL     1      32.186  24.737  11.080  0.00  0.00    +0.233 C 
ATOM     24  O   UNL     1      31.828  25.795  10.560  0.00  0.00    -0.274 OA
ATOM     25  H   UNL     1      29.972  23.583  14.173  0.00  0.00    +0.151 HD
BRANCH  15  27
ATOM     26  C   UNL     1      32.575  23.291   8.098  0.00  0.00    +0.024 C 
ATOM     27  C   UNL     1      33.438  24.090   9.059  0.00  0.00    +0.104 C 
ENDBRANCH  15  27
ENDBRANCH   1  21
TORSDOF 2
ENDMDL
MODEL 5
REMARK VINA RESULT:      -6.6     23.209     25.468
REMARK  Name = ZINC000329563636
REMARK  3 active torsions:
REMARK  status: ('A' for Active; 'I' for Inactive)
REMARK    1  A    between atoms: C_1  and  C_2
REMARK    2  A    between atoms: C_2  and  N_3
REMARK    3  A    between atoms: N_9  and  C_10
REMARK                            x       y       z     vdW  Elec       q    Type
REMARK                         _______ _______ _______ _____ _____    ______ ____
ROOT
ATOM      1  C   UNL     1      11.543   6.261  15.308  0.00  0.00    +0.112 C 
ATOM      2  C   UNL     1      12.012   6.762  16.678  0.00  0.00    +0.075 C 
ATOM      3  C   UNL     1      10.904   6.892  17.735  0.00  0.00    +0.113 C 
ATOM      4  C   UNL     1      10.573   5.581  18.495  0.00  0.00    +0.048 C 
ATOM      5  C   UNL     1      11.040   5.789  19.931  0.00  0.00    +0.004 C 
ATOM      6  C   UNL     1      10.904   7.282  20.150  0.00  0.00    +0.004 C 
ATOM      7  C   UNL     1      11.395   7.865  18.837  0.00  0.00    +0.048 C 
ATOM      8  O   UNL     1       9.699   7.451  17.181  0.00  0.00    -0.485 OA
ATOM      9  C   UNL     1       9.211   6.733  16.121  0.00  0.00    +0.126 A 
ATOM     10  C   UNL     1       7.827   6.644  15.985  0.00  0.00    +0.046 A 
ATOM     11  C   UNL     1       7.274   5.892  14.948  0.00  0.00    +0.004 A 
ATOM     12  C   UNL     1       8.105   5.245  14.036  0.00  0.00    +0.001 A 
ATOM     13  C   UNL     1       9.489   5.362  14.157  0.00  0.00    +0.009 A 
ATOM     14  C   UNL     1      10.053   6.109  15.205  0.00  0.00    +0.015 A 
ENDROOT
BRANCH   1  21
ATOM     15  N   UNL     1      12.957   9.091   9.869  0.00  0.00    -0.299 N 
ATOM     16  C   UNL     1      13.345   7.683   9.940  0.00  0.00    +0.127 C 
ATOM     17  C   UNL     1      14.069   7.350  11.241  0.00  0.00    +0.129 C 
ATOM     18  N   UNL     1      13.222   7.728  12.363  0.00  0.00    -0.275 N 
ATOM     19  C   UNL     1      12.826   6.761  13.259  0.00  0.00    +0.303 C 
ATOM     20  O   UNL     1      13.165   5.583  13.153  0.00  0.00    -0.253 OA
ATOM     21  N   UNL     1      12.000   7.176  14.263  0.00  0.00    -0.292 N 
ATOM     22  C   UNL     1      12.833   9.140  12.379  0.00  0.00    +0.205 C 
ATOM     23  C   UNL     1      12.741   9.851  11.013  0.00  0.00    +0.233 C 
ATOM     24  O   UNL     1      12.469  11.053  10.962  0.00  0.00    -0.274 OA
ATOM     25  H   UNL     1      12.033   8.145  14.533  0.00  0.00    +0.151 HD
BRANCH  15  27
ATOM     26  C   UNL     1      11.282   9.311   8.067  0.00  0.00    +0.024 C 
ATOM     27  C   UNL     1      12.676   9.665   8.557  0.00  0.00    +0.104 C 
ENDBRANCH  15  27
ENDBRANCH   1  21
TORSDOF 2
ENDMDL
MODEL 6
REMARK VINA RESULT:      -6.5     22.179     25.382
REMARK  Name = ZINC000329563636
REMARK  3 active torsions:
REMARK  status: ('A' for Active; 'I' for Inactive)
REMARK    1  A    between atoms: C_1  and  C_2
REMARK    2  A    between atoms: C_2  and  N_3
REMARK    3  A    between atoms: N_9  and  C_10
REMARK                            x       y       z     vdW  Elec       q    Type
REMARK                         _______ _______ _______ _____ _____    ______ ____
ROOT
ATOM      1  C   UNL     1      12.309   7.100  12.613  0.00  0.00    +0.112 C 
ATOM      2  C   UNL     1      11.618   8.255  11.880  0.00  0.00    +0.075 C 
ATOM      3  C   UNL     1      12.540   9.104  10.992  0.00  0.00    +0.113 C 
ATOM      4  C   UNL     1      12.774   8.538   9.568  0.00  0.00    +0.048 C 
ATOM      5  C   UNL     1      12.080   9.496   8.606  0.00  0.00    +0.004 C 
ATOM      6  C   UNL     1      12.148  10.837   9.310  0.00  0.00    +0.004 C 
ATOM      7  C   UNL     1      11.860  10.477  10.757  0.00  0.00    +0.048 C 
ATOM      8  O   UNL     1      13.807   9.361  11.628  0.00  0.00    -0.485 OA
ATOM      9  C   UNL     1      14.472   8.217  11.982  0.00  0.00    +0.126 A 
ATOM     10  C   UNL     1      15.862   8.221  11.878  0.00  0.00    +0.046 A 
ATOM     11  C   UNL     1      16.588   7.069  12.187  0.00  0.00    +0.004 A 
ATOM     12  C   UNL     1      15.926   5.922  12.619  0.00  0.00    +0.001 A 
ATOM     13  C   UNL     1      14.538   5.933  12.752  0.00  0.00    +0.009 A 
ATOM     14  C   UNL     1      13.799   7.084  12.433  0.00  0.00    +0.015 A 
ENDROOT
BRANCH   1  21
ATOM     15  N   UNL     1      10.815   5.855  18.598  0.00  0.00    -0.299 N 
ATOM     16  C   UNL     1       9.933   5.235  17.610  0.00  0.00    +0.127 C 
ATOM     17  C   UNL     1       9.488   6.222  16.535  0.00  0.00    +0.129 C 
ATOM     18  N   UNL     1      10.667   6.802  15.908  0.00  0.00    -0.275 N 
ATOM     19  C   UNL     1      10.859   6.633  14.556  0.00  0.00    +0.303 C 
ATOM     20  O   UNL     1      10.067   6.012  13.848  0.00  0.00    -0.253 OA
ATOM     21  N   UNL     1      12.005   7.168  14.042  0.00  0.00    -0.292 N 
ATOM     22  C   UNL     1      11.573   7.483  16.838  0.00  0.00    +0.205 C 
ATOM     23  C   UNL     1      11.593   6.966  18.292  0.00  0.00    +0.233 C 
ATOM     24  O   UNL     1      12.296   7.529  19.134  0.00  0.00    -0.274 OA
ATOM     25  H   UNL     1      12.426   7.941  14.529  0.00  0.00    +0.151 HD
BRANCH  15  27
ATOM     26  C   UNL     1       9.941   5.708  20.903  0.00  0.00    +0.024 C 
ATOM     27  C   UNL     1      10.962   5.206  19.896  0.00  0.00    +0.104 C 
ENDBRANCH  15  27
ENDBRANCH   1  21
TORSDOF 2
ENDMDL
MODEL 7
REMARK VINA RESULT:      -6.4      3.393      7.670
REMARK  Name = ZINC000329563636
REMARK  3 active torsions:
REMARK  status: ('A' for Active; 'I' for Inactive)
REMARK    1  A    between atoms: C_1  and  C_2
REMARK    2  A    between atoms: C_2  and  N_3
REMARK    3  A    between atoms: N_9  and  C_10
REMARK                            x       y       z     vdW  Elec       q    Type
REMARK                         _______ _______ _______ _____ _____    ______ ____
ROOT
ATOM      1  C   UNL     1      34.158  22.937  16.661  0.00  0.00    +0.112 C 
ATOM      2  C   UNL     1      34.643  24.224  15.988  0.00  0.00    +0.075 C 
ATOM      3  C   UNL     1      35.550  25.109  16.857  0.00  0.00    +0.113 C 
ATOM      4  C   UNL     1      37.050  24.715  16.844  0.00  0.00    +0.048 C 
ATOM      5  C   UNL     1      37.782  25.838  16.120  0.00  0.00    +0.004 C 
ATOM      6  C   UNL     1      36.944  27.068  16.405  0.00  0.00    +0.004 C 
ATOM      7  C   UNL     1      35.523  26.548  16.281  0.00  0.00    +0.048 C 
ATOM      8  O   UNL     1      35.079  25.187  18.215  0.00  0.00    -0.485 OA
ATOM      9  C   UNL     1      34.960  23.960  18.814  0.00  0.00    +0.126 A 
ATOM     10  C   UNL     1      35.262  23.873  20.171  0.00  0.00    +0.046 A 
ATOM     11  C   UNL     1      35.197  22.641  20.823  0.00  0.00    +0.004 A 
ATOM     12  C   UNL     1      34.811  21.501  20.123  0.00  0.00    +0.001 A 
ATOM     13  C   UNL     1      34.479  21.598  18.772  0.00  0.00    +0.009 A 
ATOM     14  C   UNL     1      34.552  22.833  18.106  0.00  0.00    +0.015 A 
ENDROOT
BRANCH   1  21
ATOM     15  N   UNL     1      28.182  21.005  16.264  0.00  0.00    -0.299 N 
ATOM     16  C   UNL     1      29.104  20.318  15.361  0.00  0.00    +0.127 C 
ATOM     17  C   UNL     1      30.011  21.290  14.612  0.00  0.00    +0.129 C 
ATOM     18  N   UNL     1      30.724  22.112  15.580  0.00  0.00    -0.275 N 
ATOM     19  C   UNL     1      32.100  22.081  15.600  0.00  0.00    +0.303 C 
ATOM     20  O   UNL     1      32.757  21.387  14.826  0.00  0.00    -0.253 OA
ATOM     21  N   UNL     1      32.702  22.843  16.559  0.00  0.00    -0.292 N 
ATOM     22  C   UNL     1      29.857  22.867  16.488  0.00  0.00    +0.205 C 
ATOM     23  C   UNL     1      28.475  22.254  16.800  0.00  0.00    +0.233 C 
ATOM     24  O   UNL     1      27.679  22.865  17.516  0.00  0.00    -0.274 OA
ATOM     25  H   UNL     1      32.200  23.639  16.915  0.00  0.00    +0.151 HD
BRANCH  15  27
ATOM     26  C   UNL     1      27.145  18.789  16.599  0.00  0.00    +0.024 C 
ATOM     27  C   UNL     1      26.983  20.296  16.699  0.00  0.00    +0.104 C 
ENDBRANCH  15  27
ENDBRANCH   1  21
TORSDOF 2
ENDMDL
MODEL 8
REMARK VINA RESULT:      -6.4      3.798      5.257
REMARK  Name = ZINC000329563636
REMARK  3 active torsions:
REMARK  status: ('A' for Active; 'I' for Inactive)
REMARK    1  A    between atoms: C_1  and  C_2
REMARK    2  A    between atoms: C_2  and  N_3
REMARK    3  A    between atoms: N_9  and  C_10
REMARK                            x       y       z     vdW  Elec       q    Type
REMARK                         _______ _______ _______ _____ _____    ______ ____
ROOT
ATOM      1  C   UNL     1      31.801  20.306  16.746  0.00  0.00    +0.112 C 
ATOM      2  C   UNL     1      31.479  18.812  16.839  0.00  0.00    +0.075 C 
ATOM      3  C   UNL     1      29.992  18.479  17.037  0.00  0.00    +0.113 C 
ATOM      4  C   UNL     1      29.158  18.425  15.731  0.00  0.00    +0.048 C 
ATOM      5  C   UNL     1      28.766  16.965  15.533  0.00  0.00    +0.004 C 
ATOM      6  C   UNL     1      28.691  16.410  16.941  0.00  0.00    +0.004 C 
ATOM      7  C   UNL     1      29.888  17.048  17.624  0.00  0.00    +0.048 C 
ATOM      8  O   UNL     1      29.366  19.371  17.979  0.00  0.00    -0.485 OA
ATOM      9  C   UNL     1      29.476  20.690  17.625  0.00  0.00    +0.126 A 
ATOM     10  C   UNL     1      28.401  21.527  17.916  0.00  0.00    +0.046 A 
ATOM     11  C   UNL     1      28.443  22.871  17.542  0.00  0.00    +0.004 A 
ATOM     12  C   UNL     1      29.566  23.382  16.896  0.00  0.00    +0.001 A 
ATOM     13  C   UNL     1      30.653  22.547  16.634  0.00  0.00    +0.009 A 
ATOM     14  C   UNL     1      30.614  21.190  16.998  0.00  0.00    +0.015 A 
ENDROOT
BRANCH   1  21
ATOM     15  N   UNL     1      36.118  23.201  20.294  0.00  0.00    -0.299 N 
ATOM     16  C   UNL     1      36.169  23.546  18.874  0.00  0.00    +0.127 C 
ATOM     17  C   UNL     1      36.110  22.312  17.979  0.00  0.00    +0.129 C 
ATOM     18  N   UNL     1      34.912  21.549  18.301  0.00  0.00    -0.275 N 
ATOM     19  C   UNL     1      33.973  21.332  17.320  0.00  0.00    +0.303 C 
ATOM     20  O   UNL     1      34.106  21.752  16.171  0.00  0.00    -0.253 OA
ATOM     21  N   UNL     1      32.856  20.646  17.701  0.00  0.00    -0.292 N 
ATOM     22  C   UNL     1      34.821  21.131  19.702  0.00  0.00    +0.205 C 
ATOM     23  C   UNL     1      35.520  22.029  20.744  0.00  0.00    +0.233 C 
ATOM     24  O   UNL     1      35.523  21.705  21.933  0.00  0.00    -0.274 OA
ATOM     25  H   UNL     1      32.927  20.028  18.492  0.00  0.00    +0.151 HD
BRANCH  15  27
ATOM     26  C   UNL     1      37.034  25.475  20.591  0.00  0.00    +0.024 C 
ATOM     27  C   UNL     1      36.604  24.181  21.260  0.00  0.00    +0.104 C 
ENDBRANCH  15  27
ENDBRANCH   1  21
TORSDOF 2
ENDMDL
MODEL 9
REMARK VINA RESULT:      -6.3      3.978      5.612
REMARK  Name = ZINC000329563636
REMARK  3 active torsions:
REMARK  status: ('A' for Active; 'I' for Inactive)
REMARK    1  A    between atoms: C_1  and  C_2
REMARK    2  A    between atoms: C_2  and  N_3
REMARK    3  A    between atoms: N_9  and  C_10
REMARK                            x       y       z     vdW  Elec       q    Type
REMARK                         _______ _______ _______ _____ _____    ______ ____
ROOT
ATOM      1  C   UNL     1      32.189  20.970  17.185  0.00  0.00    +0.112 C 
ATOM      2  C   UNL     1      30.806  20.890  17.838  0.00  0.00    +0.075 C 
ATOM      3  C   UNL     1      29.636  21.304  16.932  0.00  0.00    +0.113 C 
ATOM      4  C   UNL     1      29.100  20.181  16.008  0.00  0.00    +0.048 C 
ATOM      5  C   UNL     1      27.704  19.837  16.516  0.00  0.00    +0.004 C 
ATOM      6  C   UNL     1      27.203  21.133  17.121  0.00  0.00    +0.004 C 
ATOM      7  C   UNL     1      28.431  21.674  17.833  0.00  0.00    +0.048 C 
ATOM      8  O   UNL     1      29.954  22.470  16.149  0.00  0.00    -0.485 OA
ATOM      9  C   UNL     1      31.072  22.308  15.373  0.00  0.00    +0.126 A 
ATOM     10  C   UNL     1      31.081  22.917  14.120  0.00  0.00    +0.046 A 
ATOM     11  C   UNL     1      32.177  22.752  13.272  0.00  0.00    +0.004 A 
ATOM     12  C   UNL     1      33.271  21.996  13.685  0.00  0.00    +0.001 A 
ATOM     13  C   UNL     1      33.272  21.415  14.953  0.00  0.00    +0.009 A 
ATOM     14  C   UNL     1      32.167  21.567  15.809  0.00  0.00    +0.015 A 
ENDROOT
BRANCH   1  21
ATOM     15  N   UNL     1      37.113  23.944  19.737  0.00  0.00    -0.299 N 
ATOM     16  C   UNL     1      37.382  22.566  19.327  0.00  0.00    +0.127 C 
ATOM     17  C   UNL     1      36.297  21.603  19.800  0.00  0.00    +0.129 C 
ATOM     18  N   UNL     1      35.007  22.064  19.308  0.00  0.00    -0.275 N 
ATOM     19  C   UNL     1      34.270  21.243  18.486  0.00  0.00    +0.303 C 
ATOM     20  O   UNL     1      34.657  20.124  18.151  0.00  0.00    -0.253 OA
ATOM     21  N   UNL     1      33.091  21.755  18.029  0.00  0.00    -0.292 N 
ATOM     22  C   UNL     1      34.653  23.425  19.722  0.00  0.00    +0.205 C 
ATOM     23  C   UNL     1      35.822  24.398  19.983  0.00  0.00    +0.233 C 
ATOM     24  O   UNL     1      35.593  25.542  20.383  0.00  0.00    -0.274 OA
ATOM     25  H   UNL     1      32.643  22.472  18.574  0.00  0.00    +0.151 HD
BRANCH  15  27
ATOM     26  C   UNL     1      38.579  25.396  18.379  0.00  0.00    +0.024 C 
ATOM     27  C   UNL     1      38.228  24.885  19.765  0.00  0.00    +0.104 C 
ENDBRANCH  15  27
ENDBRANCH   1  21
TORSDOF 2
ENDMDL
