MODEL 1
REMARK VINA RESULT:      -8.7      0.000      0.000
REMARK  Name = ZINC000870248439
REMARK  2 active torsions:
REMARK  status: ('A' for Active; 'I' for Inactive)
REMARK    1  A    between atoms: C_2  and  C_4
REMARK    2  A    between atoms: C_7  and  C_8
REMARK                            x       y       z     vdW  Elec       q    Type
REMARK                         _______ _______ _______ _____ _____    ______ ____
ROOT
ATOM      1  C   UNL     1      12.513   5.993  10.738  0.00  0.00    +0.247 C 
ATOM      2  O   UNL     1      11.860   7.034  10.796  0.00  0.00    -0.270 OA
ATOM      3  N   UNL     1      13.020   5.470   9.541  0.00  0.00    -0.297 N 
ATOM      4  C   UNL     1      13.772   4.220   9.408  0.00  0.00    +0.108 C 
ATOM      5  C   UNL     1      14.895   4.299   8.381  0.00  0.00    +0.026 C 
ATOM      6  C   UNL     1      14.448   4.865   7.016  0.00  0.00    -0.025 C 
ATOM      7  C   UNL     1      15.724   5.088   6.165  0.00  0.00    +0.017 C 
ATOM      8  C   UNL     1      15.476   5.614   4.758  0.00  0.00    +0.069 C 
ATOM      9  S   UNL     1      14.453   4.488   3.771  0.00  0.00    -0.161 S 
ATOM     10  C   UNL     1      13.062   4.269   4.912  0.00  0.00    +0.069 C 
ATOM     11  C   UNL     1      13.526   3.843   6.301  0.00  0.00    +0.017 C 
ATOM     12  C   UNL     1      13.736   6.215   7.293  0.00  0.00    +0.026 C 
ATOM     13  C   UNL     1      12.585   6.090   8.292  0.00  0.00    +0.108 C 
ENDROOT
BRANCH   1  17
ATOM     14  C   UNL     1      13.498   4.282  14.524  0.00  0.00    +0.037 A 
ATOM     15  C   UNL     1      14.245   3.925  13.397  0.00  0.00    +0.014 A 
ATOM     16  C   UNL     1      13.872   4.402  12.140  0.00  0.00    +0.014 A 
ATOM     17  C   UNL     1      12.814   5.310  12.021  0.00  0.00    +0.037 A 
ATOM     18  C   UNL     1      12.013   5.595  13.134  0.00  0.00    +0.014 A 
ATOM     19  C   UNL     1      12.349   5.071  14.386  0.00  0.00    +0.014 A 
BRANCH  14  21
ATOM     20  N   UNL     1      12.982   3.116  16.593  0.00  0.00    -0.325 N 
ATOM     21  C   UNL     1      13.901   3.834  15.881  0.00  0.00    +0.242 C 
ATOM     22  O   UNL     1      15.020   4.048  16.320  0.00  0.00    -0.270 OA
ATOM     23  H   UNL     1      13.309   2.712  17.462  0.00  0.00    +0.145 HD
ATOM     24  H   UNL     1      12.166   2.702  16.164  0.00  0.00    +0.145 HD
ENDBRANCH  14  21
ENDBRANCH   1  17
TORSDOF 2
ENDMDL
MODEL 2
REMARK VINA RESULT:      -7.8      1.644      2.418
REMARK  Name = ZINC000870248439
REMARK  2 active torsions:
REMARK  status: ('A' for Active; 'I' for Inactive)
REMARK    1  A    between atoms: C_2  and  C_4
REMARK    2  A    between atoms: C_7  and  C_8
REMARK                            x       y       z     vdW  Elec       q    Type
REMARK                         _______ _______ _______ _____ _____    ______ ____
ROOT
ATOM      1  C   UNL     1      11.934   4.591   8.688  0.00  0.00    +0.247 C 
ATOM      2  O   UNL     1      10.750   4.456   8.382  0.00  0.00    -0.270 OA
ATOM      3  N   UNL     1      12.972   4.614   7.746  0.00  0.00    -0.297 N 
ATOM      4  C   UNL     1      14.399   4.735   8.055  0.00  0.00    +0.108 C 
ATOM      5  C   UNL     1      15.162   5.588   7.050  0.00  0.00    +0.026 C 
ATOM      6  C   UNL     1      14.909   5.189   5.580  0.00  0.00    -0.025 C 
ATOM      7  C   UNL     1      15.567   6.271   4.686  0.00  0.00    +0.017 C 
ATOM      8  C   UNL     1      15.452   6.026   3.188  0.00  0.00    +0.069 C 
ATOM      9  S   UNL     1      16.233   4.469   2.681  0.00  0.00    -0.161 S 
ATOM     10  C   UNL     1      15.429   3.338   3.848  0.00  0.00    +0.069 C 
ATOM     11  C   UNL     1      15.565   3.814   5.289  0.00  0.00    +0.017 C 
ATOM     12  C   UNL     1      13.373   5.172   5.371  0.00  0.00    +0.026 C 
ATOM     13  C   UNL     1      12.644   4.269   6.366  0.00  0.00    +0.108 C 
ENDROOT
BRANCH   1  17
ATOM     14  C   UNL     1      12.739   4.901  12.869  0.00  0.00    +0.037 A 
ATOM     15  C   UNL     1      11.609   5.535  12.341  0.00  0.00    +0.014 A 
ATOM     16  C   UNL     1      11.390   5.521  10.964  0.00  0.00    +0.014 A 
ATOM     17  C   UNL     1      12.243   4.796  10.125  0.00  0.00    +0.037 A 
ATOM     18  C   UNL     1      13.420   4.240  10.642  0.00  0.00    +0.014 A 
ATOM     19  C   UNL     1      13.673   4.302  12.015  0.00  0.00    +0.014 A 
BRANCH  14  21
ATOM     20  N   UNL     1      11.934   5.232  15.139  0.00  0.00    -0.325 N 
ATOM     21  C   UNL     1      12.972   4.852  14.335  0.00  0.00    +0.242 C 
ATOM     22  O   UNL     1      14.023   4.441  14.804  0.00  0.00    -0.270 OA
ATOM     23  H   UNL     1      12.061   5.078  16.131  0.00  0.00    +0.145 HD
ATOM     24  H   UNL     1      10.988   5.318  14.797  0.00  0.00    +0.145 HD
ENDBRANCH  14  21
ENDBRANCH   1  17
TORSDOF 2
ENDMDL
MODEL 3
REMARK VINA RESULT:      -7.6     24.651     25.567
REMARK  Name = ZINC000870248439
REMARK  2 active torsions:
REMARK  status: ('A' for Active; 'I' for Inactive)
REMARK    1  A    between atoms: C_2  and  C_4
REMARK    2  A    between atoms: C_7  and  C_8
REMARK                            x       y       z     vdW  Elec       q    Type
REMARK                         _______ _______ _______ _____ _____    ______ ____
ROOT
ATOM      1  C   UNL     1      29.672  21.115  17.134  0.00  0.00    +0.247 C 
ATOM      2  O   UNL     1      28.605  21.721  17.221  0.00  0.00    -0.270 OA
ATOM      3  N   UNL     1      30.878  21.603  17.655  0.00  0.00    -0.297 N 
ATOM      4  C   UNL     1      32.181  20.942  17.550  0.00  0.00    +0.108 C 
ATOM      5  C   UNL     1      33.036  21.093  18.801  0.00  0.00    +0.026 C 
ATOM      6  C   UNL     1      33.154  22.550  19.299  0.00  0.00    -0.025 C 
ATOM      7  C   UNL     1      33.856  22.513  20.679  0.00  0.00    +0.017 C 
ATOM      8  C   UNL     1      34.095  23.875  21.317  0.00  0.00    +0.069 C 
ATOM      9  S   UNL     1      35.144  24.942  20.293  0.00  0.00    -0.161 S 
ATOM     10  C   UNL     1      34.248  24.824  18.722  0.00  0.00    +0.069 C 
ATOM     11  C   UNL     1      34.014  23.375  18.307  0.00  0.00    +0.017 C 
ATOM     12  C   UNL     1      31.711  23.102  19.437  0.00  0.00    +0.026 C 
ATOM     13  C   UNL     1      30.897  22.977  18.149  0.00  0.00    +0.108 C 
ENDROOT
BRANCH   1  17
ATOM     14  C   UNL     1      29.799  17.186  15.465  0.00  0.00    +0.037 A 
ATOM     15  C   UNL     1      30.291  18.263  14.720  0.00  0.00    +0.014 A 
ATOM     16  C   UNL     1      30.165  19.561  15.214  0.00  0.00    +0.014 A 
ATOM     17  C   UNL     1      29.639  19.777  16.492  0.00  0.00    +0.037 A 
ATOM     18  C   UNL     1      29.066  18.711  17.198  0.00  0.00    +0.014 A 
ATOM     19  C   UNL     1      29.136  17.415  16.678  0.00  0.00    +0.014 A 
BRANCH  14  21
ATOM     20  N   UNL     1      28.946  14.920  15.262  0.00  0.00    -0.325 N 
ATOM     21  C   UNL     1      29.964  15.790  14.991  0.00  0.00    +0.242 C 
ATOM     22  O   UNL     1      30.939  15.445  14.341  0.00  0.00    -0.270 OA
ATOM     23  H   UNL     1      29.013  14.007  14.830  0.00  0.00    +0.145 HD
ATOM     24  H   UNL     1      28.031  15.231  15.556  0.00  0.00    +0.145 HD
ENDBRANCH  14  21
ENDBRANCH   1  17
TORSDOF 2
ENDMDL
MODEL 4
REMARK VINA RESULT:      -7.4      3.950      7.046
REMARK  Name = ZINC000870248439
REMARK  2 active torsions:
REMARK  status: ('A' for Active; 'I' for Inactive)
REMARK    1  A    between atoms: C_2  and  C_4
REMARK    2  A    between atoms: C_7  and  C_8
REMARK                            x       y       z     vdW  Elec       q    Type
REMARK                         _______ _______ _______ _____ _____    ______ ____
ROOT
ATOM      1  C   UNL     1      12.318   6.355   8.951  0.00  0.00    +0.247 C 
ATOM      2  O   UNL     1      12.203   6.744  10.113  0.00  0.00    -0.270 OA
ATOM      3  N   UNL     1      13.282   5.422   8.546  0.00  0.00    -0.297 N 
ATOM      4  C   UNL     1      13.488   4.951   7.175  0.00  0.00    +0.108 C 
ATOM      5  C   UNL     1      13.846   3.472   7.093  0.00  0.00    +0.026 C 
ATOM      6  C   UNL     1      14.997   3.060   8.036  0.00  0.00    -0.025 C 
ATOM      7  C   UNL     1      15.093   1.514   8.002  0.00  0.00    +0.017 C 
ATOM      8  C   UNL     1      16.207   0.919   8.852  0.00  0.00    +0.069 C 
ATOM      9  S   UNL     1      17.849   1.495   8.339  0.00  0.00    -0.161 S 
ATOM     10  C   UNL     1      17.556   3.285   8.355  0.00  0.00    +0.069 C 
ATOM     11  C   UNL     1      16.331   3.669   7.532  0.00  0.00    +0.017 C 
ATOM     12  C   UNL     1      14.619   3.551   9.458  0.00  0.00    +0.026 C 
ATOM     13  C   UNL     1      14.313   5.048   9.512  0.00  0.00    +0.108 C 
ENDROOT
BRANCH   1  17
ATOM     14  C   UNL     1       9.465   8.079   6.284  0.00  0.00    +0.037 A 
ATOM     15  C   UNL     1       9.086   6.996   7.085  0.00  0.00    +0.014 A 
ATOM     16  C   UNL     1      10.036   6.364   7.887  0.00  0.00    +0.014 A 
ATOM     17  C   UNL     1      11.338   6.872   7.965  0.00  0.00    +0.037 A 
ATOM     18  C   UNL     1      11.738   7.897   7.098  0.00  0.00    +0.014 A 
ATOM     19  C   UNL     1      10.802   8.494   6.248  0.00  0.00    +0.014 A 
BRANCH  14  21
ATOM     20  N   UNL     1       8.546  10.170   5.452  0.00  0.00    -0.325 N 
ATOM     21  C   UNL     1       8.466   8.805   5.460  0.00  0.00    +0.242 C 
ATOM     22  O   UNL     1       7.645   8.212   4.778  0.00  0.00    -0.270 OA
ATOM     23  H   UNL     1       7.942  10.647   4.794  0.00  0.00    +0.145 HD
ATOM     24  H   UNL     1       9.360  10.667   5.785  0.00  0.00    +0.145 HD
ENDBRANCH  14  21
ENDBRANCH   1  17
TORSDOF 2
ENDMDL
MODEL 5
REMARK VINA RESULT:      -7.4      4.717      6.060
REMARK  Name = ZINC000870248439
REMARK  2 active torsions:
REMARK  status: ('A' for Active; 'I' for Inactive)
REMARK    1  A    between atoms: C_2  and  C_4
REMARK    2  A    between atoms: C_7  and  C_8
REMARK                            x       y       z     vdW  Elec       q    Type
REMARK                         _______ _______ _______ _____ _____    ______ ____
ROOT
ATOM      1  C   UNL     1      13.375   6.305   7.338  0.00  0.00    +0.247 C 
ATOM      2  O   UNL     1      14.134   7.092   7.902  0.00  0.00    -0.270 OA
ATOM      3  N   UNL     1      13.824   5.248   6.534  0.00  0.00    -0.297 N 
ATOM      4  C   UNL     1      12.968   4.305   5.811  0.00  0.00    +0.108 C 
ATOM      5  C   UNL     1      13.514   2.883   5.799  0.00  0.00    +0.026 C 
ATOM      6  C   UNL     1      14.992   2.791   5.361  0.00  0.00    -0.025 C 
ATOM      7  C   UNL     1      15.459   1.335   5.609  0.00  0.00    +0.017 C 
ATOM      8  C   UNL     1      16.896   1.040   5.199  0.00  0.00    +0.069 C 
ATOM      9  S   UNL     1      17.180   1.322   3.430  0.00  0.00    -0.161 S 
ATOM     10  C   UNL     1      16.525   3.007   3.287  0.00  0.00    +0.069 C 
ATOM     11  C   UNL     1      15.113   3.118   3.850  0.00  0.00    +0.017 C 
ATOM     12  C   UNL     1      15.793   3.778   6.250  0.00  0.00    +0.026 C 
ATOM     13  C   UNL     1      15.245   5.205   6.201  0.00  0.00    +0.108 C 
ENDROOT
BRANCH   1  17
ATOM     14  C   UNL     1       9.149   6.534   7.900  0.00  0.00    +0.037 A 
ATOM     15  C   UNL     1       9.768   7.409   7.001  0.00  0.00    +0.014 A 
ATOM     16  C   UNL     1      11.158   7.409   6.883  0.00  0.00    +0.014 A 
ATOM     17  C   UNL     1      11.921   6.471   7.586  0.00  0.00    +0.037 A 
ATOM     18  C   UNL     1      11.310   5.659   8.550  0.00  0.00    +0.014 A 
ATOM     19  C   UNL     1       9.923   5.698   8.715  0.00  0.00    +0.014 A 
BRANCH  14  21
ATOM     20  N   UNL     1       7.035   7.605   8.442  0.00  0.00    -0.325 N 
ATOM     21  C   UNL     1       7.670   6.474   8.011  0.00  0.00    +0.242 C 
ATOM     22  O   UNL     1       7.042   5.479   7.680  0.00  0.00    -0.270 OA
ATOM     23  H   UNL     1       6.024   7.593   8.396  0.00  0.00    +0.145 HD
ATOM     24  H   UNL     1       7.491   8.506   8.466  0.00  0.00    +0.145 HD
ENDBRANCH  14  21
ENDBRANCH   1  17
TORSDOF 2
ENDMDL
MODEL 6
REMARK VINA RESULT:      -7.4      4.299      8.800
REMARK  Name = ZINC000870248439
REMARK  2 active torsions:
REMARK  status: ('A' for Active; 'I' for Inactive)
REMARK    1  A    between atoms: C_2  and  C_4
REMARK    2  A    between atoms: C_7  and  C_8
REMARK                            x       y       z     vdW  Elec       q    Type
REMARK                         _______ _______ _______ _____ _____    ______ ____
ROOT
ATOM      1  C   UNL     1      13.489   3.693   5.790  0.00  0.00    +0.247 C 
ATOM      2  O   UNL     1      12.903   2.650   5.504  0.00  0.00    -0.270 OA
ATOM      3  N   UNL     1      13.419   4.291   7.055  0.00  0.00    -0.297 N 
ATOM      4  C   UNL     1      14.065   5.548   7.440  0.00  0.00    +0.108 C 
ATOM      5  C   UNL     1      14.604   5.536   8.865  0.00  0.00    +0.026 C 
ATOM      6  C   UNL     1      13.576   5.057   9.913  0.00  0.00    -0.025 C 
ATOM      7  C   UNL     1      14.328   4.891  11.258  0.00  0.00    +0.017 C 
ATOM      8  C   UNL     1      13.461   4.455  12.431  0.00  0.00    +0.069 C 
ATOM      9  S   UNL     1      12.135   5.640  12.786  0.00  0.00    -0.161 S 
ATOM     10  C   UNL     1      11.411   5.784  11.130  0.00  0.00    +0.069 C 
ATOM     11  C   UNL     1      12.460   6.121  10.077  0.00  0.00    +0.017 C 
ATOM     12  C   UNL     1      13.029   3.691   9.423  0.00  0.00    +0.026 C 
ATOM     13  C   UNL     1      12.452   3.751   8.008  0.00  0.00    +0.108 C 
ENDROOT
BRANCH   1  17
ATOM     14  C   UNL     1      15.770   5.339   2.577  0.00  0.00    +0.037 A 
ATOM     15  C   UNL     1      16.192   4.147   3.176  0.00  0.00    +0.014 A 
ATOM     16  C   UNL     1      15.510   3.653   4.288  0.00  0.00    +0.014 A 
ATOM     17  C   UNL     1      14.352   4.293   4.742  0.00  0.00    +0.037 A 
ATOM     18  C   UNL     1      13.984   5.531   4.200  0.00  0.00    +0.014 A 
ATOM     19  C   UNL     1      14.701   6.060   3.123  0.00  0.00    +0.014 A 
BRANCH  14  21
ATOM     20  N   UNL     1      17.669   6.439   1.533  0.00  0.00    -0.325 N 
ATOM     21  C   UNL     1      16.442   5.862   1.361  0.00  0.00    +0.242 C 
ATOM     22  O   UNL     1      15.948   5.736   0.251  0.00  0.00    -0.270 OA
ATOM     23  H   UNL     1      18.169   6.679   0.686  0.00  0.00    +0.145 HD
ATOM     24  H   UNL     1      18.210   6.321   2.378  0.00  0.00    +0.145 HD
ENDBRANCH  14  21
ENDBRANCH   1  17
TORSDOF 2
ENDMDL
MODEL 7
REMARK VINA RESULT:      -7.3      2.778      4.423
REMARK  Name = ZINC000870248439
REMARK  2 active torsions:
REMARK  status: ('A' for Active; 'I' for Inactive)
REMARK    1  A    between atoms: C_2  and  C_4
REMARK    2  A    between atoms: C_7  and  C_8
REMARK                            x       y       z     vdW  Elec       q    Type
REMARK                         _______ _______ _______ _____ _____    ______ ____
ROOT
ATOM      1  C   UNL     1      12.964   3.533   6.851  0.00  0.00    +0.247 C 
ATOM      2  O   UNL     1      12.589   2.395   6.573  0.00  0.00    -0.270 OA
ATOM      3  N   UNL     1      13.626   4.367   5.940  0.00  0.00    -0.297 N 
ATOM      4  C   UNL     1      14.126   5.714   6.227  0.00  0.00    +0.108 C 
ATOM      5  C   UNL     1      13.959   6.679   5.060  0.00  0.00    +0.026 C 
ATOM      6  C   UNL     1      14.489   6.127   3.719  0.00  0.00    -0.025 C 
ATOM      7  C   UNL     1      14.054   7.115   2.607  0.00  0.00    +0.017 C 
ATOM      8  C   UNL     1      14.522   6.752   1.204  0.00  0.00    +0.069 C 
ATOM      9  S   UNL     1      16.329   6.680   1.076  0.00  0.00    -0.161 S 
ATOM     10  C   UNL     1      16.682   5.567   2.464  0.00  0.00    +0.069 C 
ATOM     11  C   UNL     1      16.037   6.049   3.759  0.00  0.00    +0.017 C 
ATOM     12  C   UNL     1      13.828   4.741   3.504  0.00  0.00    +0.026 C 
ATOM     13  C   UNL     1      14.056   3.782   4.673  0.00  0.00    +0.108 C 
ENDROOT
BRANCH   1  17
ATOM     14  C   UNL     1      12.069   5.270  10.647  0.00  0.00    +0.037 A 
ATOM     15  C   UNL     1      13.273   4.578  10.479  0.00  0.00    +0.014 A 
ATOM     16  C   UNL     1      13.531   3.924   9.274  0.00  0.00    +0.014 A 
ATOM     17  C   UNL     1      12.635   4.042   8.206  0.00  0.00    +0.037 A 
ATOM     18  C   UNL     1      11.392   4.658   8.405  0.00  0.00    +0.014 A 
ATOM     19  C   UNL     1      11.105   5.263   9.631  0.00  0.00    +0.014 A 
BRANCH  14  21
ATOM     20  N   UNL     1      12.034   5.372  13.076  0.00  0.00    -0.325 N 
ATOM     21  C   UNL     1      11.788   6.019  11.898  0.00  0.00    +0.242 C 
ATOM     22  O   UNL     1      11.405   7.180  11.878  0.00  0.00    -0.270 OA
ATOM     23  H   UNL     1      11.957   5.931  13.916  0.00  0.00    +0.145 HD
ATOM     24  H   UNL     1      12.590   4.529  13.124  0.00  0.00    +0.145 HD
ENDBRANCH  14  21
ENDBRANCH   1  17
TORSDOF 2
ENDMDL
MODEL 8
REMARK VINA RESULT:      -7.2     25.006     25.647
REMARK  Name = ZINC000870248439
REMARK  2 active torsions:
REMARK  status: ('A' for Active; 'I' for Inactive)
REMARK    1  A    between atoms: C_2  and  C_4
REMARK    2  A    between atoms: C_7  and  C_8
REMARK                            x       y       z     vdW  Elec       q    Type
REMARK                         _______ _______ _______ _____ _____    ______ ____
ROOT
ATOM      1  C   UNL     1      32.091  20.754  13.876  0.00  0.00    +0.247 C 
ATOM      2  O   UNL     1      32.380  19.564  13.758  0.00  0.00    -0.270 OA
ATOM      3  N   UNL     1      32.588  21.753  13.027  0.00  0.00    -0.297 N 
ATOM      4  C   UNL     1      32.306  23.186  13.143  0.00  0.00    +0.108 C 
ATOM      5  C   UNL     1      32.148  23.879  11.795  0.00  0.00    +0.026 C 
ATOM      6  C   UNL     1      33.297  23.583  10.808  0.00  0.00    -0.025 C 
ATOM      7  C   UNL     1      32.888  24.168   9.432  0.00  0.00    +0.017 C 
ATOM      8  C   UNL     1      33.924  24.002   8.328  0.00  0.00    +0.069 C 
ATOM      9  S   UNL     1      35.495  24.815   8.728  0.00  0.00    -0.161 S 
ATOM     10  C   UNL     1      35.795  24.096  10.365  0.00  0.00    +0.069 C 
ATOM     11  C   UNL     1      34.598  24.273  11.293  0.00  0.00    +0.017 C 
ATOM     12  C   UNL     1      33.438  22.040  10.723  0.00  0.00    +0.026 C 
ATOM     13  C   UNL     1      33.642  21.383  12.087  0.00  0.00    +0.108 C 
ENDROOT
BRANCH   1  17
ATOM     14  C   UNL     1      29.330  21.509  17.044  0.00  0.00    +0.037 A 
ATOM     15  C   UNL     1      28.850  21.362  15.738  0.00  0.00    +0.014 A 
ATOM     16  C   UNL     1      29.751  21.213  14.683  0.00  0.00    +0.014 A 
ATOM     17  C   UNL     1      31.122  21.112  14.941  0.00  0.00    +0.037 A 
ATOM     18  C   UNL     1      31.606  21.349  16.234  0.00  0.00    +0.014 A 
ATOM     19  C   UNL     1      30.709  21.558  17.285  0.00  0.00    +0.014 A 
BRANCH  14  21
ATOM     20  N   UNL     1      28.400  22.795  18.884  0.00  0.00    -0.325 N 
ATOM     21  C   UNL     1      28.397  21.617  18.193  0.00  0.00    +0.242 C 
ATOM     22  O   UNL     1      27.622  20.716  18.476  0.00  0.00    -0.270 OA
ATOM     23  H   UNL     1      27.677  22.903  19.585  0.00  0.00    +0.145 HD
ATOM     24  H   UNL     1      28.827  23.636  18.520  0.00  0.00    +0.145 HD
ENDBRANCH  14  21
ENDBRANCH   1  17
TORSDOF 2
ENDMDL
MODEL 9
REMARK VINA RESULT:      -7.2      3.900      7.040
REMARK  Name = ZINC000870248439
REMARK  2 active torsions:
REMARK  status: ('A' for Active; 'I' for Inactive)
REMARK    1  A    between atoms: C_2  and  C_4
REMARK    2  A    between atoms: C_7  and  C_8
REMARK                            x       y       z     vdW  Elec       q    Type
REMARK                         _______ _______ _______ _____ _____    ______ ____
ROOT
ATOM      1  C   UNL     1      11.817   5.564   8.983  0.00  0.00    +0.247 C 
ATOM      2  O   UNL     1      11.168   5.015   9.872  0.00  0.00    -0.270 OA
ATOM      3  N   UNL     1      13.198   5.392   8.821  0.00  0.00    -0.297 N 
ATOM      4  C   UNL     1      14.025   6.047   7.805  0.00  0.00    +0.108 C 
ATOM      5  C   UNL     1      15.120   5.146   7.247  0.00  0.00    +0.026 C 
ATOM      6  C   UNL     1      15.966   4.452   8.337  0.00  0.00    -0.025 C 
ATOM      7  C   UNL     1      16.875   3.417   7.628  0.00  0.00    +0.017 C 
ATOM      8  C   UNL     1      17.817   2.651   8.547  0.00  0.00    +0.069 C 
ATOM      9  S   UNL     1      18.963   3.746   9.428  0.00  0.00    -0.161 S 
ATOM     10  C   UNL     1      17.774   4.922  10.128  0.00  0.00    +0.069 C 
ATOM     11  C   UNL     1      16.849   5.500   9.062  0.00  0.00    +0.017 C 
ATOM     12  C   UNL     1      14.977   3.740   9.297  0.00  0.00    +0.026 C 
ATOM     13  C   UNL     1      13.921   4.683   9.874  0.00  0.00    +0.108 C 
ENDROOT
BRANCH   1  17
ATOM     14  C   UNL     1       9.643   8.174   6.395  0.00  0.00    +0.037 A 
ATOM     15  C   UNL     1       8.985   7.088   6.982  0.00  0.00    +0.014 A 
ATOM     16  C   UNL     1       9.707   6.174   7.750  0.00  0.00    +0.014 A 
ATOM     17  C   UNL     1      11.063   6.397   8.012  0.00  0.00    +0.037 A 
ATOM     18  C   UNL     1      11.739   7.432   7.353  0.00  0.00    +0.014 A 
ATOM     19  C   UNL     1      11.029   8.315   6.534  0.00  0.00    +0.014 A 
BRANCH  14  21
ATOM     20  N   UNL     1       8.787  10.437   6.168  0.00  0.00    -0.325 N 
ATOM     21  C   UNL     1       8.893   9.191   5.617  0.00  0.00    +0.242 C 
ATOM     22  O   UNL     1       8.438   8.945   4.510  0.00  0.00    -0.270 OA
ATOM     23  H   UNL     1       8.382  11.152   5.577  0.00  0.00    +0.145 HD
ATOM     24  H   UNL     1       9.367  10.740   6.938  0.00  0.00    +0.145 HD
ENDBRANCH  14  21
ENDBRANCH   1  17
TORSDOF 2
ENDMDL
