MODEL 1
REMARK VINA RESULT:      -7.0      0.000      0.000
REMARK  Name = ZINC000826139982
REMARK  4 active torsions:
REMARK  status: ('A' for Active; 'I' for Inactive)
REMARK    1  A    between atoms: C_2  and  C_4
REMARK    2  A    between atoms: C_8  and  C_10
REMARK    3  A    between atoms: C_14  and  S_15
REMARK    4  A    between atoms: S_15  and  C_16
REMARK                            x       y       z     vdW  Elec       q    Type
REMARK                         _______ _______ _______ _____ _____    ______ ____
ROOT
ATOM      1  C   UNL     1      27.595  21.371  16.222  0.00  0.00    +0.093 C 
ATOM      2  C   UNL     1      28.654  20.560  16.976  0.00  0.00    +0.033 C 
ATOM      3  C   UNL     1      29.908  21.425  16.966  0.00  0.00    +0.109 C 
ATOM      4  N   UNL     1      29.771  22.235  15.773  0.00  0.00    -0.297 N 
ATOM      5  C   UNL     1      30.881  22.755  15.117  0.00  0.00    +0.247 C 
ATOM      6  O   UNL     1      32.026  22.480  15.475  0.00  0.00    -0.270 OA
ATOM      7  C   UNL     1      28.361  22.486  15.523  0.00  0.00    +0.120 C 
ENDROOT
BRANCH   5   8
ATOM      8  C   UNL     1      30.721  23.615  13.898  0.00  0.00    +0.038 A 
ATOM      9  C   UNL     1      29.838  24.696  13.827  0.00  0.00    +0.013 A 
ATOM     10  C   UNL     1      29.639  25.384  12.631  0.00  0.00    +0.002 A 
ATOM     11  C   UNL     1      30.403  25.066  11.514  0.00  0.00    +0.015 A 
ATOM     12  C   UNL     1      31.392  24.081  11.597  0.00  0.00    +0.017 A 
ATOM     13  C   UNL     1      31.522  23.335  12.778  0.00  0.00    +0.028 A 
BRANCH  12  14
ATOM     14  S   UNL     1      32.456  23.740  10.211  0.00  0.00    -0.016 S 
BRANCH  14  15
ATOM     15  C   UNL     1      33.839  24.849  10.549  0.00  0.00    +0.448 C 
ATOM     16  F   UNL     1      34.732  24.943   9.536  0.00  0.00    -0.160 F 
ATOM     17  F   UNL     1      33.400  26.104  10.808  0.00  0.00    -0.160 F 
ATOM     18  F   UNL     1      34.526  24.434  11.643  0.00  0.00    -0.160 F 
ENDBRANCH  14  15
ENDBRANCH  12  14
ENDBRANCH   5   8
BRANCH   1  20
ATOM     19  N   UNL     1      26.462  23.263  17.240  0.00  0.00    -0.329 N 
ATOM     20  C   UNL     1      26.477  21.908  17.096  0.00  0.00    +0.215 C 
ATOM     21  O   UNL     1      25.667  21.217  17.697  0.00  0.00    -0.276 OA
ATOM     22  H   UNL     1      25.775  23.658  17.871  0.00  0.00    +0.145 HD
ATOM     23  H   UNL     1      27.149  23.876  16.825  0.00  0.00    +0.145 HD
ENDBRANCH   1  20
TORSDOF 4
ENDMDL
MODEL 2
REMARK VINA RESULT:      -6.9      1.398      1.534
REMARK  Name = ZINC000826139982
REMARK  4 active torsions:
REMARK  status: ('A' for Active; 'I' for Inactive)
REMARK    1  A    between atoms: C_2  and  C_4
REMARK    2  A    between atoms: C_8  and  C_10
REMARK    3  A    between atoms: C_14  and  S_15
REMARK    4  A    between atoms: S_15  and  C_16
REMARK                            x       y       z     vdW  Elec       q    Type
REMARK                         _______ _______ _______ _____ _____    ______ ____
ROOT
ATOM      1  C   UNL     1      27.790  21.626  16.266  0.00  0.00    +0.093 C 
ATOM      2  C   UNL     1      28.792  20.702  16.966  0.00  0.00    +0.033 C 
ATOM      3  C   UNL     1      30.124  21.439  16.918  0.00  0.00    +0.109 C 
ATOM      4  N   UNL     1      30.023  22.279  15.742  0.00  0.00    -0.297 N 
ATOM      5  C   UNL     1      31.152  22.698  15.049  0.00  0.00    +0.247 C 
ATOM      6  O   UNL     1      32.277  22.305  15.357  0.00  0.00    -0.270 OA
ATOM      7  C   UNL     1      28.637  22.673  15.552  0.00  0.00    +0.120 C 
ENDROOT
BRANCH   5   8
ATOM      8  C   UNL     1      31.032  23.591  13.850  0.00  0.00    +0.038 A 
ATOM      9  C   UNL     1      29.941  24.435  13.623  0.00  0.00    +0.013 A 
ATOM     10  C   UNL     1      29.822  25.150  12.432  0.00  0.00    +0.002 A 
ATOM     11  C   UNL     1      30.848  25.112  11.495  0.00  0.00    +0.015 A 
ATOM     12  C   UNL     1      32.013  24.385  11.760  0.00  0.00    +0.017 A 
ATOM     13  C   UNL     1      32.085  23.599  12.919  0.00  0.00    +0.028 A 
BRANCH  12  14
ATOM     14  S   UNL     1      33.384  24.417  10.623  0.00  0.00    -0.016 S 
BRANCH  14  15
ATOM     15  C   UNL     1      32.985  23.018   9.554  0.00  0.00    +0.448 C 
ATOM     16  F   UNL     1      32.937  21.828  10.197  0.00  0.00    -0.160 F 
ATOM     17  F   UNL     1      31.781  23.195   8.957  0.00  0.00    -0.160 F 
ATOM     18  F   UNL     1      33.905  22.896   8.566  0.00  0.00    -0.160 F 
ENDBRANCH  14  15
ENDBRANCH  12  14
ENDBRANCH   5   8
BRANCH   1  20
ATOM     19  N   UNL     1      26.832  23.614  17.281  0.00  0.00    -0.329 N 
ATOM     20  C   UNL     1      26.766  22.255  17.192  0.00  0.00    +0.215 C 
ATOM     21  O   UNL     1      25.966  21.633  17.874  0.00  0.00    -0.276 OA
ATOM     22  H   UNL     1      26.213  24.069  17.941  0.00  0.00    +0.145 HD
ATOM     23  H   UNL     1      27.520  24.172  16.796  0.00  0.00    +0.145 HD
ENDBRANCH   1  20
TORSDOF 4
ENDMDL
MODEL 3
REMARK VINA RESULT:      -6.5      2.864      3.919
REMARK  Name = ZINC000826139982
REMARK  4 active torsions:
REMARK  status: ('A' for Active; 'I' for Inactive)
REMARK    1  A    between atoms: C_2  and  C_4
REMARK    2  A    between atoms: C_8  and  C_10
REMARK    3  A    between atoms: C_14  and  S_15
REMARK    4  A    between atoms: S_15  and  C_16
REMARK                            x       y       z     vdW  Elec       q    Type
REMARK                         _______ _______ _______ _____ _____    ______ ____
ROOT
ATOM      1  C   UNL     1      31.474  25.111  18.332  0.00  0.00    +0.093 C 
ATOM      2  C   UNL     1      30.920  23.792  18.883  0.00  0.00    +0.033 C 
ATOM      3  C   UNL     1      31.117  22.774  17.767  0.00  0.00    +0.109 C 
ATOM      4  N   UNL     1      31.096  23.567  16.555  0.00  0.00    -0.297 N 
ATOM      5  C   UNL     1      30.722  23.018  15.335  0.00  0.00    +0.247 C 
ATOM      6  O   UNL     1      30.314  21.860  15.249  0.00  0.00    -0.270 OA
ATOM      7  C   UNL     1      31.641  24.885  16.835  0.00  0.00    +0.120 C 
ENDROOT
BRANCH   5   8
ATOM      8  C   UNL     1      30.732  23.845  14.083  0.00  0.00    +0.038 A 
ATOM      9  C   UNL     1      29.684  24.692  13.709  0.00  0.00    +0.013 A 
ATOM     10  C   UNL     1      29.690  25.342  12.476  0.00  0.00    +0.002 A 
ATOM     11  C   UNL     1      30.799  25.238  11.644  0.00  0.00    +0.015 A 
ATOM     12  C   UNL     1      31.919  24.510  12.056  0.00  0.00    +0.017 A 
ATOM     13  C   UNL     1      31.867  23.787  13.257  0.00  0.00    +0.028 A 
BRANCH  12  14
ATOM     14  S   UNL     1      33.391  24.459  11.054  0.00  0.00    -0.016 S 
BRANCH  14  15
ATOM     15  C   UNL     1      33.021  23.073   9.959  0.00  0.00    +0.448 C 
ATOM     16  F   UNL     1      33.946  22.873   8.990  0.00  0.00    -0.160 F 
ATOM     17  F   UNL     1      32.925  21.917  10.659  0.00  0.00    -0.160 F 
ATOM     18  F   UNL     1      31.832  23.261   9.336  0.00  0.00    -0.160 F 
ENDBRANCH  14  15
ENDBRANCH  12  14
ENDBRANCH   5   8
BRANCH   1  20
ATOM     19  N   UNL     1      32.712  26.817  19.540  0.00  0.00    -0.329 N 
ATOM     20  C   UNL     1      32.762  25.571  18.987  0.00  0.00    +0.215 C 
ATOM     21  O   UNL     1      33.808  24.940  18.990  0.00  0.00    -0.276 OA
ATOM     22  H   UNL     1      33.570  27.191  19.927  0.00  0.00    +0.145 HD
ATOM     23  H   UNL     1      31.896  27.411  19.503  0.00  0.00    +0.145 HD
ENDBRANCH   1  20
TORSDOF 4
ENDMDL
MODEL 4
REMARK VINA RESULT:      -6.4      2.597      3.009
REMARK  Name = ZINC000826139982
REMARK  4 active torsions:
REMARK  status: ('A' for Active; 'I' for Inactive)
REMARK    1  A    between atoms: C_2  and  C_4
REMARK    2  A    between atoms: C_8  and  C_10
REMARK    3  A    between atoms: C_14  and  S_15
REMARK    4  A    between atoms: S_15  and  C_16
REMARK                            x       y       z     vdW  Elec       q    Type
REMARK                         _______ _______ _______ _____ _____    ______ ____
ROOT
ATOM      1  C   UNL     1      29.543  21.678  15.894  0.00  0.00    +0.093 C 
ATOM      2  C   UNL     1      30.582  21.806  17.013  0.00  0.00    +0.033 C 
ATOM      3  C   UNL     1      31.440  23.005  16.634  0.00  0.00    +0.109 C 
ATOM      4  N   UNL     1      31.353  23.062  15.190  0.00  0.00    -0.297 N 
ATOM      5  C   UNL     1      32.357  23.640  14.423  0.00  0.00    +0.247 C 
ATOM      6  O   UNL     1      33.398  24.052  14.934  0.00  0.00    -0.270 OA
ATOM      7  C   UNL     1      30.051  22.570  14.768  0.00  0.00    +0.120 C 
ENDROOT
BRANCH   5   8
ATOM      8  C   UNL     1      32.239  23.715  12.929  0.00  0.00    +0.038 A 
ATOM      9  C   UNL     1      31.310  24.526  12.269  0.00  0.00    +0.013 A 
ATOM     10  C   UNL     1      31.160  24.465  10.884  0.00  0.00    +0.002 A 
ATOM     11  C   UNL     1      32.012  23.667  10.129  0.00  0.00    +0.015 A 
ATOM     12  C   UNL     1      33.040  22.953  10.753  0.00  0.00    +0.017 A 
ATOM     13  C   UNL     1      33.126  22.951  12.152  0.00  0.00    +0.028 A 
BRANCH  12  14
ATOM     14  S   UNL     1      34.211  22.017   9.791  0.00  0.00    -0.016 S 
BRANCH  14  15
ATOM     15  C   UNL     1      33.280  20.501   9.485  0.00  0.00    +0.448 C 
ATOM     16  F   UNL     1      32.243  20.654   8.628  0.00  0.00    -0.160 F 
ATOM     17  F   UNL     1      34.081  19.538   8.970  0.00  0.00    -0.160 F 
ATOM     18  F   UNL     1      32.767  20.015  10.642  0.00  0.00    -0.160 F 
ENDBRANCH  14  15
ENDBRANCH  12  14
ENDBRANCH   5   8
BRANCH   1  20
ATOM     19  N   UNL     1      27.942  23.339  16.654  0.00  0.00    -0.329 N 
ATOM     20  C   UNL     1      28.127  22.033  16.309  0.00  0.00    +0.215 C 
ATOM     21  O   UNL     1      27.207  21.235  16.404  0.00  0.00    -0.276 OA
ATOM     22  H   UNL     1      27.029  23.604  17.004  0.00  0.00    +0.145 HD
ATOM     23  H   UNL     1      28.684  24.024  16.663  0.00  0.00    +0.145 HD
ENDBRANCH   1  20
TORSDOF 4
ENDMDL
MODEL 5
REMARK VINA RESULT:      -6.4      4.956      7.689
REMARK  Name = ZINC000826139982
REMARK  4 active torsions:
REMARK  status: ('A' for Active; 'I' for Inactive)
REMARK    1  A    between atoms: C_2  and  C_4
REMARK    2  A    between atoms: C_8  and  C_10
REMARK    3  A    between atoms: C_14  and  S_15
REMARK    4  A    between atoms: S_15  and  C_16
REMARK                            x       y       z     vdW  Elec       q    Type
REMARK                         _______ _______ _______ _____ _____    ______ ____
ROOT
ATOM      1  C   UNL     1      32.750  23.067  10.757  0.00  0.00    +0.093 C 
ATOM      2  C   UNL     1      31.811  24.069  10.075  0.00  0.00    +0.033 C 
ATOM      3  C   UNL     1      31.278  24.951  11.196  0.00  0.00    +0.109 C 
ATOM      4  N   UNL     1      31.335  24.106  12.371  0.00  0.00    -0.297 N 
ATOM      5  C   UNL     1      30.491  24.311  13.455  0.00  0.00    +0.247 C 
ATOM      6  O   UNL     1      29.605  25.165  13.427  0.00  0.00    -0.270 OA
ATOM      7  C   UNL     1      32.455  23.187  12.247  0.00  0.00    +0.120 C 
ENDROOT
BRANCH   5   8
ATOM      8  C   UNL     1      30.581  23.444  14.676  0.00  0.00    +0.038 A 
ATOM      9  C   UNL     1      31.790  22.989  15.212  0.00  0.00    +0.013 A 
ATOM     10  C   UNL     1      31.811  22.086  16.273  0.00  0.00    +0.002 A 
ATOM     11  C   UNL     1      30.621  21.706  16.884  0.00  0.00    +0.015 A 
ATOM     12  C   UNL     1      29.408  22.255  16.457  0.00  0.00    +0.017 A 
ATOM     13  C   UNL     1      29.389  23.092  15.332  0.00  0.00    +0.028 A 
BRANCH  12  14
ATOM     14  S   UNL     1      27.888  21.868  17.300  0.00  0.00    -0.016 S 
BRANCH  14  15
ATOM     15  C   UNL     1      27.542  20.216  16.659  0.00  0.00    +0.448 C 
ATOM     16  F   UNL     1      26.223  19.927  16.562  0.00  0.00    -0.160 F 
ATOM     17  F   UNL     1      28.075  20.057  15.423  0.00  0.00    -0.160 F 
ATOM     18  F   UNL     1      28.096  19.269  17.456  0.00  0.00    -0.160 F 
ENDBRANCH  14  15
ENDBRANCH  12  14
ENDBRANCH   5   8
BRANCH   1  20
ATOM     19  N   UNL     1      34.480  24.248   9.526  0.00  0.00    -0.329 N 
ATOM     20  C   UNL     1      34.220  23.277  10.447  0.00  0.00    +0.215 C 
ATOM     21  O   UNL     1      35.133  22.611  10.912  0.00  0.00    -0.276 OA
ATOM     22  H   UNL     1      35.443  24.373   9.239  0.00  0.00    +0.145 HD
ATOM     23  H   UNL     1      33.760  24.779   9.057  0.00  0.00    +0.145 HD
ENDBRANCH   1  20
TORSDOF 4
ENDMDL
MODEL 6
REMARK VINA RESULT:      -6.3      4.825      7.692
REMARK  Name = ZINC000826139982
REMARK  4 active torsions:
REMARK  status: ('A' for Active; 'I' for Inactive)
REMARK    1  A    between atoms: C_2  and  C_4
REMARK    2  A    between atoms: C_8  and  C_10
REMARK    3  A    between atoms: C_14  and  S_15
REMARK    4  A    between atoms: S_15  and  C_16
REMARK                            x       y       z     vdW  Elec       q    Type
REMARK                         _______ _______ _______ _____ _____    ______ ____
ROOT
ATOM      1  C   UNL     1      34.234  22.835   8.374  0.00  0.00    +0.093 C 
ATOM      2  C   UNL     1      35.531  23.564   8.742  0.00  0.00    +0.033 C 
ATOM      3  C   UNL     1      35.504  23.696  10.259  0.00  0.00    +0.109 C 
ATOM      4  N   UNL     1      34.094  23.705  10.590  0.00  0.00    -0.297 N 
ATOM      5  C   UNL     1      33.622  24.316  11.745  0.00  0.00    +0.247 C 
ATOM      6  O   UNL     1      34.372  24.946  12.491  0.00  0.00    -0.270 OA
ATOM      7  C   UNL     1      33.371  22.888   9.629  0.00  0.00    +0.120 C 
ENDROOT
BRANCH   5   8
ATOM      8  C   UNL     1      32.162  24.292  12.088  0.00  0.00    +0.038 A 
ATOM      9  C   UNL     1      31.237  25.214  11.589  0.00  0.00    +0.013 A 
ATOM     10  C   UNL     1      29.917  25.222  12.037  0.00  0.00    +0.002 A 
ATOM     11  C   UNL     1      29.477  24.236  12.913  0.00  0.00    +0.015 A 
ATOM     12  C   UNL     1      30.346  23.219  13.318  0.00  0.00    +0.017 A 
ATOM     13  C   UNL     1      31.694  23.271  12.933  0.00  0.00    +0.028 A 
BRANCH  12  14
ATOM     14  S   UNL     1      29.769  21.885  14.348  0.00  0.00    -0.016 S 
BRANCH  14  15
ATOM     15  C   UNL     1      29.769  22.671  15.972  0.00  0.00    +0.448 C 
ATOM     16  F   UNL     1      30.182  21.863  16.977  0.00  0.00    -0.160 F 
ATOM     17  F   UNL     1      30.577  23.759  15.982  0.00  0.00    -0.160 F 
ATOM     18  F   UNL     1      28.523  23.097  16.296  0.00  0.00    -0.160 F 
ENDBRANCH  14  15
ENDBRANCH  12  14
ENDBRANCH   5   8
BRANCH   1  20
ATOM     19  N   UNL     1      35.147  21.305   6.722  0.00  0.00    -0.329 N 
ATOM     20  C   UNL     1      34.433  21.414   7.879  0.00  0.00    +0.215 C 
ATOM     21  O   UNL     1      33.956  20.419   8.403  0.00  0.00    -0.276 OA
ATOM     22  H   UNL     1      35.244  20.382   6.319  0.00  0.00    +0.145 HD
ATOM     23  H   UNL     1      35.502  22.099   6.209  0.00  0.00    +0.145 HD
ENDBRANCH   1  20
TORSDOF 4
ENDMDL
MODEL 7
REMARK VINA RESULT:      -6.3      4.566      7.293
REMARK  Name = ZINC000826139982
REMARK  4 active torsions:
REMARK  status: ('A' for Active; 'I' for Inactive)
REMARK    1  A    between atoms: C_2  and  C_4
REMARK    2  A    between atoms: C_8  and  C_10
REMARK    3  A    between atoms: C_14  and  S_15
REMARK    4  A    between atoms: S_15  and  C_16
REMARK                            x       y       z     vdW  Elec       q    Type
REMARK                         _______ _______ _______ _____ _____    ______ ____
ROOT
ATOM      1  C   UNL     1      33.390  24.518  11.242  0.00  0.00    +0.093 C 
ATOM      2  C   UNL     1      32.178  24.352  10.319  0.00  0.00    +0.033 C 
ATOM      3  C   UNL     1      30.961  24.425  11.231  0.00  0.00    +0.109 C 
ATOM      4  N   UNL     1      31.451  23.962  12.514  0.00  0.00    -0.297 N 
ATOM      5  C   UNL     1      30.602  23.386  13.450  0.00  0.00    +0.247 C 
ATOM      6  O   UNL     1      29.417  23.169  13.196  0.00  0.00    -0.270 OA
ATOM      7  C   UNL     1      32.850  24.331  12.655  0.00  0.00    +0.120 C 
ENDROOT
BRANCH   5   8
ATOM      8  C   UNL     1      31.119  22.936  14.785  0.00  0.00    +0.038 A 
ATOM      9  C   UNL     1      32.026  21.885  14.946  0.00  0.00    +0.013 A 
ATOM     10  C   UNL     1      32.378  21.428  16.216  0.00  0.00    +0.002 A 
ATOM     11  C   UNL     1      31.908  22.090  17.345  0.00  0.00    +0.015 A 
ATOM     12  C   UNL     1      31.111  23.230  17.209  0.00  0.00    +0.017 A 
ATOM     13  C   UNL     1      30.690  23.627  15.931  0.00  0.00    +0.028 A 
BRANCH  12  14
ATOM     14  S   UNL     1      30.594  24.155  18.640  0.00  0.00    -0.016 S 
BRANCH  14  15
ATOM     15  C   UNL     1      31.884  25.415  18.728  0.00  0.00    +0.448 C 
ATOM     16  F   UNL     1      32.723  25.421  17.665  0.00  0.00    -0.160 F 
ATOM     17  F   UNL     1      31.344  26.654  18.813  0.00  0.00    -0.160 F 
ATOM     18  F   UNL     1      32.650  25.237  19.833  0.00  0.00    -0.160 F 
ENDBRANCH  14  15
ENDBRANCH  12  14
ENDBRANCH   5   8
BRANCH   1  20
ATOM     19  N   UNL     1      35.483  25.750  11.179  0.00  0.00    -0.329 N 
ATOM     20  C   UNL     1      34.125  25.835  11.082  0.00  0.00    +0.215 C 
ATOM     21  O   UNL     1      33.586  26.922  10.938  0.00  0.00    -0.276 OA
ATOM     22  H   UNL     1      36.008  26.615  11.147  0.00  0.00    +0.145 HD
ATOM     23  H   UNL     1      35.975  24.889  11.368  0.00  0.00    +0.145 HD
ENDBRANCH   1  20
TORSDOF 4
ENDMDL
MODEL 8
REMARK VINA RESULT:      -6.2      5.022      7.527
REMARK  Name = ZINC000826139982
REMARK  4 active torsions:
REMARK  status: ('A' for Active; 'I' for Inactive)
REMARK    1  A    between atoms: C_2  and  C_4
REMARK    2  A    between atoms: C_8  and  C_10
REMARK    3  A    between atoms: C_14  and  S_15
REMARK    4  A    between atoms: S_15  and  C_16
REMARK                            x       y       z     vdW  Elec       q    Type
REMARK                         _______ _______ _______ _____ _____    ______ ____
ROOT
ATOM      1  C   UNL     1      34.061  24.685  11.981  0.00  0.00    +0.093 C 
ATOM      2  C   UNL     1      34.404  23.570  10.986  0.00  0.00    +0.033 C 
ATOM      3  C   UNL     1      33.365  22.483  11.223  0.00  0.00    +0.109 C 
ATOM      4  N   UNL     1      32.982  22.653  12.609  0.00  0.00    -0.297 N 
ATOM      5  C   UNL     1      32.483  21.596  13.361  0.00  0.00    +0.247 C 
ATOM      6  O   UNL     1      32.424  20.455  12.904  0.00  0.00    -0.270 OA
ATOM      7  C   UNL     1      33.079  24.060  12.965  0.00  0.00    +0.120 C 
ENDROOT
BRANCH   5   8
ATOM      8  C   UNL     1      32.065  21.795  14.787  0.00  0.00    +0.038 A 
ATOM      9  C   UNL     1      32.963  21.824  15.858  0.00  0.00    +0.013 A 
ATOM     10  C   UNL     1      32.510  21.888  17.175  0.00  0.00    +0.002 A 
ATOM     11  C   UNL     1      31.152  22.032  17.434  0.00  0.00    +0.015 A 
ATOM     12  C   UNL     1      30.244  22.147  16.377  0.00  0.00    +0.017 A 
ATOM     13  C   UNL     1      30.700  21.991  15.059  0.00  0.00    +0.028 A 
BRANCH  12  14
ATOM     14  S   UNL     1      28.517  22.446  16.688  0.00  0.00    -0.016 S 
BRANCH  14  15
ATOM     15  C   UNL     1      27.819  20.807  16.393  0.00  0.00    +0.448 C 
ATOM     16  F   UNL     1      26.505  20.703  16.704  0.00  0.00    -0.160 F 
ATOM     17  F   UNL     1      27.948  20.455  15.092  0.00  0.00    -0.160 F 
ATOM     18  F   UNL     1      28.472  19.872  17.126  0.00  0.00    -0.160 F 
ENDBRANCH  14  15
ENDBRANCH  12  14
ENDBRANCH   5   8
BRANCH   1  20
ATOM     19  N   UNL     1      32.153  25.956  11.179  0.00  0.00    -0.329 N 
ATOM     20  C   UNL     1      33.506  25.945  11.344  0.00  0.00    +0.215 C 
ATOM     21  O   UNL     1      34.183  26.877  10.936  0.00  0.00    -0.276 OA
ATOM     22  H   UNL     1      31.749  26.748  10.694  0.00  0.00    +0.145 HD
ATOM     23  H   UNL     1      31.554  25.183  11.431  0.00  0.00    +0.145 HD
ENDBRANCH   1  20
TORSDOF 4
ENDMDL
MODEL 9
REMARK VINA RESULT:      -6.2      4.212      5.765
REMARK  Name = ZINC000826139982
REMARK  4 active torsions:
REMARK  status: ('A' for Active; 'I' for Inactive)
REMARK    1  A    between atoms: C_2  and  C_4
REMARK    2  A    between atoms: C_8  and  C_10
REMARK    3  A    between atoms: C_14  and  S_15
REMARK    4  A    between atoms: S_15  and  C_16
REMARK                            x       y       z     vdW  Elec       q    Type
REMARK                         _______ _______ _______ _____ _____    ______ ____
ROOT
ATOM      1  C   UNL     1      34.283  22.298  19.668  0.00  0.00    +0.093 C 
ATOM      2  C   UNL     1      34.258  23.565  20.530  0.00  0.00    +0.033 C 
ATOM      3  C   UNL     1      32.799  23.999  20.568  0.00  0.00    +0.109 C 
ATOM      4  N   UNL     1      32.244  23.486  19.332  0.00  0.00    -0.297 N 
ATOM      5  C   UNL     1      31.139  24.077  18.732  0.00  0.00    +0.247 C 
ATOM      6  O   UNL     1      30.639  25.109  19.180  0.00  0.00    -0.270 OA
ATOM      7  C   UNL     1      32.928  22.255  18.974  0.00  0.00    +0.120 C 
ENDROOT
BRANCH   5   8
ATOM      8  C   UNL     1      30.559  23.518  17.467  0.00  0.00    +0.038 A 
ATOM      9  C   UNL     1      29.436  22.685  17.435  0.00  0.00    +0.013 A 
ATOM     10  C   UNL     1      29.014  22.093  16.246  0.00  0.00    +0.002 A 
ATOM     11  C   UNL     1      29.647  22.412  15.050  0.00  0.00    +0.015 A 
ATOM     12  C   UNL     1      30.684  23.350  15.034  0.00  0.00    +0.017 A 
ATOM     13  C   UNL     1      31.159  23.871  16.246  0.00  0.00    +0.028 A 
BRANCH  12  14
ATOM     14  S   UNL     1      31.430  23.856  13.498  0.00  0.00    -0.016 S 
BRANCH  14  15
ATOM     15  C   UNL     1      30.094  24.820  12.760  0.00  0.00    +0.448 C 
ATOM     16  F   UNL     1      30.510  25.744  11.863  0.00  0.00    -0.160 F 
ATOM     17  F   UNL     1      29.214  24.013  12.119  0.00  0.00    -0.160 F 
ATOM     18  F   UNL     1      29.400  25.484  13.717  0.00  0.00    -0.160 F 
ENDBRANCH  14  15
ENDBRANCH  12  14
ENDBRANCH   5   8
BRANCH   1  20
ATOM     19  N   UNL     1      35.321  20.103  19.764  0.00  0.00    -0.329 N 
ATOM     20  C   UNL     1      34.571  21.022  20.437  0.00  0.00    +0.215 C 
ATOM     21  O   UNL     1      34.136  20.764  21.549  0.00  0.00    -0.276 OA
ATOM     22  H   UNL     1      35.478  19.210  20.213  0.00  0.00    +0.145 HD
ATOM     23  H   UNL     1      35.646  20.235  18.817  0.00  0.00    +0.145 HD
ENDBRANCH   1  20
TORSDOF 4
ENDMDL
