MODEL 1
REMARK VINA RESULT:      -6.5      0.000      0.000
REMARK  Name = ZINC001228612316
REMARK  5 active torsions:
REMARK  status: ('A' for Active; 'I' for Inactive)
REMARK    1  A    between atoms: C_2  and  C_4
REMARK    2  A    between atoms: C_8  and  O_9
REMARK    3  A    between atoms: O_9  and  C_10
REMARK    4  A    between atoms: C_10  and  C_11
REMARK    5  A    between atoms: C_10  and  C_17
REMARK                            x       y       z     vdW  Elec       q    Type
REMARK                         _______ _______ _______ _____ _____    ______ ____
ROOT
ATOM      1  C   UNL     1      28.885  21.411  17.625  0.00  0.00    +0.040 A 
ATOM      2  C   UNL     1      27.628  20.816  17.496  0.00  0.00    +0.013 A 
ATOM      3  C   UNL     1      27.459  19.747  16.611  0.00  0.00    +0.004 A 
ATOM      4  C   UNL     1      28.545  19.272  15.870  0.00  0.00    +0.046 A 
ATOM      5  C   UNL     1      29.806  19.858  16.004  0.00  0.00    +0.122 A 
ATOM      6  C   UNL     1      29.958  20.945  16.859  0.00  0.00    +0.058 A 
ENDROOT
BRANCH   1   8
ATOM      7  N   UNL     1      29.131  23.799  18.040  0.00  0.00    -0.325 N 
ATOM      8  C   UNL     1      29.159  22.535  18.555  0.00  0.00    +0.242 C 
ATOM      9  O   UNL     1      29.340  22.350  19.753  0.00  0.00    -0.270 OA
ATOM     10  H   UNL     1      29.175  24.549  18.719  0.00  0.00    +0.145 HD
ATOM     11  H   UNL     1      28.719  24.006  17.142  0.00  0.00    +0.145 HD
ENDBRANCH   1   8
BRANCH   5  12
ATOM     12  O   UNL     1      30.805  19.315  15.244  0.00  0.00    -0.484 OA
BRANCH  12  13
ATOM     13  C   UNL     1      31.278  18.003  15.600  0.00  0.00    +0.208 C 
BRANCH  13  14
ATOM     14  C   UNL     1      31.154  17.092  14.396  0.00  0.00    +0.011 A 
ATOM     15  C   UNL     1      29.894  16.636  13.986  0.00  0.00    +0.010 A 
ATOM     16  C   UNL     1      29.780  15.796  12.885  0.00  0.00    +0.020 A 
ATOM     17  C   UNL     1      30.938  15.435  12.221  0.00  0.00    +0.111 A 
ATOM     18  N   UNL     1      32.172  15.845  12.584  0.00  0.00    -0.263 NA
ATOM     19  C   UNL     1      32.253  16.661  13.663  0.00  0.00    +0.118 A 
ENDBRANCH  13  14
BRANCH  13  20
ATOM     20  C   UNL     1      32.720  18.088  16.050  0.00  0.00    +0.034 C 
ATOM     21  C   UNL     1      33.218  17.380  17.292  0.00  0.00    +0.008 C 
ATOM     22  C   UNL     1      33.099  18.872  17.290  0.00  0.00    +0.008 C 
ENDBRANCH  13  20
ENDBRANCH  12  13
ENDBRANCH   5  12
TORSDOF 5
ENDMDL
MODEL 2
REMARK VINA RESULT:      -6.5      2.084      6.448
REMARK  Name = ZINC001228612316
REMARK  5 active torsions:
REMARK  status: ('A' for Active; 'I' for Inactive)
REMARK    1  A    between atoms: C_2  and  C_4
REMARK    2  A    between atoms: C_8  and  O_9
REMARK    3  A    between atoms: O_9  and  C_10
REMARK    4  A    between atoms: C_10  and  C_11
REMARK    5  A    between atoms: C_10  and  C_17
REMARK                            x       y       z     vdW  Elec       q    Type
REMARK                         _______ _______ _______ _____ _____    ______ ____
ROOT
ATOM      1  C   UNL     1      31.027  15.910  12.771  0.00  0.00    +0.040 A 
ATOM      2  C   UNL     1      32.350  16.054  12.346  0.00  0.00    +0.013 A 
ATOM      3  C   UNL     1      33.231  16.842  13.090  0.00  0.00    +0.004 A 
ATOM      4  C   UNL     1      32.792  17.474  14.259  0.00  0.00    +0.046 A 
ATOM      5  C   UNL     1      31.472  17.325  14.691  0.00  0.00    +0.122 A 
ATOM      6  C   UNL     1      30.591  16.568  13.925  0.00  0.00    +0.058 A 
ENDROOT
BRANCH   1   8
ATOM      7  N   UNL     1      28.810  14.906  12.642  0.00  0.00    -0.325 N 
ATOM      8  C   UNL     1      30.030  15.076  12.053  0.00  0.00    +0.242 C 
ATOM      9  O   UNL     1      30.261  14.609  10.945  0.00  0.00    -0.270 OA
ATOM     10  H   UNL     1      28.105  14.459  12.068  0.00  0.00    +0.145 HD
ATOM     11  H   UNL     1      28.492  15.491  13.400  0.00  0.00    +0.145 HD
ENDBRANCH   1   8
BRANCH   5  12
ATOM     12  O   UNL     1      31.143  17.973  15.850  0.00  0.00    -0.484 OA
BRANCH  12  13
ATOM     13  C   UNL     1      31.322  19.401  15.892  0.00  0.00    +0.208 C 
BRANCH  13  14
ATOM     14  C   UNL     1      29.966  20.063  16.014  0.00  0.00    +0.011 A 
ATOM     15  C   UNL     1      28.807  19.280  16.110  0.00  0.00    +0.010 A 
ATOM     16  C   UNL     1      27.562  19.886  16.216  0.00  0.00    +0.020 A 
ATOM     17  C   UNL     1      27.511  21.269  16.225  0.00  0.00    +0.111 A 
ATOM     18  N   UNL     1      28.600  22.062  16.131  0.00  0.00    -0.263 NA
ATOM     19  C   UNL     1      29.800  21.443  16.025  0.00  0.00    +0.118 A 
ENDBRANCH  13  14
BRANCH  13  20
ATOM     20  C   UNL     1      32.196  19.768  17.071  0.00  0.00    +0.034 C 
ATOM     21  C   UNL     1      33.326  20.769  16.955  0.00  0.00    +0.008 C 
ATOM     22  C   UNL     1      33.642  19.316  17.134  0.00  0.00    +0.008 C 
ENDBRANCH  13  20
ENDBRANCH  12  13
ENDBRANCH   5  12
TORSDOF 5
ENDMDL
MODEL 3
REMARK VINA RESULT:      -6.1      1.592      1.855
REMARK  Name = ZINC001228612316
REMARK  5 active torsions:
REMARK  status: ('A' for Active; 'I' for Inactive)
REMARK    1  A    between atoms: C_2  and  C_4
REMARK    2  A    between atoms: C_8  and  O_9
REMARK    3  A    between atoms: O_9  and  C_10
REMARK    4  A    between atoms: C_10  and  C_11
REMARK    5  A    between atoms: C_10  and  C_17
REMARK                            x       y       z     vdW  Elec       q    Type
REMARK                         _______ _______ _______ _____ _____    ______ ____
ROOT
ATOM      1  C   UNL     1      28.826  20.702  17.616  0.00  0.00    +0.040 A 
ATOM      2  C   UNL     1      27.762  20.051  16.986  0.00  0.00    +0.013 A 
ATOM      3  C   UNL     1      27.998  19.307  15.827  0.00  0.00    +0.004 A 
ATOM      4  C   UNL     1      29.293  19.208  15.309  0.00  0.00    +0.046 A 
ATOM      5  C   UNL     1      30.361  19.850  15.941  0.00  0.00    +0.122 A 
ATOM      6  C   UNL     1      30.112  20.618  17.074  0.00  0.00    +0.058 A 
ENDROOT
BRANCH   1   8
ATOM      7  N   UNL     1      27.577  21.239  19.639  0.00  0.00    -0.325 N 
ATOM      8  C   UNL     1      28.670  21.495  18.861  0.00  0.00    +0.242 C 
ATOM      9  O   UNL     1      29.517  22.305  19.218  0.00  0.00    -0.270 OA
ATOM     10  H   UNL     1      27.572  21.686  20.547  0.00  0.00    +0.145 HD
ATOM     11  H   UNL     1      27.020  20.405  19.525  0.00  0.00    +0.145 HD
ENDBRANCH   1   8
BRANCH   5  12
ATOM     12  O   UNL     1      31.589  19.683  15.363  0.00  0.00    -0.484 OA
BRANCH  12  13
ATOM     13  C   UNL     1      32.249  18.417  15.547  0.00  0.00    +0.208 C 
BRANCH  13  14
ATOM     14  C   UNL     1      32.761  17.931  14.207  0.00  0.00    +0.011 A 
ATOM     15  C   UNL     1      32.410  16.657  13.740  0.00  0.00    +0.010 A 
ATOM     16  C   UNL     1      32.884  16.207  12.514  0.00  0.00    +0.020 A 
ATOM     17  C   UNL     1      33.701  17.052  11.784  0.00  0.00    +0.111 A 
ATOM     18  N   UNL     1      34.068  18.285  12.196  0.00  0.00    -0.263 NA
ATOM     19  C   UNL     1      33.593  18.695  13.398  0.00  0.00    +0.118 A 
ENDBRANCH  13  14
BRANCH  13  20
ATOM     20  C   UNL     1      33.395  18.579  16.521  0.00  0.00    +0.034 C 
ATOM     21  C   UNL     1      34.389  17.467  16.785  0.00  0.00    +0.008 C 
ATOM     22  C   UNL     1      33.397  17.838  17.844  0.00  0.00    +0.008 C 
ENDBRANCH  13  20
ENDBRANCH  12  13
ENDBRANCH   5  12
TORSDOF 5
ENDMDL
MODEL 4
REMARK VINA RESULT:      -6.0      4.181      6.224
REMARK  Name = ZINC001228612316
REMARK  5 active torsions:
REMARK  status: ('A' for Active; 'I' for Inactive)
REMARK    1  A    between atoms: C_2  and  C_4
REMARK    2  A    between atoms: C_8  and  O_9
REMARK    3  A    between atoms: O_9  and  C_10
REMARK    4  A    between atoms: C_10  and  C_11
REMARK    5  A    between atoms: C_10  and  C_17
REMARK                            x       y       z     vdW  Elec       q    Type
REMARK                         _______ _______ _______ _____ _____    ______ ____
ROOT
ATOM      1  C   UNL     1      29.483  18.929  15.190  0.00  0.00    +0.040 A 
ATOM      2  C   UNL     1      28.337  19.124  15.964  0.00  0.00    +0.013 A 
ATOM      3  C   UNL     1      27.782  20.403  16.064  0.00  0.00    +0.004 A 
ATOM      4  C   UNL     1      28.367  21.476  15.384  0.00  0.00    +0.046 A 
ATOM      5  C   UNL     1      29.508  21.283  14.602  0.00  0.00    +0.122 A 
ATOM      6  C   UNL     1      30.076  20.014  14.537  0.00  0.00    +0.058 A 
ENDROOT
BRANCH   1   8
ATOM      7  N   UNL     1      29.323  16.554  14.669  0.00  0.00    -0.325 N 
ATOM      8  C   UNL     1      30.126  17.602  15.012  0.00  0.00    +0.242 C 
ATOM      9  O   UNL     1      31.340  17.459  15.103  0.00  0.00    -0.270 OA
ATOM     10  H   UNL     1      29.804  15.700  14.412  0.00  0.00    +0.145 HD
ATOM     11  H   UNL     1      28.386  16.686  14.317  0.00  0.00    +0.145 HD
ENDBRANCH   1   8
BRANCH   5  12
ATOM     12  O   UNL     1      29.998  22.392  13.970  0.00  0.00    -0.484 OA
BRANCH  12  13
ATOM     13  C   UNL     1      31.256  22.922  14.427  0.00  0.00    +0.208 C 
BRANCH  13  14
ATOM     14  C   UNL     1      31.855  23.779  13.331  0.00  0.00    +0.011 A 
ATOM     15  C   UNL     1      31.144  24.877  12.828  0.00  0.00    +0.010 A 
ATOM     16  C   UNL     1      31.690  25.659  11.819  0.00  0.00    +0.020 A 
ATOM     17  C   UNL     1      32.942  25.319  11.339  0.00  0.00    +0.111 A 
ATOM     18  N   UNL     1      33.661  24.269  11.789  0.00  0.00    -0.263 NA
ATOM     19  C   UNL     1      33.101  23.521  12.772  0.00  0.00    +0.118 A 
ENDBRANCH  13  14
BRANCH  13  20
ATOM     20  C   UNL     1      31.034  23.746  15.677  0.00  0.00    +0.034 C 
ATOM     21  C   UNL     1      32.180  24.387  16.431  0.00  0.00    +0.008 C 
ATOM     22  C   UNL     1      31.459  23.222  17.035  0.00  0.00    +0.008 C 
ENDBRANCH  13  20
ENDBRANCH  12  13
ENDBRANCH   5  12
TORSDOF 5
ENDMDL
MODEL 5
REMARK VINA RESULT:      -6.0      2.019      6.807
REMARK  Name = ZINC001228612316
REMARK  5 active torsions:
REMARK  status: ('A' for Active; 'I' for Inactive)
REMARK    1  A    between atoms: C_2  and  C_4
REMARK    2  A    between atoms: C_8  and  O_9
REMARK    3  A    between atoms: O_9  and  C_10
REMARK    4  A    between atoms: C_10  and  C_11
REMARK    5  A    between atoms: C_10  and  C_17
REMARK                            x       y       z     vdW  Elec       q    Type
REMARK                         _______ _______ _______ _____ _____    ______ ____
ROOT
ATOM      1  C   UNL     1      31.469  17.480  14.787  0.00  0.00    +0.040 A 
ATOM      2  C   UNL     1      30.158  17.074  14.527  0.00  0.00    +0.013 A 
ATOM      3  C   UNL     1      29.094  17.762  15.117  0.00  0.00    +0.004 A 
ATOM      4  C   UNL     1      29.343  18.856  15.952  0.00  0.00    +0.046 A 
ATOM      5  C   UNL     1      30.653  19.270  16.206  0.00  0.00    +0.122 A 
ATOM      6  C   UNL     1      31.708  18.558  15.645  0.00  0.00    +0.058 A 
ENDROOT
BRANCH   1   8
ATOM      7  N   UNL     1      33.878  17.113  14.723  0.00  0.00    -0.325 N 
ATOM      8  C   UNL     1      32.657  16.821  14.187  0.00  0.00    +0.242 C 
ATOM      9  O   UNL     1      32.549  15.994  13.290  0.00  0.00    -0.270 OA
ATOM     10  H   UNL     1      34.648  16.543  14.395  0.00  0.00    +0.145 HD
ATOM     11  H   UNL     1      33.978  17.560  15.623  0.00  0.00    +0.145 HD
ENDBRANCH   1   8
BRANCH   5  12
ATOM     12  O   UNL     1      30.790  20.355  17.027  0.00  0.00    -0.484 OA
BRANCH  12  13
ATOM     13  C   UNL     1      29.977  21.511  16.750  0.00  0.00    +0.208 C 
BRANCH  13  14
ATOM     14  C   UNL     1      29.077  21.773  17.940  0.00  0.00    +0.011 A 
ATOM     15  C   UNL     1      29.618  21.834  19.231  0.00  0.00    +0.010 A 
ATOM     16  C   UNL     1      28.793  22.069  20.324  0.00  0.00    +0.020 A 
ATOM     17  C   UNL     1      27.440  22.239  20.091  0.00  0.00    +0.111 A 
ATOM     18  N   UNL     1      26.874  22.184  18.866  0.00  0.00    -0.263 NA
ATOM     19  C   UNL     1      27.703  21.950  17.820  0.00  0.00    +0.118 A 
ENDBRANCH  13  14
BRANCH  13  20
ATOM     20  C   UNL     1      30.866  22.706  16.488  0.00  0.00    +0.034 C 
ATOM     21  C   UNL     1      30.301  24.088  16.231  0.00  0.00    +0.008 C 
ATOM     22  C   UNL     1      30.939  23.330  15.108  0.00  0.00    +0.008 C 
ENDBRANCH  13  20
ENDBRANCH  12  13
ENDBRANCH   5  12
TORSDOF 5
ENDMDL
MODEL 6
REMARK VINA RESULT:      -6.0      4.979      7.962
REMARK  Name = ZINC001228612316
REMARK  5 active torsions:
REMARK  status: ('A' for Active; 'I' for Inactive)
REMARK    1  A    between atoms: C_2  and  C_4
REMARK    2  A    between atoms: C_8  and  O_9
REMARK    3  A    between atoms: O_9  and  C_10
REMARK    4  A    between atoms: C_10  and  C_11
REMARK    5  A    between atoms: C_10  and  C_17
REMARK                            x       y       z     vdW  Elec       q    Type
REMARK                         _______ _______ _______ _____ _____    ______ ____
ROOT
ATOM      1  C   UNL     1      23.916  25.111  18.463  0.00  0.00    +0.040 A 
ATOM      2  C   UNL     1      23.778  25.877  19.623  0.00  0.00    +0.013 A 
ATOM      3  C   UNL     1      24.529  25.554  20.756  0.00  0.00    +0.004 A 
ATOM      4  C   UNL     1      25.420  24.477  20.723  0.00  0.00    +0.046 A 
ATOM      5  C   UNL     1      25.567  23.714  19.562  0.00  0.00    +0.122 A 
ATOM      6  C   UNL     1      24.789  24.019  18.450  0.00  0.00    +0.058 A 
ENDROOT
BRANCH   1   8
ATOM      7  N   UNL     1      22.340  26.476  17.202  0.00  0.00    -0.325 N 
ATOM      8  C   UNL     1      23.174  25.395  17.209  0.00  0.00    +0.242 C 
ATOM      9  O   UNL     1      23.346  24.730  16.195  0.00  0.00    -0.270 OA
ATOM     10  H   UNL     1      21.962  26.731  16.297  0.00  0.00    +0.145 HD
ATOM     11  H   UNL     1      22.384  27.195  17.909  0.00  0.00    +0.145 HD
ENDBRANCH   1   8
BRANCH   5  12
ATOM     12  O   UNL     1      26.471  22.689  19.628  0.00  0.00    -0.484 OA
BRANCH  12  13
ATOM     13  C   UNL     1      27.509  22.648  18.631  0.00  0.00    +0.208 C 
BRANCH  13  14
ATOM     14  C   UNL     1      28.776  23.235  19.217  0.00  0.00    +0.011 A 
ATOM     15  C   UNL     1      29.321  22.699  20.392  0.00  0.00    +0.010 A 
ATOM     16  C   UNL     1      30.479  23.241  20.935  0.00  0.00    +0.020 A 
ATOM     17  C   UNL     1      31.065  24.310  20.281  0.00  0.00    +0.111 A 
ATOM     18  N   UNL     1      30.573  24.861  19.150  0.00  0.00    -0.263 NA
ATOM     19  C   UNL     1      29.439  24.314  18.646  0.00  0.00    +0.118 A 
ENDBRANCH  13  14
BRANCH  13  20
ATOM     20  C   UNL     1      27.742  21.217  18.200  0.00  0.00    +0.034 C 
ATOM     21  C   UNL     1      28.942  20.812  17.371  0.00  0.00    +0.008 C 
ATOM     22  C   UNL     1      27.580  20.808  16.749  0.00  0.00    +0.008 C 
ENDBRANCH  13  20
ENDBRANCH  12  13
ENDBRANCH   5  12
TORSDOF 5
ENDMDL
MODEL 7
REMARK VINA RESULT:      -6.0      4.093      5.800
REMARK  Name = ZINC001228612316
REMARK  5 active torsions:
REMARK  status: ('A' for Active; 'I' for Inactive)
REMARK    1  A    between atoms: C_2  and  C_4
REMARK    2  A    between atoms: C_8  and  O_9
REMARK    3  A    between atoms: O_9  and  C_10
REMARK    4  A    between atoms: C_10  and  C_11
REMARK    5  A    between atoms: C_10  and  C_17
REMARK                            x       y       z     vdW  Elec       q    Type
REMARK                         _______ _______ _______ _____ _____    ______ ____
ROOT
ATOM      1  C   UNL     1      31.390  25.276  13.247  0.00  0.00    +0.040 A 
ATOM      2  C   UNL     1      32.484  25.559  14.069  0.00  0.00    +0.013 A 
ATOM      3  C   UNL     1      33.020  24.550  14.873  0.00  0.00    +0.004 A 
ATOM      4  C   UNL     1      32.471  23.264  14.845  0.00  0.00    +0.046 A 
ATOM      5  C   UNL     1      31.382  22.976  14.018  0.00  0.00    +0.122 A 
ATOM      6  C   UNL     1      30.831  23.995  13.248  0.00  0.00    +0.058 A 
ENDROOT
BRANCH   1   8
ATOM      7  N   UNL     1      29.523  26.731  12.667  0.00  0.00    -0.325 N 
ATOM      8  C   UNL     1      30.771  26.281  12.346  0.00  0.00    +0.242 C 
ATOM      9  O   UNL     1      31.375  26.743  11.385  0.00  0.00    -0.270 OA
ATOM     10  H   UNL     1      29.187  27.517  12.123  0.00  0.00    +0.145 HD
ATOM     11  H   UNL     1      29.118  26.588  13.581  0.00  0.00    +0.145 HD
ENDBRANCH   1   8
BRANCH   5  12
ATOM     12  O   UNL     1      30.925  21.688  14.055  0.00  0.00    -0.484 OA
BRANCH  12  13
ATOM     13  C   UNL     1      31.241  20.898  15.216  0.00  0.00    +0.208 C 
BRANCH  13  14
ATOM     14  C   UNL     1      29.972  20.655  16.006  0.00  0.00    +0.011 A 
ATOM     15  C   UNL     1      28.922  19.919  15.441  0.00  0.00    +0.010 A 
ATOM     16  C   UNL     1      27.755  19.701  16.161  0.00  0.00    +0.020 A 
ATOM     17  C   UNL     1      27.671  20.228  17.438  0.00  0.00    +0.111 A 
ATOM     18  N   UNL     1      28.655  20.947  18.020  0.00  0.00    -0.263 NA
ATOM     19  C   UNL     1      29.780  21.147  17.292  0.00  0.00    +0.118 A 
ENDBRANCH  13  14
BRANCH  13  20
ATOM     20  C   UNL     1      31.853  19.583  14.784  0.00  0.00    +0.034 C 
ATOM     21  C   UNL     1      32.450  18.609  15.778  0.00  0.00    +0.008 C 
ATOM     22  C   UNL     1      33.352  19.366  14.853  0.00  0.00    +0.008 C 
ENDBRANCH  13  20
ENDBRANCH  12  13
ENDBRANCH   5  12
TORSDOF 5
ENDMDL
MODEL 8
REMARK VINA RESULT:      -6.0      2.192      6.699
REMARK  Name = ZINC001228612316
REMARK  5 active torsions:
REMARK  status: ('A' for Active; 'I' for Inactive)
REMARK    1  A    between atoms: C_2  and  C_4
REMARK    2  A    between atoms: C_8  and  O_9
REMARK    3  A    between atoms: O_9  and  C_10
REMARK    4  A    between atoms: C_10  and  C_11
REMARK    5  A    between atoms: C_10  and  C_17
REMARK                            x       y       z     vdW  Elec       q    Type
REMARK                         _______ _______ _______ _____ _____    ______ ____
ROOT
ATOM      1  C   UNL     1      33.348  16.506  13.742  0.00  0.00    +0.040 A 
ATOM      2  C   UNL     1      34.372  15.928  14.496  0.00  0.00    +0.013 A 
ATOM      3  C   UNL     1      34.590  16.359  15.807  0.00  0.00    +0.004 A 
ATOM      4  C   UNL     1      33.782  17.357  16.361  0.00  0.00    +0.046 A 
ATOM      5  C   UNL     1      32.751  17.931  15.613  0.00  0.00    +0.122 A 
ATOM      6  C   UNL     1      32.563  17.522  14.297  0.00  0.00    +0.058 A 
ENDROOT
BRANCH   1   8
ATOM      7  N   UNL     1      33.557  16.844  11.338  0.00  0.00    -0.325 N 
ATOM      8  C   UNL     1      33.033  16.094  12.351  0.00  0.00    +0.242 C 
ATOM      9  O   UNL     1      32.381  15.084  12.111  0.00  0.00    -0.270 OA
ATOM     10  H   UNL     1      33.449  16.458  10.407  0.00  0.00    +0.145 HD
ATOM     11  H   UNL     1      34.310  17.499  11.487  0.00  0.00    +0.145 HD
ENDBRANCH   1   8
BRANCH   5  12
ATOM     12  O   UNL     1      32.011  18.890  16.247  0.00  0.00    -0.484 OA
BRANCH  12  13
ATOM     13  C   UNL     1      31.169  19.731  15.436  0.00  0.00    +0.208 C 
BRANCH  13  14
ATOM     14  C   UNL     1      29.886  20.013  16.189  0.00  0.00    +0.011 A 
ATOM     15  C   UNL     1      28.671  19.487  15.731  0.00  0.00    +0.010 A 
ATOM     16  C   UNL     1      27.492  19.751  16.417  0.00  0.00    +0.020 A 
ATOM     17  C   UNL     1      27.563  20.538  17.552  0.00  0.00    +0.111 A 
ATOM     18  N   UNL     1      28.710  21.069  18.028  0.00  0.00    -0.263 NA
ATOM     19  C   UNL     1      29.843  20.798  17.336  0.00  0.00    +0.118 A 
ENDBRANCH  13  14
BRANCH  13  20
ATOM     20  C   UNL     1      31.892  21.022  15.125  0.00  0.00    +0.034 C 
ATOM     21  C   UNL     1      31.320  22.056  14.177  0.00  0.00    +0.008 C 
ATOM     22  C   UNL     1      32.513  21.253  13.761  0.00  0.00    +0.008 C 
ENDBRANCH  13  20
ENDBRANCH  12  13
ENDBRANCH   5  12
TORSDOF 5
ENDMDL
MODEL 9
REMARK VINA RESULT:      -6.0      2.751      4.135
REMARK  Name = ZINC001228612316
REMARK  5 active torsions:
REMARK  status: ('A' for Active; 'I' for Inactive)
REMARK    1  A    between atoms: C_2  and  C_4
REMARK    2  A    between atoms: C_8  and  O_9
REMARK    3  A    between atoms: O_9  and  C_10
REMARK    4  A    between atoms: C_10  and  C_11
REMARK    5  A    between atoms: C_10  and  C_17
REMARK                            x       y       z     vdW  Elec       q    Type
REMARK                         _______ _______ _______ _____ _____    ______ ____
ROOT
ATOM      1  C   UNL     1      27.814  21.336  18.442  0.00  0.00    +0.040 A 
ATOM      2  C   UNL     1      27.242  20.104  18.117  0.00  0.00    +0.013 A 
ATOM      3  C   UNL     1      27.374  19.604  16.819  0.00  0.00    +0.004 A 
ATOM      4  C   UNL     1      28.084  20.329  15.856  0.00  0.00    +0.046 A 
ATOM      5  C   UNL     1      28.665  21.557  16.180  0.00  0.00    +0.122 A 
ATOM      6  C   UNL     1      28.498  22.066  17.464  0.00  0.00    +0.058 A 
ENDROOT
BRANCH   1   8
ATOM      7  N   UNL     1      26.872  22.969  19.986  0.00  0.00    -0.325 N 
ATOM      8  C   UNL     1      27.741  21.933  19.800  0.00  0.00    +0.242 C 
ATOM      9  O   UNL     1      28.383  21.477  20.738  0.00  0.00    -0.270 OA
ATOM     10  H   UNL     1      26.735  23.258  20.948  0.00  0.00    +0.145 HD
ATOM     11  H   UNL     1      26.139  23.183  19.326  0.00  0.00    +0.145 HD
ENDBRANCH   1   8
BRANCH   5  12
ATOM     12  O   UNL     1      29.346  22.183  15.173  0.00  0.00    -0.484 OA
BRANCH  12  13
ATOM     13  C   UNL     1      30.728  22.515  15.406  0.00  0.00    +0.208 C 
BRANCH  13  14
ATOM     14  C   UNL     1      31.524  21.234  15.543  0.00  0.00    +0.011 A 
ATOM     15  C   UNL     1      32.083  20.882  16.779  0.00  0.00    +0.010 A 
ATOM     16  C   UNL     1      32.818  19.711  16.905  0.00  0.00    +0.020 A 
ATOM     17  C   UNL     1      32.974  18.918  15.782  0.00  0.00    +0.111 A 
ATOM     18  N   UNL     1      32.458  19.219  14.571  0.00  0.00    -0.263 NA
ATOM     19  C   UNL     1      31.749  20.370  14.478  0.00  0.00    +0.118 A 
ENDBRANCH  13  14
BRANCH  13  20
ATOM     20  C   UNL     1      31.253  23.340  14.251  0.00  0.00    +0.034 C 
ATOM     21  C   UNL     1      32.609  24.013  14.295  0.00  0.00    +0.008 C 
ATOM     22  C   UNL     1      31.367  24.847  14.365  0.00  0.00    +0.008 C 
ENDBRANCH  13  20
ENDBRANCH  12  13
ENDBRANCH   5  12
TORSDOF 5
ENDMDL
