MODEL 1
REMARK VINA RESULT:      -6.7      0.000      0.000
REMARK  Name = ZINC000435351830
REMARK  5 active torsions:
REMARK  status: ('A' for Active; 'I' for Inactive)
REMARK    1  A    between atoms: C_2  and  C_3
REMARK    2  A    between atoms: C_7  and  C_8
REMARK    3  A    between atoms: C_8  and  C_9
REMARK    4  A    between atoms: N_11  and  C_12
REMARK    5  A    between atoms: C_12  and  C_13
REMARK                            x       y       z     vdW  Elec       q    Type
REMARK                         _______ _______ _______ _____ _____    ______ ____
ROOT
ATOM      1  C   UNL     1      33.292  21.185  13.920  0.00  0.00    +0.224 C 
ATOM      2  O   UNL     1      33.566  22.210  14.534  0.00  0.00    -0.275 OA
ATOM      3  N   UNL     1      33.798  20.859  12.689  0.00  0.00    -0.309 N 
ATOM      4  H   UNL     1      33.552  19.978  12.261  0.00  0.00    +0.149 HD
ENDROOT
BRANCH   1   5
ATOM      5  C   UNL     1      32.293  20.201  14.473  0.00  0.00    +0.072 C 
ATOM      6  C   UNL     1      31.161  20.729  15.347  0.00  0.00    +0.022 C 
ATOM      7  C   UNL     1      30.855  20.302  13.949  0.00  0.00    +0.022 C 
BRANCH   5  12
ATOM      8  C   UNL     1      32.752  16.438  13.883  0.00  0.00    +0.052 A 
ATOM      9  C   UNL     1      33.556  16.063  14.960  0.00  0.00    +0.019 A 
ATOM     10  C   UNL     1      34.007  17.030  15.858  0.00  0.00    +0.002 A 
ATOM     11  C   UNL     1      33.635  18.368  15.696  0.00  0.00    +0.005 A 
ATOM     12  C   UNL     1      32.800  18.769  14.639  0.00  0.00    -0.031 A 
ATOM     13  C   UNL     1      32.395  17.780  13.722  0.00  0.00    +0.023 A 
BRANCH   8  15
ATOM     14  N   UNL     1      31.878  14.657  12.213  0.00  0.00    -0.191 NA
ATOM     15  C   UNL     1      32.262  15.457  12.964  0.00  0.00    +0.099 C 
ENDBRANCH   8  15
ENDBRANCH   5  12
ENDBRANCH   1   5
BRANCH   3  16
ATOM     16  C   UNL     1      34.651  21.769  11.955  0.00  0.00    +0.159 C 
BRANCH  16  17
ATOM     17  C   UNL     1      33.968  22.394  10.759  0.00  0.00    +0.058 A 
ATOM     18  C   UNL     1      33.152  23.516  10.922  0.00  0.00    +0.028 A 
ATOM     19  C   UNL     1      32.512  24.059   9.809  0.00  0.00    +0.042 A 
ATOM     20  C   UNL     1      32.712  23.468   8.573  0.00  0.00    +0.141 A 
ATOM     21  F   UNL     1      32.108  23.958   7.483  0.00  0.00    -0.204 F 
ATOM     22  C   UNL     1      33.542  22.366   8.484  0.00  0.00    +0.149 A 
ATOM     23  N   UNL     1      34.181  21.816   9.546  0.00  0.00    -0.255 NA
ENDBRANCH  16  17
ENDBRANCH   3  16
TORSDOF 5
ENDMDL
MODEL 2
REMARK VINA RESULT:      -6.5      1.909      2.420
REMARK  Name = ZINC000435351830
REMARK  5 active torsions:
REMARK  status: ('A' for Active; 'I' for Inactive)
REMARK    1  A    between atoms: C_2  and  C_3
REMARK    2  A    between atoms: C_7  and  C_8
REMARK    3  A    between atoms: C_8  and  C_9
REMARK    4  A    between atoms: N_11  and  C_12
REMARK    5  A    between atoms: C_12  and  C_13
REMARK                            x       y       z     vdW  Elec       q    Type
REMARK                         _______ _______ _______ _____ _____    ______ ____
ROOT
ATOM      1  C   UNL     1      31.344  21.637  13.876  0.00  0.00    +0.224 C 
ATOM      2  O   UNL     1      30.842  20.977  12.974  0.00  0.00    -0.275 OA
ATOM      3  N   UNL     1      31.790  22.926  13.739  0.00  0.00    -0.309 N 
ATOM      4  H   UNL     1      32.161  23.418  14.540  0.00  0.00    +0.149 HD
ENDROOT
BRANCH   1   5
ATOM      5  C   UNL     1      31.570  21.031  15.238  0.00  0.00    +0.072 C 
ATOM      6  C   UNL     1      31.449  21.931  16.463  0.00  0.00    +0.022 C 
ATOM      7  C   UNL     1      30.357  20.955  16.173  0.00  0.00    +0.022 C 
BRANCH   5  12
ATOM      8  C   UNL     1      32.894  17.511  14.482  0.00  0.00    +0.052 A 
ATOM      9  C   UNL     1      33.961  17.396  15.373  0.00  0.00    +0.019 A 
ATOM     10  C   UNL     1      34.302  18.475  16.189  0.00  0.00    +0.002 A 
ATOM     11  C   UNL     1      33.563  19.660  16.133  0.00  0.00    +0.005 A 
ATOM     12  C   UNL     1      32.463  19.792  15.268  0.00  0.00    -0.031 A 
ATOM     13  C   UNL     1      32.168  18.704  14.425  0.00  0.00    +0.023 A 
BRANCH   8  15
ATOM     14  N   UNL     1      32.194  15.515  12.981  0.00  0.00    -0.191 NA
ATOM     15  C   UNL     1      32.516  16.407  13.653  0.00  0.00    +0.099 C 
ENDBRANCH   8  15
ENDBRANCH   5  12
ENDBRANCH   1   5
BRANCH   3  16
ATOM     16  C   UNL     1      31.785  23.598  12.458  0.00  0.00    +0.159 C 
BRANCH  16  17
ATOM     17  C   UNL     1      33.089  23.457  11.706  0.00  0.00    +0.058 A 
ATOM     18  C   UNL     1      33.136  23.693  10.329  0.00  0.00    +0.028 A 
ATOM     19  C   UNL     1      34.345  23.531   9.653  0.00  0.00    +0.042 A 
ATOM     20  C   UNL     1      35.464  23.148  10.372  0.00  0.00    +0.141 A 
ATOM     21  F   UNL     1      36.640  22.976   9.754  0.00  0.00    -0.204 F 
ATOM     22  C   UNL     1      35.346  22.944  11.735  0.00  0.00    +0.149 A 
ATOM     23  N   UNL     1      34.188  23.094  12.422  0.00  0.00    -0.255 NA
ENDBRANCH  16  17
ENDBRANCH   3  16
TORSDOF 5
ENDMDL
MODEL 3
REMARK VINA RESULT:      -6.2      4.089      5.180
REMARK  Name = ZINC000435351830
REMARK  5 active torsions:
REMARK  status: ('A' for Active; 'I' for Inactive)
REMARK    1  A    between atoms: C_2  and  C_3
REMARK    2  A    between atoms: C_7  and  C_8
REMARK    3  A    between atoms: C_8  and  C_9
REMARK    4  A    between atoms: N_11  and  C_12
REMARK    5  A    between atoms: C_12  and  C_13
REMARK                            x       y       z     vdW  Elec       q    Type
REMARK                         _______ _______ _______ _____ _____    ______ ____
ROOT
ATOM      1  C   UNL     1      33.319  21.427  14.174  0.00  0.00    +0.224 C 
ATOM      2  O   UNL     1      33.991  21.221  13.170  0.00  0.00    -0.275 OA
ATOM      3  N   UNL     1      33.441  22.532  14.976  0.00  0.00    -0.309 N 
ATOM      4  H   UNL     1      32.826  22.648  15.769  0.00  0.00    +0.149 HD
ENDROOT
BRANCH   1   5
ATOM      5  C   UNL     1      32.314  20.409  14.648  0.00  0.00    +0.072 C 
ATOM      6  C   UNL     1      31.131  20.889  15.481  0.00  0.00    +0.022 C 
ATOM      7  C   UNL     1      30.902  20.501  14.057  0.00  0.00    +0.022 C 
BRANCH   5  12
ATOM      8  C   UNL     1      32.802  16.655  14.027  0.00  0.00    +0.052 A 
ATOM      9  C   UNL     1      33.631  16.282  15.085  0.00  0.00    +0.019 A 
ATOM     10  C   UNL     1      34.090  17.250  15.979  0.00  0.00    +0.002 A 
ATOM     11  C   UNL     1      33.701  18.584  15.833  0.00  0.00    +0.005 A 
ATOM     12  C   UNL     1      32.840  18.982  14.795  0.00  0.00    -0.031 A 
ATOM     13  C   UNL     1      32.427  17.994  13.881  0.00  0.00    +0.023 A 
BRANCH   8  15
ATOM     14  N   UNL     1      31.885  14.880  12.374  0.00  0.00    -0.191 NA
ATOM     15  C   UNL     1      32.303  15.673  13.112  0.00  0.00    +0.099 C 
ENDBRANCH   8  15
ENDBRANCH   5  12
ENDBRANCH   1   5
BRANCH   3  16
ATOM     16  C   UNL     1      34.465  23.528  14.745  0.00  0.00    +0.159 C 
BRANCH  16  17
ATOM     17  C   UNL     1      34.892  24.248  16.004  0.00  0.00    +0.058 A 
ATOM     18  C   UNL     1      34.400  23.843  17.248  0.00  0.00    +0.028 A 
ATOM     19  C   UNL     1      34.788  24.539  18.391  0.00  0.00    +0.042 A 
ATOM     20  C   UNL     1      35.656  25.609  18.257  0.00  0.00    +0.141 A 
ATOM     21  F   UNL     1      36.046  26.304  19.333  0.00  0.00    -0.204 F 
ATOM     22  C   UNL     1      36.113  25.946  16.996  0.00  0.00    +0.149 A 
ATOM     23  N   UNL     1      35.757  25.289  15.865  0.00  0.00    -0.255 NA
ENDBRANCH  16  17
ENDBRANCH   3  16
TORSDOF 5
ENDMDL
MODEL 4
REMARK VINA RESULT:      -6.2      1.899      2.537
REMARK  Name = ZINC000435351830
REMARK  5 active torsions:
REMARK  status: ('A' for Active; 'I' for Inactive)
REMARK    1  A    between atoms: C_2  and  C_3
REMARK    2  A    between atoms: C_7  and  C_8
REMARK    3  A    between atoms: C_8  and  C_9
REMARK    4  A    between atoms: N_11  and  C_12
REMARK    5  A    between atoms: C_12  and  C_13
REMARK                            x       y       z     vdW  Elec       q    Type
REMARK                         _______ _______ _______ _____ _____    ______ ____
ROOT
ATOM      1  C   UNL     1      33.265  20.412  12.823  0.00  0.00    +0.224 C 
ATOM      2  O   UNL     1      33.546  19.601  11.948  0.00  0.00    -0.275 OA
ATOM      3  N   UNL     1      33.682  21.717  12.833  0.00  0.00    -0.309 N 
ATOM      4  H   UNL     1      33.380  22.336  13.573  0.00  0.00    +0.149 HD
ENDROOT
BRANCH   1   5
ATOM      5  C   UNL     1      32.459  19.995  14.026  0.00  0.00    +0.072 C 
ATOM      6  C   UNL     1      31.719  21.071  14.813  0.00  0.00    +0.022 C 
ATOM      7  C   UNL     1      30.936  20.156  13.931  0.00  0.00    +0.022 C 
BRANCH   5  12
ATOM      8  C   UNL     1      34.376  17.610  16.339  0.00  0.00    +0.052 A 
ATOM      9  C   UNL     1      33.926  16.359  15.917  0.00  0.00    +0.019 A 
ATOM     10  C   UNL     1      32.955  16.272  14.919  0.00  0.00    +0.002 A 
ATOM     11  C   UNL     1      32.452  17.433  14.325  0.00  0.00    +0.005 A 
ATOM     12  C   UNL     1      32.911  18.705  14.708  0.00  0.00    -0.031 A 
ATOM     13  C   UNL     1      33.858  18.766  15.748  0.00  0.00    +0.023 A 
BRANCH   8  15
ATOM     14  N   UNL     1      36.204  17.820  18.167  0.00  0.00    -0.191 NA
ATOM     15  C   UNL     1      35.387  17.718  17.347  0.00  0.00    +0.099 C 
ENDBRANCH   8  15
ENDBRANCH   5  12
ENDBRANCH   1   5
BRANCH   3  16
ATOM     16  C   UNL     1      34.588  22.232  11.830  0.00  0.00    +0.159 C 
BRANCH  16  17
ATOM     17  C   UNL     1      33.886  22.694  10.573  0.00  0.00    +0.058 A 
ATOM     18  C   UNL     1      32.946  23.726  10.630  0.00  0.00    +0.028 A 
ATOM     19  C   UNL     1      32.293  24.116   9.462  0.00  0.00    +0.042 A 
ATOM     20  C   UNL     1      32.604  23.470   8.278  0.00  0.00    +0.141 A 
ATOM     21  F   UNL     1      31.991  23.814   7.138  0.00  0.00    -0.204 F 
ATOM     22  C   UNL     1      33.554  22.465   8.293  0.00  0.00    +0.149 A 
ATOM     23  N   UNL     1      34.208  22.064   9.411  0.00  0.00    -0.255 NA
ENDBRANCH  16  17
ENDBRANCH   3  16
TORSDOF 5
ENDMDL
MODEL 5
REMARK VINA RESULT:      -6.2      2.673      3.385
REMARK  Name = ZINC000435351830
REMARK  5 active torsions:
REMARK  status: ('A' for Active; 'I' for Inactive)
REMARK    1  A    between atoms: C_2  and  C_3
REMARK    2  A    between atoms: C_7  and  C_8
REMARK    3  A    between atoms: C_8  and  C_9
REMARK    4  A    between atoms: N_11  and  C_12
REMARK    5  A    between atoms: C_12  and  C_13
REMARK                            x       y       z     vdW  Elec       q    Type
REMARK                         _______ _______ _______ _____ _____    ______ ____
ROOT
ATOM      1  C   UNL     1      31.363  21.615  13.864  0.00  0.00    +0.224 C 
ATOM      2  O   UNL     1      30.880  20.935  12.966  0.00  0.00    -0.275 OA
ATOM      3  N   UNL     1      31.819  22.898  13.707  0.00  0.00    -0.309 N 
ATOM      4  H   UNL     1      32.172  23.407  14.505  0.00  0.00    +0.149 HD
ENDROOT
BRANCH   1   5
ATOM      5  C   UNL     1      31.549  21.042  15.246  0.00  0.00    +0.072 C 
ATOM      6  C   UNL     1      31.466  21.985  16.441  0.00  0.00    +0.022 C 
ATOM      7  C   UNL     1      30.328  21.056  16.173  0.00  0.00    +0.022 C 
BRANCH   5  12
ATOM      8  C   UNL     1      34.351  18.602  16.201  0.00  0.00    +0.052 A 
ATOM      9  C   UNL     1      34.066  17.493  15.404  0.00  0.00    +0.019 A 
ATOM     10  C   UNL     1      32.932  17.497  14.592  0.00  0.00    +0.002 A 
ATOM     11  C   UNL     1      32.097  18.618  14.555  0.00  0.00    +0.005 A 
ATOM     12  C   UNL     1      32.379  19.761  15.322  0.00  0.00    -0.031 A 
ATOM     13  C   UNL     1      33.504  19.714  16.166  0.00  0.00    +0.023 A 
BRANCH   8  15
ATOM     14  N   UNL     1      36.463  18.644  17.705  0.00  0.00    -0.191 NA
ATOM     15  C   UNL     1      35.522  18.625  17.024  0.00  0.00    +0.099 C 
ENDBRANCH   8  15
ENDBRANCH   5  12
ENDBRANCH   1   5
BRANCH   3  16
ATOM     16  C   UNL     1      31.852  23.538  12.410  0.00  0.00    +0.159 C 
BRANCH  16  17
ATOM     17  C   UNL     1      33.177  23.377  11.699  0.00  0.00    +0.058 A 
ATOM     18  C   UNL     1      34.321  23.016  12.415  0.00  0.00    +0.028 A 
ATOM     19  C   UNL     1      35.536  22.900  11.742  0.00  0.00    +0.042 A 
ATOM     20  C   UNL     1      35.568  23.142  10.379  0.00  0.00    +0.141 A 
ATOM     21  F   UNL     1      36.719  23.046   9.701  0.00  0.00    -0.204 F 
ATOM     22  C   UNL     1      34.394  23.484   9.733  0.00  0.00    +0.149 A 
ATOM     23  N   UNL     1      33.197  23.603  10.357  0.00  0.00    -0.255 NA
ENDBRANCH  16  17
ENDBRANCH   3  16
TORSDOF 5
ENDMDL
MODEL 6
REMARK VINA RESULT:      -6.1      2.018      2.901
REMARK  Name = ZINC000435351830
REMARK  5 active torsions:
REMARK  status: ('A' for Active; 'I' for Inactive)
REMARK    1  A    between atoms: C_2  and  C_3
REMARK    2  A    between atoms: C_7  and  C_8
REMARK    3  A    between atoms: C_8  and  C_9
REMARK    4  A    between atoms: N_11  and  C_12
REMARK    5  A    between atoms: C_12  and  C_13
REMARK                            x       y       z     vdW  Elec       q    Type
REMARK                         _______ _______ _______ _____ _____    ______ ____
ROOT
ATOM      1  C   UNL     1      32.486  19.829  14.240  0.00  0.00    +0.224 C 
ATOM      2  O   UNL     1      31.294  19.605  14.065  0.00  0.00    -0.275 OA
ATOM      3  N   UNL     1      33.044  21.080  14.273  0.00  0.00    -0.309 N 
ATOM      4  H   UNL     1      34.032  21.185  14.457  0.00  0.00    +0.149 HD
ENDROOT
BRANCH   1   5
ATOM      5  C   UNL     1      33.469  18.694  14.375  0.00  0.00    +0.072 C 
ATOM      6  C   UNL     1      34.849  18.992  14.950  0.00  0.00    +0.022 C 
ATOM      7  C   UNL     1      33.853  18.274  15.800  0.00  0.00    +0.022 C 
BRANCH   5  12
ATOM      8  C   UNL     1      33.591  16.585  11.173  0.00  0.00    +0.052 A 
ATOM      9  C   UNL     1      32.800  15.486  11.509  0.00  0.00    +0.019 A 
ATOM     10  C   UNL     1      32.265  15.384  12.793  0.00  0.00    +0.002 A 
ATOM     11  C   UNL     1      32.498  16.391  13.734  0.00  0.00    +0.005 A 
ATOM     12  C   UNL     1      33.264  17.525  13.412  0.00  0.00    -0.031 A 
ATOM     13  C   UNL     1      33.829  17.581  12.124  0.00  0.00    +0.023 A 
BRANCH   8  15
ATOM     14  N   UNL     1      34.574  16.838   8.787  0.00  0.00    -0.191 NA
ATOM     15  C   UNL     1      34.131  16.717   9.854  0.00  0.00    +0.099 C 
ENDBRANCH   8  15
ENDBRANCH   5  12
ENDBRANCH   1   5
BRANCH   3  16
ATOM     16  C   UNL     1      32.262  22.267  14.007  0.00  0.00    +0.159 C 
BRANCH  16  17
ATOM     17  C   UNL     1      32.517  22.856  12.638  0.00  0.00    +0.058 A 
ATOM     18  C   UNL     1      31.710  23.889  12.155  0.00  0.00    +0.028 A 
ATOM     19  C   UNL     1      31.949  24.398  10.879  0.00  0.00    +0.042 A 
ATOM     20  C   UNL     1      32.985  23.865  10.133  0.00  0.00    +0.141 A 
ATOM     21  F   UNL     1      33.238  24.324   8.901  0.00  0.00    -0.204 F 
ATOM     22  C   UNL     1      33.750  22.851  10.679  0.00  0.00    +0.149 A 
ATOM     23  N   UNL     1      33.546  22.336  11.916  0.00  0.00    -0.255 NA
ENDBRANCH  16  17
ENDBRANCH   3  16
TORSDOF 5
ENDMDL
MODEL 7
REMARK VINA RESULT:      -6.1      1.310      1.743
REMARK  Name = ZINC000435351830
REMARK  5 active torsions:
REMARK  status: ('A' for Active; 'I' for Inactive)
REMARK    1  A    between atoms: C_2  and  C_3
REMARK    2  A    between atoms: C_7  and  C_8
REMARK    3  A    between atoms: C_8  and  C_9
REMARK    4  A    between atoms: N_11  and  C_12
REMARK    5  A    between atoms: C_12  and  C_13
REMARK                            x       y       z     vdW  Elec       q    Type
REMARK                         _______ _______ _______ _____ _____    ______ ____
ROOT
ATOM      1  C   UNL     1      33.159  21.220  13.609  0.00  0.00    +0.224 C 
ATOM      2  O   UNL     1      33.980  21.896  14.219  0.00  0.00    -0.275 OA
ATOM      3  N   UNL     1      32.970  21.267  12.253  0.00  0.00    -0.309 N 
ATOM      4  H   UNL     1      32.297  20.653  11.817  0.00  0.00    +0.149 HD
ENDROOT
BRANCH   1   5
ATOM      5  C   UNL     1      32.223  20.298  14.347  0.00  0.00    +0.072 C 
ATOM      6  C   UNL     1      31.210  20.908  15.309  0.00  0.00    +0.022 C 
ATOM      7  C   UNL     1      30.734  20.390  13.991  0.00  0.00    +0.022 C 
BRANCH   5  12
ATOM      8  C   UNL     1      32.712  16.526  13.842  0.00  0.00    +0.052 A 
ATOM      9  C   UNL     1      33.487  16.175  14.947  0.00  0.00    +0.019 A 
ATOM     10  C   UNL     1      33.910  17.161  15.838  0.00  0.00    +0.002 A 
ATOM     11  C   UNL     1      33.538  18.494  15.641  0.00  0.00    +0.005 A 
ATOM     12  C   UNL     1      32.731  18.871  14.554  0.00  0.00    -0.031 A 
ATOM     13  C   UNL     1      32.355  17.863  13.646  0.00  0.00    +0.023 A 
BRANCH   8  15
ATOM     14  N   UNL     1      31.863  14.713  12.194  0.00  0.00    -0.191 NA
ATOM     15  C   UNL     1      32.251  15.525  12.929  0.00  0.00    +0.099 C 
ENDBRANCH   8  15
ENDBRANCH   5  12
ENDBRANCH   1   5
BRANCH   3  16
ATOM     16  C   UNL     1      33.682  22.211  11.419  0.00  0.00    +0.159 C 
BRANCH  16  17
ATOM     17  C   UNL     1      33.828  21.752   9.986  0.00  0.00    +0.058 A 
ATOM     18  C   UNL     1      33.978  20.393   9.695  0.00  0.00    +0.028 A 
ATOM     19  C   UNL     1      34.137  19.996   8.368  0.00  0.00    +0.042 A 
ATOM     20  C   UNL     1      34.134  20.964   7.379  0.00  0.00    +0.141 A 
ATOM     21  F   UNL     1      34.291  20.620   6.094  0.00  0.00    -0.204 F 
ATOM     22  C   UNL     1      33.968  22.289   7.739  0.00  0.00    +0.149 A 
ATOM     23  N   UNL     1      33.809  22.708   9.018  0.00  0.00    -0.255 NA
ENDBRANCH  16  17
ENDBRANCH   3  16
TORSDOF 5
ENDMDL
MODEL 8
REMARK VINA RESULT:      -6.0      3.338      5.186
REMARK  Name = ZINC000435351830
REMARK  5 active torsions:
REMARK  status: ('A' for Active; 'I' for Inactive)
REMARK    1  A    between atoms: C_2  and  C_3
REMARK    2  A    between atoms: C_7  and  C_8
REMARK    3  A    between atoms: C_8  and  C_9
REMARK    4  A    between atoms: N_11  and  C_12
REMARK    5  A    between atoms: C_12  and  C_13
REMARK                            x       y       z     vdW  Elec       q    Type
REMARK                         _______ _______ _______ _____ _____    ______ ____
ROOT
ATOM      1  C   UNL     1      34.031  16.348  15.295  0.00  0.00    +0.224 C 
ATOM      2  O   UNL     1      33.211  15.953  16.116  0.00  0.00    -0.275 OA
ATOM      3  N   UNL     1      34.435  17.651  15.167  0.00  0.00    -0.309 N 
ATOM      4  H   UNL     1      35.143  17.894  14.488  0.00  0.00    +0.149 HD
ENDROOT
BRANCH   1   5
ATOM      5  C   UNL     1      34.631  15.398  14.290  0.00  0.00    +0.072 C 
ATOM      6  C   UNL     1      36.067  14.931  14.498  0.00  0.00    +0.022 C 
ATOM      7  C   UNL     1      34.951  13.980  14.780  0.00  0.00    +0.022 C 
BRANCH   5  12
ATOM      8  C   UNL     1      32.155  14.924  11.398  0.00  0.00    +0.052 A 
ATOM      9  C   UNL     1      32.890  15.370  10.299  0.00  0.00    +0.019 A 
ATOM     10  C   UNL     1      34.174  15.883  10.487  0.00  0.00    +0.002 A 
ATOM     11  C   UNL     1      34.734  15.927  11.767  0.00  0.00    +0.005 A 
ATOM     12  C   UNL     1      34.028  15.455  12.887  0.00  0.00    -0.031 A 
ATOM     13  C   UNL     1      32.718  14.984  12.676  0.00  0.00    +0.023 A 
BRANCH   8  15
ATOM     14  N   UNL     1      29.775  13.943  11.084  0.00  0.00    -0.191 NA
ATOM     15  C   UNL     1      30.845  14.375  11.223  0.00  0.00    +0.099 C 
ENDBRANCH   8  15
ENDBRANCH   5  12
ENDBRANCH   1   5
BRANCH   3  16
ATOM     16  C   UNL     1      33.841  18.710  15.953  0.00  0.00    +0.159 C 
BRANCH  16  17
ATOM     17  C   UNL     1      33.080  19.717  15.120  0.00  0.00    +0.058 A 
ATOM     18  C   UNL     1      31.872  19.360  14.516  0.00  0.00    +0.028 A 
ATOM     19  C   UNL     1      31.201  20.298  13.732  0.00  0.00    +0.042 A 
ATOM     20  C   UNL     1      31.754  21.558  13.582  0.00  0.00    +0.141 A 
ATOM     21  F   UNL     1      31.141  22.481  12.830  0.00  0.00    -0.204 F 
ATOM     22  C   UNL     1      32.948  21.845  14.219  0.00  0.00    +0.149 A 
ATOM     23  N   UNL     1      33.623  20.958  14.990  0.00  0.00    -0.255 NA
ENDBRANCH  16  17
ENDBRANCH   3  16
TORSDOF 5
ENDMDL
MODEL 9
REMARK VINA RESULT:      -6.0      3.906      6.689
REMARK  Name = ZINC000435351830
REMARK  5 active torsions:
REMARK  status: ('A' for Active; 'I' for Inactive)
REMARK    1  A    between atoms: C_2  and  C_3
REMARK    2  A    between atoms: C_7  and  C_8
REMARK    3  A    between atoms: C_8  and  C_9
REMARK    4  A    between atoms: N_11  and  C_12
REMARK    5  A    between atoms: C_12  and  C_13
REMARK                            x       y       z     vdW  Elec       q    Type
REMARK                         _______ _______ _______ _____ _____    ______ ____
ROOT
ATOM      1  C   UNL     1      32.434  21.643  15.330  0.00  0.00    +0.224 C 
ATOM      2  O   UNL     1      31.537  22.170  15.978  0.00  0.00    -0.275 OA
ATOM      3  N   UNL     1      33.726  21.504  15.764  0.00  0.00    -0.309 N 
ATOM      4  H   UNL     1      34.402  21.026  15.186  0.00  0.00    +0.149 HD
ENDROOT
BRANCH   1   5
ATOM      5  C   UNL     1      32.180  21.146  13.930  0.00  0.00    +0.072 C 
ATOM      6  C   UNL     1      32.413  19.670  13.629  0.00  0.00    +0.022 C 
ATOM      7  C   UNL     1      31.011  20.172  13.740  0.00  0.00    +0.022 C 
BRANCH   5  12
ATOM      8  C   UNL     1      33.553  23.053  10.897  0.00  0.00    +0.052 A 
ATOM      9  C   UNL     1      32.720  24.170  10.844  0.00  0.00    +0.019 A 
ATOM     10  C   UNL     1      31.668  24.293  11.752  0.00  0.00    +0.002 A 
ATOM     11  C   UNL     1      31.463  23.314  12.729  0.00  0.00    +0.005 A 
ATOM     12  C   UNL     1      32.307  22.194  12.825  0.00  0.00    -0.031 A 
ATOM     13  C   UNL     1      33.334  22.072  11.869  0.00  0.00    +0.023 A 
BRANCH   8  15
ATOM     14  N   UNL     1      35.540  22.827   9.246  0.00  0.00    -0.191 NA
ATOM     15  C   UNL     1      34.650  22.920   9.988  0.00  0.00    +0.099 C 
ENDBRANCH   8  15
ENDBRANCH   5  12
ENDBRANCH   1   5
BRANCH   3  16
ATOM     16  C   UNL     1      34.168  22.065  17.023  0.00  0.00    +0.159 C 
BRANCH  16  17
ATOM     17  C   UNL     1      34.849  23.406  16.872  0.00  0.00    +0.058 A 
ATOM     18  C   UNL     1      35.260  23.849  15.612  0.00  0.00    +0.028 A 
ATOM     19  C   UNL     1      35.909  25.078  15.501  0.00  0.00    +0.042 A 
ATOM     20  C   UNL     1      36.120  25.824  16.648  0.00  0.00    +0.141 A 
ATOM     21  F   UNL     1      36.747  27.006  16.580  0.00  0.00    -0.204 F 
ATOM     22  C   UNL     1      35.676  25.329  17.860  0.00  0.00    +0.149 A 
ATOM     23  N   UNL     1      35.040  24.141  18.001  0.00  0.00    -0.255 NA
ENDBRANCH  16  17
ENDBRANCH   3  16
TORSDOF 5
ENDMDL
