MODEL 1
REMARK VINA RESULT:      -6.1      0.000      0.000
REMARK  Name = ZINC001228612316
REMARK  5 active torsions:
REMARK  status: ('A' for Active; 'I' for Inactive)
REMARK    1  A    between atoms: C_2  and  C_4
REMARK    2  A    between atoms: C_8  and  O_9
REMARK    3  A    between atoms: O_9  and  C_10
REMARK    4  A    between atoms: C_10  and  C_11
REMARK    5  A    between atoms: C_10  and  C_17
REMARK                            x       y       z     vdW  Elec       q    Type
REMARK                         _______ _______ _______ _____ _____    ______ ____
ROOT
ATOM      1  C   UNL     1      33.381  21.867  10.845  0.00  0.00    +0.040 A 
ATOM      2  C   UNL     1      32.852  23.035  10.284  0.00  0.00    +0.013 A 
ATOM      3  C   UNL     1      32.474  24.097  11.106  0.00  0.00    +0.004 A 
ATOM      4  C   UNL     1      32.622  24.001  12.492  0.00  0.00    +0.046 A 
ATOM      5  C   UNL     1      33.144  22.841  13.064  0.00  0.00    +0.122 A 
ATOM      6  C   UNL     1      33.525  21.777  12.235  0.00  0.00    +0.058 A 
ENDROOT
BRANCH   1   8
ATOM      7  N   UNL     1      32.872  20.357   8.993  0.00  0.00    -0.325 N 
ATOM      8  C   UNL     1      33.786  20.770   9.926  0.00  0.00    +0.242 C 
ATOM      9  O   UNL     1      34.905  20.274   9.967  0.00  0.00    -0.270 OA
ATOM     10  H   UNL     1      33.204  19.686   8.312  0.00  0.00    +0.145 HD
ATOM     11  H   UNL     1      32.045  20.888   8.766  0.00  0.00    +0.145 HD
ENDBRANCH   1   8
BRANCH   5  12
ATOM     12  O   UNL     1      33.270  22.600  14.405  0.00  0.00    -0.484 OA
BRANCH  12  13
ATOM     13  C   UNL     1      32.480  21.556  14.998  0.00  0.00    +0.208 C 
BRANCH  13  14
ATOM     14  C   UNL     1      33.223  20.775  16.065  0.00  0.00    +0.011 A 
ATOM     15  C   UNL     1      33.216  21.126  17.418  0.00  0.00    +0.010 A 
ATOM     16  C   UNL     1      33.852  20.305  18.346  0.00  0.00    +0.020 A 
ATOM     17  C   UNL     1      34.474  19.153  17.892  0.00  0.00    +0.111 A 
ATOM     18  N   UNL     1      34.512  18.785  16.595  0.00  0.00    -0.263 NA
ATOM     19  C   UNL     1      33.887  19.599  15.717  0.00  0.00    +0.118 A 
ENDBRANCH  13  14
BRANCH  13  20
ATOM     20  C   UNL     1      31.250  22.169  15.659  0.00  0.00    +0.034 C 
ATOM     21  C   UNL     1      30.029  21.324  15.938  0.00  0.00    +0.008 C 
ATOM     22  C   UNL     1      29.957  22.428  14.919  0.00  0.00    +0.008 C 
ENDBRANCH  13  20
ENDBRANCH  12  13
ENDBRANCH   5  12
TORSDOF 5
ENDMDL
MODEL 2
REMARK VINA RESULT:      -6.0      2.346      6.502
REMARK  Name = ZINC001228612316
REMARK  5 active torsions:
REMARK  status: ('A' for Active; 'I' for Inactive)
REMARK    1  A    between atoms: C_2  and  C_4
REMARK    2  A    between atoms: C_8  and  O_9
REMARK    3  A    between atoms: O_9  and  C_10
REMARK    4  A    between atoms: C_10  and  C_11
REMARK    5  A    between atoms: C_10  and  C_17
REMARK                            x       y       z     vdW  Elec       q    Type
REMARK                         _______ _______ _______ _____ _____    ______ ____
ROOT
ATOM      1  C   UNL     1      31.246  21.424  15.658  0.00  0.00    +0.040 A 
ATOM      2  C   UNL     1      32.198  21.005  16.594  0.00  0.00    +0.013 A 
ATOM      3  C   UNL     1      33.415  20.475  16.165  0.00  0.00    +0.004 A 
ATOM      4  C   UNL     1      33.691  20.360  14.800  0.00  0.00    +0.046 A 
ATOM      5  C   UNL     1      32.748  20.771  13.857  0.00  0.00    +0.122 A 
ATOM      6  C   UNL     1      31.528  21.305  14.291  0.00  0.00    +0.058 A 
ENDROOT
BRANCH   1   8
ATOM      7  N   UNL     1      29.720  23.316  15.895  0.00  0.00    -0.325 N 
ATOM      8  C   UNL     1      29.972  21.998  16.166  0.00  0.00    +0.242 C 
ATOM      9  O   UNL     1      29.154  21.317  16.772  0.00  0.00    -0.270 OA
ATOM     10  H   UNL     1      28.803  23.657  16.156  0.00  0.00    +0.145 HD
ATOM     11  H   UNL     1      30.237  23.842  15.207  0.00  0.00    +0.145 HD
ENDBRANCH   1   8
BRANCH   5  12
ATOM     12  O   UNL     1      32.870  20.643  12.500  0.00  0.00    -0.484 OA
BRANCH  12  13
ATOM     13  C   UNL     1      33.474  21.713  11.755  0.00  0.00    +0.208 C 
BRANCH  13  14
ATOM     14  C   UNL     1      34.091  21.259  10.446  0.00  0.00    +0.011 A 
ATOM     15  C   UNL     1      33.357  20.660   9.419  0.00  0.00    +0.010 A 
ATOM     16  C   UNL     1      33.983  20.353   8.213  0.00  0.00    +0.020 A 
ATOM     17  C   UNL     1      35.327  20.658   8.070  0.00  0.00    +0.111 A 
ATOM     18  N   UNL     1      36.073  21.226   9.040  0.00  0.00    -0.263 NA
ATOM     19  C   UNL     1      35.440  21.514  10.197  0.00  0.00    +0.118 A 
ENDBRANCH  13  14
BRANCH  13  20
ATOM     20  C   UNL     1      32.413  22.755  11.418  0.00  0.00    +0.034 C 
ATOM     21  C   UNL     1      32.786  24.019  10.682  0.00  0.00    +0.008 C 
ATOM     22  C   UNL     1      32.323  24.097  12.111  0.00  0.00    +0.008 C 
ENDBRANCH  13  20
ENDBRANCH  12  13
ENDBRANCH   5  12
TORSDOF 5
ENDMDL
MODEL 3
REMARK VINA RESULT:      -5.9      2.381      2.707
REMARK  Name = ZINC001228612316
REMARK  5 active torsions:
REMARK  status: ('A' for Active; 'I' for Inactive)
REMARK    1  A    between atoms: C_2  and  C_4
REMARK    2  A    between atoms: C_8  and  O_9
REMARK    3  A    between atoms: O_9  and  C_10
REMARK    4  A    between atoms: C_10  and  C_11
REMARK    5  A    between atoms: C_10  and  C_17
REMARK                            x       y       z     vdW  Elec       q    Type
REMARK                         _______ _______ _______ _____ _____    ______ ____
ROOT
ATOM      1  C   UNL     1      34.095  24.842  11.372  0.00  0.00    +0.040 A 
ATOM      2  C   UNL     1      33.290  24.249  10.393  0.00  0.00    +0.013 A 
ATOM      3  C   UNL     1      32.495  23.149  10.715  0.00  0.00    +0.004 A 
ATOM      4  C   UNL     1      32.496  22.634  12.014  0.00  0.00    +0.046 A 
ATOM      5  C   UNL     1      33.298  23.215  12.997  0.00  0.00    +0.122 A 
ATOM      6  C   UNL     1      34.094  24.321  12.672  0.00  0.00    +0.058 A 
ENDROOT
BRANCH   1   8
ATOM      7  N   UNL     1      35.145  26.973  11.942  0.00  0.00    -0.325 N 
ATOM      8  C   UNL     1      34.912  26.024  10.984  0.00  0.00    +0.242 C 
ATOM      9  O   UNL     1      35.394  26.134   9.863  0.00  0.00    -0.270 OA
ATOM     10  H   UNL     1      35.788  27.712  11.689  0.00  0.00    +0.145 HD
ATOM     11  H   UNL     1      34.977  26.812  12.923  0.00  0.00    +0.145 HD
ENDBRANCH   1   8
BRANCH   5  12
ATOM     12  O   UNL     1      33.441  22.760  14.280  0.00  0.00    -0.484 OA
BRANCH  12  13
ATOM     13  C   UNL     1      32.606  21.680  14.729  0.00  0.00    +0.208 C 
BRANCH  13  14
ATOM     14  C   UNL     1      33.318  20.721  15.664  0.00  0.00    +0.011 A 
ATOM     15  C   UNL     1      33.319  20.864  17.054  0.00  0.00    +0.010 A 
ATOM     16  C   UNL     1      33.922  19.889  17.847  0.00  0.00    +0.020 A 
ATOM     17  C   UNL     1      34.505  18.798  17.222  0.00  0.00    +0.111 A 
ATOM     18  N   UNL     1      34.534  18.629  15.885  0.00  0.00    -0.263 NA
ATOM     19  C   UNL     1      33.940  19.587  15.141  0.00  0.00    +0.118 A 
ENDBRANCH  13  14
BRANCH  13  20
ATOM     20  C   UNL     1      31.411  22.248  15.487  0.00  0.00    +0.034 C 
ATOM     21  C   UNL     1      30.160  21.423  15.676  0.00  0.00    +0.008 C 
ATOM     22  C   UNL     1      30.120  22.653  14.811  0.00  0.00    +0.008 C 
ENDBRANCH  13  20
ENDBRANCH  12  13
ENDBRANCH   5  12
TORSDOF 5
ENDMDL
MODEL 4
REMARK VINA RESULT:      -5.8      1.971      6.205
REMARK  Name = ZINC001228612316
REMARK  5 active torsions:
REMARK  status: ('A' for Active; 'I' for Inactive)
REMARK    1  A    between atoms: C_2  and  C_4
REMARK    2  A    between atoms: C_8  and  O_9
REMARK    3  A    between atoms: O_9  and  C_10
REMARK    4  A    between atoms: C_10  and  C_11
REMARK    5  A    between atoms: C_10  and  C_17
REMARK                            x       y       z     vdW  Elec       q    Type
REMARK                         _______ _______ _______ _____ _____    ______ ____
ROOT
ATOM      1  C   UNL     1      34.654  18.858  17.405  0.00  0.00    +0.040 A 
ATOM      2  C   UNL     1      34.568  19.813  18.425  0.00  0.00    +0.013 A 
ATOM      3  C   UNL     1      33.949  21.040  18.183  0.00  0.00    +0.004 A 
ATOM      4  C   UNL     1      33.412  21.321  16.924  0.00  0.00    +0.046 A 
ATOM      5  C   UNL     1      33.495  20.379  15.899  0.00  0.00    +0.122 A 
ATOM      6  C   UNL     1      34.116  19.147  16.145  0.00  0.00    +0.058 A 
ENDROOT
BRANCH   1   8
ATOM      7  N   UNL     1      36.403  17.583  18.538  0.00  0.00    -0.325 N 
ATOM      8  C   UNL     1      35.308  17.559  17.717  0.00  0.00    +0.242 C 
ATOM      9  O   UNL     1      34.868  16.497  17.292  0.00  0.00    -0.270 OA
ATOM     10  H   UNL     1      36.767  16.682  18.822  0.00  0.00    +0.145 HD
ATOM     11  H   UNL     1      36.651  18.386  19.095  0.00  0.00    +0.145 HD
ENDBRANCH   1   8
BRANCH   5  12
ATOM     12  O   UNL     1      33.074  20.565  14.610  0.00  0.00    -0.484 OA
BRANCH  12  13
ATOM     13  C   UNL     1      32.302  21.735  14.295  0.00  0.00    +0.208 C 
BRANCH  13  14
ATOM     14  C   UNL     1      32.556  22.263  12.897  0.00  0.00    +0.011 A 
ATOM     15  C   UNL     1      32.111  23.512  12.455  0.00  0.00    +0.010 A 
ATOM     16  C   UNL     1      32.463  23.959  11.184  0.00  0.00    +0.020 A 
ATOM     17  C   UNL     1      33.254  23.142  10.392  0.00  0.00    +0.111 A 
ATOM     18  N   UNL     1      33.696  21.928  10.777  0.00  0.00    -0.263 NA
ATOM     19  C   UNL     1      33.341  21.520  12.014  0.00  0.00    +0.118 A 
ENDBRANCH  13  14
BRANCH  13  20
ATOM     20  C   UNL     1      30.817  21.399  14.390  0.00  0.00    +0.034 C 
ATOM     21  C   UNL     1      29.816  22.456  14.790  0.00  0.00    +0.008 C 
ATOM     22  C   UNL     1      30.076  21.290  15.704  0.00  0.00    +0.008 C 
ENDBRANCH  13  20
ENDBRANCH  12  13
ENDBRANCH   5  12
TORSDOF 5
ENDMDL
MODEL 5
REMARK VINA RESULT:      -5.8      1.433      2.017
REMARK  Name = ZINC001228612316
REMARK  5 active torsions:
REMARK  status: ('A' for Active; 'I' for Inactive)
REMARK    1  A    between atoms: C_2  and  C_4
REMARK    2  A    between atoms: C_8  and  O_9
REMARK    3  A    between atoms: O_9  and  C_10
REMARK    4  A    between atoms: C_10  and  C_11
REMARK    5  A    between atoms: C_10  and  C_17
REMARK                            x       y       z     vdW  Elec       q    Type
REMARK                         _______ _______ _______ _____ _____    ______ ____
ROOT
ATOM      1  C   UNL     1      33.178  22.357  10.461  0.00  0.00    +0.040 A 
ATOM      2  C   UNL     1      33.604  21.092  10.040  0.00  0.00    +0.013 A 
ATOM      3  C   UNL     1      33.859  20.092  10.978  0.00  0.00    +0.004 A 
ATOM      4  C   UNL     1      33.691  20.346  12.342  0.00  0.00    +0.046 A 
ATOM      5  C   UNL     1      33.271  21.604  12.774  0.00  0.00    +0.122 A 
ATOM      6  C   UNL     1      33.013  22.606  11.830  0.00  0.00    +0.058 A 
ENDROOT
BRANCH   1   8
ATOM      7  N   UNL     1      33.292  23.107   8.139  0.00  0.00    -0.325 N 
ATOM      8  C   UNL     1      32.901  23.384   9.422  0.00  0.00    +0.242 C 
ATOM      9  O   UNL     1      32.313  24.426   9.685  0.00  0.00    -0.270 OA
ATOM     10  H   UNL     1      33.000  23.770   7.432  0.00  0.00    +0.145 HD
ATOM     11  H   UNL     1      33.555  22.182   7.836  0.00  0.00    +0.145 HD
ENDBRANCH   1   8
BRANCH   5  12
ATOM     12  O   UNL     1      33.141  21.995  14.079  0.00  0.00    -0.484 OA
BRANCH  12  13
ATOM     13  C   UNL     1      32.357  21.185  14.970  0.00  0.00    +0.208 C 
BRANCH  13  14
ATOM     14  C   UNL     1      33.175  20.546  16.075  0.00  0.00    +0.011 A 
ATOM     15  C   UNL     1      33.150  20.985  17.402  0.00  0.00    +0.010 A 
ATOM     16  C   UNL     1      33.863  20.287  18.373  0.00  0.00    +0.020 A 
ATOM     17  C   UNL     1      34.580  19.166  17.987  0.00  0.00    +0.111 A 
ATOM     18  N   UNL     1      34.639  18.715  16.718  0.00  0.00    -0.263 NA
ATOM     19  C   UNL     1      33.936  19.410  15.797  0.00  0.00    +0.118 A 
ENDBRANCH  13  14
BRANCH  13  20
ATOM     20  C   UNL     1      31.294  22.052  15.637  0.00  0.00    +0.034 C 
ATOM     21  C   UNL     1      29.929  21.488  15.949  0.00  0.00    +0.008 C 
ATOM     22  C   UNL     1      30.072  22.567  14.910  0.00  0.00    +0.008 C 
ENDBRANCH  13  20
ENDBRANCH  12  13
ENDBRANCH   5  12
TORSDOF 5
ENDMDL
MODEL 6
REMARK VINA RESULT:      -5.7      3.026      6.642
REMARK  Name = ZINC001228612316
REMARK  5 active torsions:
REMARK  status: ('A' for Active; 'I' for Inactive)
REMARK    1  A    between atoms: C_2  and  C_4
REMARK    2  A    between atoms: C_8  and  O_9
REMARK    3  A    between atoms: O_9  and  C_10
REMARK    4  A    between atoms: C_10  and  C_11
REMARK    5  A    between atoms: C_10  and  C_17
REMARK                            x       y       z     vdW  Elec       q    Type
REMARK                         _______ _______ _______ _____ _____    ______ ____
ROOT
ATOM      1  C   UNL     1      31.233  22.251  14.134  0.00  0.00    +0.040 A 
ATOM      2  C   UNL     1      30.797  21.010  14.609  0.00  0.00    +0.013 A 
ATOM      3  C   UNL     1      31.477  19.846  14.249  0.00  0.00    +0.004 A 
ATOM      4  C   UNL     1      32.594  19.913  13.413  0.00  0.00    +0.046 A 
ATOM      5  C   UNL     1      33.035  21.145  12.929  0.00  0.00    +0.122 A 
ATOM      6  C   UNL     1      32.352  22.312  13.295  0.00  0.00    +0.058 A 
ENDROOT
BRANCH   1   8
ATOM      7  N   UNL     1      29.902  23.445  15.799  0.00  0.00    -0.325 N 
ATOM      8  C   UNL     1      30.486  23.465  14.561  0.00  0.00    +0.242 C 
ATOM      9  O   UNL     1      30.421  24.464  13.854  0.00  0.00    -0.270 OA
ATOM     10  H   UNL     1      29.492  24.316  16.111  0.00  0.00    +0.145 HD
ATOM     11  H   UNL     1      30.128  22.755  16.499  0.00  0.00    +0.145 HD
ENDBRANCH   1   8
BRANCH   5  12
ATOM     12  O   UNL     1      34.067  21.332  12.051  0.00  0.00    -0.484 OA
BRANCH  12  13
ATOM     13  C   UNL     1      33.804  21.997  10.804  0.00  0.00    +0.208 C 
BRANCH  13  14
ATOM     14  C   UNL     1      34.608  23.270  10.621  0.00  0.00    +0.011 A 
ATOM     15  C   UNL     1      36.004  23.311  10.683  0.00  0.00    +0.010 A 
ATOM     16  C   UNL     1      36.671  24.505  10.415  0.00  0.00    +0.020 A 
ATOM     17  C   UNL     1      35.919  25.623  10.092  0.00  0.00    +0.111 A 
ATOM     18  N   UNL     1      34.572  25.627  10.032  0.00  0.00    -0.263 NA
ATOM     19  C   UNL     1      33.951  24.456  10.294  0.00  0.00    +0.118 A 
ENDBRANCH  13  14
BRANCH  13  20
ATOM     20  C   UNL     1      34.161  21.066   9.651  0.00  0.00    +0.034 C 
ATOM     21  C   UNL     1      33.860  21.460   8.225  0.00  0.00    +0.008 C 
ATOM     22  C   UNL     1      33.126  20.306   8.851  0.00  0.00    +0.008 C 
ENDBRANCH  13  20
ENDBRANCH  12  13
ENDBRANCH   5  12
TORSDOF 5
ENDMDL
MODEL 7
REMARK VINA RESULT:      -5.7      3.462      6.058
REMARK  Name = ZINC001228612316
REMARK  5 active torsions:
REMARK  status: ('A' for Active; 'I' for Inactive)
REMARK    1  A    between atoms: C_2  and  C_4
REMARK    2  A    between atoms: C_8  and  O_9
REMARK    3  A    between atoms: O_9  and  C_10
REMARK    4  A    between atoms: C_10  and  C_11
REMARK    5  A    between atoms: C_10  and  C_17
REMARK                            x       y       z     vdW  Elec       q    Type
REMARK                         _______ _______ _______ _____ _____    ______ ____
ROOT
ATOM      1  C   UNL     1      31.190  21.213  15.812  0.00  0.00    +0.040 A 
ATOM      2  C   UNL     1      32.273  21.367  16.686  0.00  0.00    +0.013 A 
ATOM      3  C   UNL     1      33.479  20.716  16.425  0.00  0.00    +0.004 A 
ATOM      4  C   UNL     1      33.613  19.909  15.292  0.00  0.00    +0.046 A 
ATOM      5  C   UNL     1      32.540  19.745  14.416  0.00  0.00    +0.122 A 
ATOM      6  C   UNL     1      31.331  20.402  14.680  0.00  0.00    +0.058 A 
ENDROOT
BRANCH   1   8
ATOM      7  N   UNL     1      29.812  23.224  15.661  0.00  0.00    -0.325 N 
ATOM      8  C   UNL     1      29.931  21.942  16.124  0.00  0.00    +0.242 C 
ATOM      9  O   UNL     1      29.015  21.411  16.740  0.00  0.00    -0.270 OA
ATOM     10  H   UNL     1      28.909  23.662  15.792  0.00  0.00    +0.145 HD
ATOM     11  H   UNL     1      30.424  23.611  14.959  0.00  0.00    +0.145 HD
ENDBRANCH   1   8
BRANCH   5  12
ATOM     12  O   UNL     1      32.524  18.929  13.318  0.00  0.00    -0.484 OA
BRANCH  12  13
ATOM     13  C   UNL     1      33.775  18.479  12.771  0.00  0.00    +0.208 C 
BRANCH  13  14
ATOM     14  C   UNL     1      34.176  17.097  13.248  0.00  0.00    +0.011 A 
ATOM     15  C   UNL     1      33.466  15.937  12.924  0.00  0.00    +0.010 A 
ATOM     16  C   UNL     1      33.952  14.696  13.329  0.00  0.00    +0.020 A 
ATOM     17  C   UNL     1      35.137  14.652  14.046  0.00  0.00    +0.111 A 
ATOM     18  N   UNL     1      35.846  15.747  14.387  0.00  0.00    -0.263 NA
ATOM     19  C   UNL     1      35.353  16.937  13.980  0.00  0.00    +0.118 A 
ENDBRANCH  13  14
BRANCH  13  20
ATOM     20  C   UNL     1      33.669  18.421  11.251  0.00  0.00    +0.034 C 
ATOM     21  C   UNL     1      34.908  18.279  10.401  0.00  0.00    +0.008 C 
ATOM     22  C   UNL     1      34.108  19.552  10.348  0.00  0.00    +0.008 C 
ENDBRANCH  13  20
ENDBRANCH  12  13
ENDBRANCH   5  12
TORSDOF 5
ENDMDL
MODEL 8
REMARK VINA RESULT:      -5.7      3.877      5.898
REMARK  Name = ZINC001228612316
REMARK  5 active torsions:
REMARK  status: ('A' for Active; 'I' for Inactive)
REMARK    1  A    between atoms: C_2  and  C_4
REMARK    2  A    between atoms: C_8  and  O_9
REMARK    3  A    between atoms: O_9  and  C_10
REMARK    4  A    between atoms: C_10  and  C_11
REMARK    5  A    between atoms: C_10  and  C_17
REMARK                            x       y       z     vdW  Elec       q    Type
REMARK                         _______ _______ _______ _____ _____    ______ ____
ROOT
ATOM      1  C   UNL     1      31.473  21.353  15.440  0.00  0.00    +0.040 A 
ATOM      2  C   UNL     1      31.990  20.436  14.518  0.00  0.00    +0.013 A 
ATOM      3  C   UNL     1      33.111  19.673  14.844  0.00  0.00    +0.004 A 
ATOM      4  C   UNL     1      33.724  19.819  16.092  0.00  0.00    +0.046 A 
ATOM      5  C   UNL     1      33.221  20.733  17.017  0.00  0.00    +0.122 A 
ATOM      6  C   UNL     1      32.093  21.496  16.688  0.00  0.00    +0.058 A 
ENDROOT
BRANCH   1   8
ATOM      7  N   UNL     1      29.605  22.807  16.042  0.00  0.00    -0.325 N 
ATOM      8  C   UNL     1      30.265  22.130  15.052  0.00  0.00    +0.242 C 
ATOM      9  O   UNL     1      29.889  22.198  13.888  0.00  0.00    -0.270 OA
ATOM     10  H   UNL     1      28.852  23.412  15.740  0.00  0.00    +0.145 HD
ATOM     11  H   UNL     1      30.006  22.975  16.951  0.00  0.00    +0.145 HD
ENDBRANCH   1   8
BRANCH   5  12
ATOM     12  O   UNL     1      33.773  21.018  18.237  0.00  0.00    -0.484 OA
BRANCH  12  13
ATOM     13  C   UNL     1      35.031  21.709  18.283  0.00  0.00    +0.208 C 
BRANCH  13  14
ATOM     14  C   UNL     1      34.946  23.065  18.958  0.00  0.00    +0.011 A 
ATOM     15  C   UNL     1      34.509  24.221  18.306  0.00  0.00    +0.010 A 
ATOM     16  C   UNL     1      34.376  25.408  19.022  0.00  0.00    +0.020 A 
ATOM     17  C   UNL     1      34.683  25.402  20.373  0.00  0.00    +0.111 A 
ATOM     18  N   UNL     1      35.117  24.312  21.037  0.00  0.00    -0.263 NA
ATOM     19  C   UNL     1      35.235  23.174  20.318  0.00  0.00    +0.118 A 
ENDBRANCH  13  14
BRANCH  13  20
ATOM     20  C   UNL     1      36.037  20.875  19.069  0.00  0.00    +0.034 C 
ATOM     21  C   UNL     1      37.472  20.771  18.611  0.00  0.00    +0.008 C 
ATOM     22  C   UNL     1      36.586  19.556  18.570  0.00  0.00    +0.008 C 
ENDBRANCH  13  20
ENDBRANCH  12  13
ENDBRANCH   5  12
TORSDOF 5
ENDMDL
MODEL 9
REMARK VINA RESULT:      -5.6      1.606      2.220
REMARK  Name = ZINC001228612316
REMARK  5 active torsions:
REMARK  status: ('A' for Active; 'I' for Inactive)
REMARK    1  A    between atoms: C_2  and  C_4
REMARK    2  A    between atoms: C_8  and  O_9
REMARK    3  A    between atoms: O_9  and  C_10
REMARK    4  A    between atoms: C_10  and  C_11
REMARK    5  A    between atoms: C_10  and  C_17
REMARK                            x       y       z     vdW  Elec       q    Type
REMARK                         _______ _______ _______ _____ _____    ______ ____
ROOT
ATOM      1  C   UNL     1      33.264  22.248   9.629  0.00  0.00    +0.040 A 
ATOM      2  C   UNL     1      32.829  23.542   9.326  0.00  0.00    +0.013 A 
ATOM      3  C   UNL     1      32.559  24.448  10.352  0.00  0.00    +0.004 A 
ATOM      4  C   UNL     1      32.723  24.069  11.687  0.00  0.00    +0.046 A 
ATOM      5  C   UNL     1      33.153  22.780  12.002  0.00  0.00    +0.122 A 
ATOM      6  C   UNL     1      33.424  21.873  10.969  0.00  0.00    +0.058 A 
ENDROOT
BRANCH   1   8
ATOM      7  N   UNL     1      34.506  21.713   7.595  0.00  0.00    -0.325 N 
ATOM      8  C   UNL     1      33.555  21.325   8.500  0.00  0.00    +0.242 C 
ATOM      9  O   UNL     1      32.998  20.238   8.395  0.00  0.00    -0.270 OA
ATOM     10  H   UNL     1      34.763  21.026   6.897  0.00  0.00    +0.145 HD
ATOM     11  H   UNL     1      35.149  22.469   7.769  0.00  0.00    +0.145 HD
ENDBRANCH   1   8
BRANCH   5  12
ATOM     12  O   UNL     1      33.280  22.270  13.265  0.00  0.00    -0.484 OA
BRANCH  12  13
ATOM     13  C   UNL     1      32.411  21.200  13.672  0.00  0.00    +0.208 C 
BRANCH  13  14
ATOM     14  C   UNL     1      33.153  19.924  14.021  0.00  0.00    +0.011 A 
ATOM     15  C   UNL     1      33.246  18.829  13.158  0.00  0.00    +0.010 A 
ATOM     16  C   UNL     1      34.021  17.729  13.519  0.00  0.00    +0.020 A 
ATOM     17  C   UNL     1      34.684  17.761  14.735  0.00  0.00    +0.111 A 
ATOM     18  N   UNL     1      34.613  18.793  15.600  0.00  0.00    -0.263 NA
ATOM     19  C   UNL     1      33.856  19.846  15.224  0.00  0.00    +0.118 A 
ENDBRANCH  13  14
BRANCH  13  20
ATOM     20  C   UNL     1      31.634  21.626  14.913  0.00  0.00    +0.034 C 
ATOM     21  C   UNL     1      30.386  20.883  15.328  0.00  0.00    +0.008 C 
ATOM     22  C   UNL     1      30.284  22.306  14.849  0.00  0.00    +0.008 C 
ENDBRANCH  13  20
ENDBRANCH  12  13
ENDBRANCH   5  12
TORSDOF 5
ENDMDL
