MODEL 1
REMARK VINA RESULT:      -7.0      0.000      0.000
REMARK  Name = ZINC000583127796
REMARK  2 active torsions:
REMARK  status: ('A' for Active; 'I' for Inactive)
REMARK    1  A    between atoms: C_2  and  C_4
REMARK    2  A    between atoms: C_7  and  C_8
REMARK                            x       y       z     vdW  Elec       q    Type
REMARK                         _______ _______ _______ _____ _____    ______ ____
ROOT
ATOM      1  C   UNL     1      32.267  22.075  13.720  0.00  0.00    +0.247 C 
ATOM      2  O   UNL     1      32.960  21.064  13.588  0.00  0.00    -0.270 OA
ATOM      3  N   UNL     1      32.463  23.238  12.960  0.00  0.00    -0.297 N 
ATOM      4  C   UNL     1      31.695  24.481  13.050  0.00  0.00    +0.108 C 
ATOM      5  C   UNL     1      31.127  24.915  11.711  0.00  0.00    +0.020 C 
ATOM      6  C   UNL     1      32.188  24.922  10.626  0.00  0.00    +0.011 C 
ATOM      7  C   UNL     1      32.976  23.593  10.538  0.00  0.00    -0.004 C 
ATOM      8  C   UNL     1      34.097  23.806   9.499  0.00  0.00    +0.020 C 
ATOM      9  C   UNL     1      34.518  22.476   8.912  0.00  0.00    +0.070 C 
ATOM     10  S   UNL     1      32.972  21.580   8.701  0.00  0.00    -0.160 S 
ATOM     11  C   UNL     1      32.083  22.439  10.029  0.00  0.00    +0.077 C 
ATOM     12  C   UNL     1      33.535  23.249  11.945  0.00  0.00    +0.115 C 
ENDROOT
BRANCH   1  16
ATOM     13  C   UNL     1      28.833  22.144  16.275  0.00  0.00    +0.037 A 
ATOM     14  C   UNL     1      30.051  22.631  16.756  0.00  0.00    +0.014 A 
ATOM     15  C   UNL     1      31.204  22.505  15.979  0.00  0.00    +0.014 A 
ATOM     16  C   UNL     1      31.124  22.000  14.680  0.00  0.00    +0.037 A 
ATOM     17  C   UNL     1      29.924  21.424  14.238  0.00  0.00    +0.014 A 
ATOM     18  C   UNL     1      28.782  21.486  15.043  0.00  0.00    +0.014 A 
BRANCH  13  20
ATOM     19  N   UNL     1      27.676  22.980  18.243  0.00  0.00    -0.325 N 
ATOM     20  C   UNL     1      27.576  22.312  17.054  0.00  0.00    +0.242 C 
ATOM     21  O   UNL     1      26.502  21.922  16.629  0.00  0.00    -0.270 OA
ATOM     22  H   UNL     1      26.800  23.196  18.704  0.00  0.00    +0.145 HD
ATOM     23  H   UNL     1      28.476  23.551  18.478  0.00  0.00    +0.145 HD
ENDBRANCH  13  20
ENDBRANCH   1  16
TORSDOF 2
ENDMDL
MODEL 2
REMARK VINA RESULT:      -6.5      3.805      4.788
REMARK  Name = ZINC000583127796
REMARK  2 active torsions:
REMARK  status: ('A' for Active; 'I' for Inactive)
REMARK    1  A    between atoms: C_2  and  C_4
REMARK    2  A    between atoms: C_7  and  C_8
REMARK                            x       y       z     vdW  Elec       q    Type
REMARK                         _______ _______ _______ _____ _____    ______ ____
ROOT
ATOM      1  C   UNL     1      31.757  20.208  13.022  0.00  0.00    +0.247 C 
ATOM      2  O   UNL     1      32.524  20.996  12.465  0.00  0.00    -0.270 OA
ATOM      3  N   UNL     1      31.679  18.850  12.678  0.00  0.00    -0.297 N 
ATOM      4  C   UNL     1      30.800  17.845  13.280  0.00  0.00    +0.108 C 
ATOM      5  C   UNL     1      31.560  16.634  13.788  0.00  0.00    +0.020 C 
ATOM      6  C   UNL     1      32.502  16.079  12.736  0.00  0.00    +0.011 C 
ATOM      7  C   UNL     1      33.433  17.155  12.125  0.00  0.00    -0.004 C 
ATOM      8  C   UNL     1      34.220  16.471  10.987  0.00  0.00    +0.020 C 
ATOM      9  C   UNL     1      35.518  17.208  10.742  0.00  0.00    +0.070 C 
ATOM     10  S   UNL     1      36.103  17.630  12.390  0.00  0.00    -0.160 S 
ATOM     11  C   UNL     1      34.460  17.666  13.160  0.00  0.00    +0.077 C 
ATOM     12  C   UNL     1      32.564  18.336  11.615  0.00  0.00    +0.115 C 
ENDROOT
BRANCH   1  16
ATOM     13  C   UNL     1      29.399  22.029  16.096  0.00  0.00    +0.037 A 
ATOM     14  C   UNL     1      30.772  21.861  16.298  0.00  0.00    +0.014 A 
ATOM     15  C   UNL     1      31.531  21.163  15.358  0.00  0.00    +0.014 A 
ATOM     16  C   UNL     1      30.948  20.732  14.165  0.00  0.00    +0.037 A 
ATOM     17  C   UNL     1      29.557  20.815  14.009  0.00  0.00    +0.014 A 
ATOM     18  C   UNL     1      28.782  21.453  14.982  0.00  0.00    +0.014 A 
BRANCH  13  20
ATOM     19  N   UNL     1      27.226  22.577  17.040  0.00  0.00    -0.325 N 
ATOM     20  C   UNL     1      28.573  22.816  17.051  0.00  0.00    +0.242 C 
ATOM     21  O   UNL     1      29.075  23.597  17.841  0.00  0.00    -0.270 OA
ATOM     22  H   UNL     1      26.691  23.025  17.773  0.00  0.00    +0.145 HD
ATOM     23  H   UNL     1      26.827  21.753  16.612  0.00  0.00    +0.145 HD
ENDBRANCH  13  20
ENDBRANCH   1  16
TORSDOF 2
ENDMDL
MODEL 3
REMARK VINA RESULT:      -6.5      3.130      4.043
REMARK  Name = ZINC000583127796
REMARK  2 active torsions:
REMARK  status: ('A' for Active; 'I' for Inactive)
REMARK    1  A    between atoms: C_2  and  C_4
REMARK    2  A    between atoms: C_7  and  C_8
REMARK                            x       y       z     vdW  Elec       q    Type
REMARK                         _______ _______ _______ _____ _____    ______ ____
ROOT
ATOM      1  C   UNL     1      31.556  22.342  15.031  0.00  0.00    +0.247 C 
ATOM      2  O   UNL     1      32.500  23.072  14.723  0.00  0.00    -0.270 OA
ATOM      3  N   UNL     1      31.111  21.288  14.219  0.00  0.00    -0.297 N 
ATOM      4  C   UNL     1      30.000  20.376  14.500  0.00  0.00    +0.108 C 
ATOM      5  C   UNL     1      30.411  18.917  14.432  0.00  0.00    +0.020 C 
ATOM      6  C   UNL     1      31.158  18.603  13.148  0.00  0.00    +0.011 C 
ATOM      7  C   UNL     1      32.338  19.570  12.880  0.00  0.00    -0.004 C 
ATOM      8  C   UNL     1      32.899  19.212  11.487  0.00  0.00    +0.020 C 
ATOM      9  C   UNL     1      34.346  19.645  11.387  0.00  0.00    +0.070 C 
ATOM     10  S   UNL     1      35.040  19.236  12.995  0.00  0.00    -0.160 S 
ATOM     11  C   UNL     1      33.476  19.370  13.906  0.00  0.00    +0.077 C 
ATOM     12  C   UNL     1      31.813  21.029  12.947  0.00  0.00    +0.115 C 
ENDROOT
BRANCH   1  16
ATOM     13  C   UNL     1      29.753  23.338  18.784  0.00  0.00    +0.037 A 
ATOM     14  C   UNL     1      31.098  22.962  18.752  0.00  0.00    +0.014 A 
ATOM     15  C   UNL     1      31.667  22.520  17.556  0.00  0.00    +0.014 A 
ATOM     16  C   UNL     1      30.930  22.561  16.371  0.00  0.00    +0.037 A 
ATOM     17  C   UNL     1      29.558  22.845  16.424  0.00  0.00    +0.014 A 
ATOM     18  C   UNL     1      28.968  23.222  17.634  0.00  0.00    +0.014 A 
BRANCH  13  20
ATOM     19  N   UNL     1      27.820  24.242  19.950  0.00  0.00    -0.325 N 
ATOM     20  C   UNL     1      29.132  23.867  20.030  0.00  0.00    +0.242 C 
ATOM     21  O   UNL     1      29.747  23.914  21.082  0.00  0.00    -0.270 OA
ATOM     22  H   UNL     1      27.374  24.483  20.827  0.00  0.00    +0.145 HD
ATOM     23  H   UNL     1      27.219  23.953  19.190  0.00  0.00    +0.145 HD
ENDBRANCH  13  20
ENDBRANCH   1  16
TORSDOF 2
ENDMDL
MODEL 4
REMARK VINA RESULT:      -6.4      5.030      6.964
REMARK  Name = ZINC000583127796
REMARK  2 active torsions:
REMARK  status: ('A' for Active; 'I' for Inactive)
REMARK    1  A    between atoms: C_2  and  C_4
REMARK    2  A    between atoms: C_7  and  C_8
REMARK                            x       y       z     vdW  Elec       q    Type
REMARK                         _______ _______ _______ _____ _____    ______ ____
ROOT
ATOM      1  C   UNL     1      30.966  23.215  17.376  0.00  0.00    +0.247 C 
ATOM      2  O   UNL     1      30.142  23.179  18.291  0.00  0.00    -0.270 OA
ATOM      3  N   UNL     1      31.940  24.220  17.266  0.00  0.00    -0.297 N 
ATOM      4  C   UNL     1      32.953  24.346  16.217  0.00  0.00    +0.108 C 
ATOM      5  C   UNL     1      34.361  24.447  16.773  0.00  0.00    +0.020 C 
ATOM      6  C   UNL     1      34.462  25.503  17.858  0.00  0.00    +0.011 C 
ATOM      7  C   UNL     1      33.392  25.341  18.965  0.00  0.00    -0.004 C 
ATOM      8  C   UNL     1      33.534  26.557  19.906  0.00  0.00    +0.020 C 
ATOM      9  C   UNL     1      32.995  26.216  21.277  0.00  0.00    +0.070 C 
ATOM     10  S   UNL     1      33.552  24.529  21.562  0.00  0.00    -0.160 S 
ATOM     11  C   UNL     1      33.639  24.070  19.808  0.00  0.00    +0.077 C 
ATOM     12  C   UNL     1      31.991  25.272  18.300  0.00  0.00    +0.115 C 
ENDROOT
BRANCH   1  16
ATOM     13  C   UNL     1      30.707  19.789  14.822  0.00  0.00    +0.037 A 
ATOM     14  C   UNL     1      31.884  20.018  15.538  0.00  0.00    +0.014 A 
ATOM     15  C   UNL     1      32.028  21.192  16.280  0.00  0.00    +0.014 A 
ATOM     16  C   UNL     1      30.958  22.081  16.401  0.00  0.00    +0.037 A 
ATOM     17  C   UNL     1      29.818  21.899  15.606  0.00  0.00    +0.014 A 
ATOM     18  C   UNL     1      29.699  20.757  14.807  0.00  0.00    +0.014 A 
BRANCH  13  20
ATOM     19  N   UNL     1      30.586  18.600  12.705  0.00  0.00    -0.325 N 
ATOM     20  C   UNL     1      30.500  18.523  14.067  0.00  0.00    +0.242 C 
ATOM     21  O   UNL     1      30.316  17.461  14.636  0.00  0.00    -0.270 OA
ATOM     22  H   UNL     1      30.567  17.716  12.209  0.00  0.00    +0.145 HD
ATOM     23  H   UNL     1      31.012  19.386  12.232  0.00  0.00    +0.145 HD
ENDBRANCH  13  20
ENDBRANCH   1  16
TORSDOF 2
ENDMDL
MODEL 5
REMARK VINA RESULT:      -6.3      5.353      7.787
REMARK  Name = ZINC000583127796
REMARK  2 active torsions:
REMARK  status: ('A' for Active; 'I' for Inactive)
REMARK    1  A    between atoms: C_2  and  C_4
REMARK    2  A    between atoms: C_7  and  C_8
REMARK                            x       y       z     vdW  Elec       q    Type
REMARK                         _______ _______ _______ _____ _____    ______ ____
ROOT
ATOM      1  C   UNL     1      31.155  23.595  19.582  0.00  0.00    +0.247 C 
ATOM      2  O   UNL     1      30.976  22.905  20.588  0.00  0.00    -0.270 OA
ATOM      3  N   UNL     1      31.899  24.785  19.596  0.00  0.00    -0.297 N 
ATOM      4  C   UNL     1      32.161  25.666  18.457  0.00  0.00    +0.108 C 
ATOM      5  C   UNL     1      33.641  25.929  18.250  0.00  0.00    +0.020 C 
ATOM      6  C   UNL     1      34.320  26.364  19.536  0.00  0.00    +0.011 C 
ATOM      7  C   UNL     1      34.043  25.409  20.722  0.00  0.00    -0.004 C 
ATOM      8  C   UNL     1      34.675  26.056  21.973  0.00  0.00    +0.020 C 
ATOM      9  C   UNL     1      34.988  24.992  23.003  0.00  0.00    +0.070 C 
ATOM     10  S   UNL     1      35.619  23.614  22.034  0.00  0.00    -0.160 S 
ATOM     11  C   UNL     1      34.722  24.037  20.514  0.00  0.00    +0.077 C 
ATOM     12  C   UNL     1      32.509  25.224  20.866  0.00  0.00    +0.115 C 
ENDROOT
BRANCH   1  16
ATOM     13  C   UNL     1      29.796  22.382  15.708  0.00  0.00    +0.037 A 
ATOM     14  C   UNL     1      28.893  22.980  16.591  0.00  0.00    +0.014 A 
ATOM     15  C   UNL     1      29.290  23.271  17.898  0.00  0.00    +0.014 A 
ATOM     16  C   UNL     1      30.616  23.073  18.289  0.00  0.00    +0.037 A 
ATOM     17  C   UNL     1      31.490  22.385  17.435  0.00  0.00    +0.014 A 
ATOM     18  C   UNL     1      31.074  22.029  16.148  0.00  0.00    +0.014 A 
BRANCH  13  20
ATOM     19  N   UNL     1      29.605  23.132  13.403  0.00  0.00    -0.325 N 
ATOM     20  C   UNL     1      29.421  22.111  14.293  0.00  0.00    +0.242 C 
ATOM     21  O   UNL     1      29.021  21.016  13.935  0.00  0.00    -0.270 OA
ATOM     22  H   UNL     1      29.464  22.899  12.427  0.00  0.00    +0.145 HD
ATOM     23  H   UNL     1      30.189  23.931  13.608  0.00  0.00    +0.145 HD
ENDBRANCH  13  20
ENDBRANCH   1  16
TORSDOF 2
ENDMDL
MODEL 6
REMARK VINA RESULT:      -6.3      6.046      8.625
REMARK  Name = ZINC000583127796
REMARK  2 active torsions:
REMARK  status: ('A' for Active; 'I' for Inactive)
REMARK    1  A    between atoms: C_2  and  C_4
REMARK    2  A    between atoms: C_7  and  C_8
REMARK                            x       y       z     vdW  Elec       q    Type
REMARK                         _______ _______ _______ _____ _____    ______ ____
ROOT
ATOM      1  C   UNL     1      32.825  24.805  18.821  0.00  0.00    +0.247 C 
ATOM      2  O   UNL     1      33.489  25.693  18.283  0.00  0.00    -0.270 OA
ATOM      3  N   UNL     1      33.074  24.351  20.126  0.00  0.00    -0.297 N 
ATOM      4  C   UNL     1      32.343  23.305  20.842  0.00  0.00    +0.108 C 
ATOM      5  C   UNL     1      31.819  23.774  22.187  0.00  0.00    +0.020 C 
ATOM      6  C   UNL     1      32.905  24.443  23.010  0.00  0.00    +0.011 C 
ATOM      7  C   UNL     1      33.653  25.557  22.238  0.00  0.00    -0.004 C 
ATOM      8  C   UNL     1      34.803  26.036  23.149  0.00  0.00    +0.020 C 
ATOM      9  C   UNL     1      35.195  27.451  22.786  0.00  0.00    +0.070 C 
ATOM     10  S   UNL     1      33.628  28.273  22.463  0.00  0.00    -0.160 S 
ATOM     11  C   UNL     1      32.736  26.771  21.970  0.00  0.00    +0.077 C 
ATOM     12  C   UNL     1      34.168  24.975  20.895  0.00  0.00    +0.115 C 
ENDROOT
BRANCH   1  16
ATOM     13  C   UNL     1      29.470  22.976  16.889  0.00  0.00    +0.037 A 
ATOM     14  C   UNL     1      30.727  22.909  16.282  0.00  0.00    +0.014 A 
ATOM     15  C   UNL     1      31.804  23.602  16.838  0.00  0.00    +0.014 A 
ATOM     16  C   UNL     1      31.657  24.265  18.058  0.00  0.00    +0.037 A 
ATOM     17  C   UNL     1      30.378  24.411  18.613  0.00  0.00    +0.014 A 
ATOM     18  C   UNL     1      29.283  23.776  18.020  0.00  0.00    +0.014 A 
BRANCH  13  20
ATOM     19  N   UNL     1      27.105  22.414  16.953  0.00  0.00    -0.325 N 
ATOM     20  C   UNL     1      28.316  22.204  16.353  0.00  0.00    +0.242 C 
ATOM     21  O   UNL     1      28.432  21.462  15.392  0.00  0.00    -0.270 OA
ATOM     22  H   UNL     1      26.308  21.980  16.504  0.00  0.00    +0.145 HD
ATOM     23  H   UNL     1      26.926  23.214  17.544  0.00  0.00    +0.145 HD
ENDBRANCH  13  20
ENDBRANCH   1  16
TORSDOF 2
ENDMDL
MODEL 7
REMARK VINA RESULT:      -6.3      5.214      7.894
REMARK  Name = ZINC000583127796
REMARK  2 active torsions:
REMARK  status: ('A' for Active; 'I' for Inactive)
REMARK    1  A    between atoms: C_2  and  C_4
REMARK    2  A    between atoms: C_7  and  C_8
REMARK                            x       y       z     vdW  Elec       q    Type
REMARK                         _______ _______ _______ _____ _____    ______ ____
ROOT
ATOM      1  C   UNL     1      33.167  22.942  18.246  0.00  0.00    +0.247 C 
ATOM      2  O   UNL     1      34.173  23.434  17.732  0.00  0.00    -0.270 OA
ATOM      3  N   UNL     1      32.903  23.012  19.623  0.00  0.00    -0.297 N 
ATOM      4  C   UNL     1      31.741  22.457  20.320  0.00  0.00    +0.108 C 
ATOM      5  C   UNL     1      31.009  23.493  21.152  0.00  0.00    +0.020 C 
ATOM      6  C   UNL     1      31.958  24.265  22.051  0.00  0.00    +0.011 C 
ATOM      7  C   UNL     1      33.169  24.857  21.290  0.00  0.00    -0.004 C 
ATOM      8  C   UNL     1      34.101  25.481  22.350  0.00  0.00    +0.020 C 
ATOM      9  C   UNL     1      34.952  26.561  21.719  0.00  0.00    +0.070 C 
ATOM     10  S   UNL     1      33.828  27.409  20.599  0.00  0.00    -0.160 S 
ATOM     11  C   UNL     1      32.735  25.986  20.329  0.00  0.00    +0.077 C 
ATOM     12  C   UNL     1      33.862  23.719  20.493  0.00  0.00    +0.115 C 
ENDROOT
BRANCH   1  16
ATOM     13  C   UNL     1      30.504  21.286  15.331  0.00  0.00    +0.037 A 
ATOM     14  C   UNL     1      30.121  22.434  16.031  0.00  0.00    +0.014 A 
ATOM     15  C   UNL     1      30.925  22.915  17.066  0.00  0.00    +0.014 A 
ATOM     16  C   UNL     1      32.161  22.323  17.329  0.00  0.00    +0.037 A 
ATOM     17  C   UNL     1      32.496  21.118  16.694  0.00  0.00    +0.014 A 
ATOM     18  C   UNL     1      31.660  20.594  15.704  0.00  0.00    +0.014 A 
BRANCH  13  20
ATOM     19  N   UNL     1      30.076  19.578  13.655  0.00  0.00    -0.325 N 
ATOM     20  C   UNL     1      29.699  20.780  14.186  0.00  0.00    +0.242 C 
ATOM     21  O   UNL     1      28.720  21.381  13.776  0.00  0.00    -0.270 OA
ATOM     22  H   UNL     1      29.451  19.185  12.961  0.00  0.00    +0.145 HD
ATOM     23  H   UNL     1      30.685  18.936  14.144  0.00  0.00    +0.145 HD
ENDBRANCH  13  20
ENDBRANCH   1  16
TORSDOF 2
ENDMDL
MODEL 8
REMARK VINA RESULT:      -6.2     22.151     23.362
REMARK  Name = ZINC000583127796
REMARK  2 active torsions:
REMARK  status: ('A' for Active; 'I' for Inactive)
REMARK    1  A    between atoms: C_2  and  C_4
REMARK    2  A    between atoms: C_7  and  C_8
REMARK                            x       y       z     vdW  Elec       q    Type
REMARK                         _______ _______ _______ _____ _____    ______ ____
ROOT
ATOM      1  C   UNL     1      22.818   5.929   1.342  0.00  0.00    +0.247 C 
ATOM      2  O   UNL     1      23.727   5.521   2.068  0.00  0.00    -0.270 OA
ATOM      3  N   UNL     1      22.490   5.326   0.118  0.00  0.00    -0.297 N 
ATOM      4  C   UNL     1      21.435   5.741  -0.807  0.00  0.00    +0.108 C 
ATOM      5  C   UNL     1      20.479   4.613  -1.147  0.00  0.00    +0.020 C 
ATOM      6  C   UNL     1      21.219   3.360  -1.578  0.00  0.00    +0.011 C 
ATOM      7  C   UNL     1      22.319   2.930  -0.578  0.00  0.00    -0.004 C 
ATOM      8  C   UNL     1      23.065   1.740  -1.218  0.00  0.00    +0.020 C 
ATOM      9  C   UNL     1      23.711   0.895  -0.142  0.00  0.00    +0.070 C 
ATOM     10  S   UNL     1      22.487   0.850   1.176  0.00  0.00    -0.160 S 
ATOM     11  C   UNL     1      21.709   2.435   0.753  0.00  0.00    +0.077 C 
ATOM     12  C   UNL     1      23.255   4.139  -0.314  0.00  0.00    +0.115 C 
ENDROOT
BRANCH   1  16
ATOM     13  C   UNL     1      20.179   9.068   2.572  0.00  0.00    +0.037 A 
ATOM     14  C   UNL     1      21.274   9.376   1.760  0.00  0.00    +0.014 A 
ATOM     15  C   UNL     1      22.208   8.386   1.450  0.00  0.00    +0.014 A 
ATOM     16  C   UNL     1      21.993   7.067   1.852  0.00  0.00    +0.037 A 
ATOM     17  C   UNL     1      20.951   6.781   2.746  0.00  0.00    +0.014 A 
ATOM     18  C   UNL     1      20.051   7.786   3.115  0.00  0.00    +0.014 A 
BRANCH  13  20
ATOM     19  N   UNL     1      18.100   9.684   3.671  0.00  0.00    -0.325 N 
ATOM     20  C   UNL     1      19.136  10.085   2.875  0.00  0.00    +0.242 C 
ATOM     21  O   UNL     1      19.228  11.235   2.478  0.00  0.00    -0.270 OA
ATOM     22  H   UNL     1      17.464  10.413   3.971  0.00  0.00    +0.145 HD
ATOM     23  H   UNL     1      18.144   8.847   4.237  0.00  0.00    +0.145 HD
ENDBRANCH  13  20
ENDBRANCH   1  16
TORSDOF 2
ENDMDL
MODEL 9
REMARK VINA RESULT:      -6.1      4.006      4.766
REMARK  Name = ZINC000583127796
REMARK  2 active torsions:
REMARK  status: ('A' for Active; 'I' for Inactive)
REMARK    1  A    between atoms: C_2  and  C_4
REMARK    2  A    between atoms: C_7  and  C_8
REMARK                            x       y       z     vdW  Elec       q    Type
REMARK                         _______ _______ _______ _____ _____    ______ ____
ROOT
ATOM      1  C   UNL     1      32.891  19.339  14.572  0.00  0.00    +0.247 C 
ATOM      2  O   UNL     1      33.334  18.641  15.486  0.00  0.00    -0.270 OA
ATOM      3  N   UNL     1      33.360  19.253  13.251  0.00  0.00    -0.297 N 
ATOM      4  C   UNL     1      32.898  20.040  12.106  0.00  0.00    +0.108 C 
ATOM      5  C   UNL     1      32.463  19.174  10.940  0.00  0.00    +0.020 C 
ATOM      6  C   UNL     1      33.511  18.133  10.591  0.00  0.00    +0.011 C 
ATOM      7  C   UNL     1      33.972  17.302  11.813  0.00  0.00    -0.004 C 
ATOM      8  C   UNL     1      35.125  16.397  11.328  0.00  0.00    +0.020 C 
ATOM      9  C   UNL     1      35.235  15.179  12.218  0.00  0.00    +0.070 C 
ATOM     10  S   UNL     1      33.527  14.713  12.540  0.00  0.00    -0.160 S 
ATOM     11  C   UNL     1      32.843  16.381  12.328  0.00  0.00    +0.077 C 
ATOM     12  C   UNL     1      34.418  18.274  12.938  0.00  0.00    +0.115 C 
ENDROOT
BRANCH   1  16
ATOM     13  C   UNL     1      29.619  21.788  15.845  0.00  0.00    +0.037 A 
ATOM     14  C   UNL     1      29.381  20.745  14.946  0.00  0.00    +0.014 A 
ATOM     15  C   UNL     1      30.454  20.016  14.430  0.00  0.00    +0.014 A 
ATOM     16  C   UNL     1      31.749  20.248  14.895  0.00  0.00    +0.037 A 
ATOM     17  C   UNL     1      31.996  21.355  15.721  0.00  0.00    +0.014 A 
ATOM     18  C   UNL     1      30.930  22.131  16.185  0.00  0.00    +0.014 A 
BRANCH  13  20
ATOM     19  N   UNL     1      28.777  23.806  16.909  0.00  0.00    -0.325 N 
ATOM     20  C   UNL     1      28.494  22.547  16.456  0.00  0.00    +0.242 C 
ATOM     21  O   UNL     1      27.364  22.092  16.502  0.00  0.00    -0.270 OA
ATOM     22  H   UNL     1      27.983  24.358  17.209  0.00  0.00    +0.145 HD
ATOM     23  H   UNL     1      29.610  24.307  16.631  0.00  0.00    +0.145 HD
ENDBRANCH  13  20
ENDBRANCH   1  16
TORSDOF 2
ENDMDL
