MODEL 1
REMARK VINA RESULT:      -6.3      0.000      0.000
REMARK  Name = ZINC001228612316
REMARK  5 active torsions:
REMARK  status: ('A' for Active; 'I' for Inactive)
REMARK    1  A    between atoms: C_2  and  C_4
REMARK    2  A    between atoms: C_8  and  O_9
REMARK    3  A    between atoms: O_9  and  C_10
REMARK    4  A    between atoms: C_10  and  C_11
REMARK    5  A    between atoms: C_10  and  C_17
REMARK                            x       y       z     vdW  Elec       q    Type
REMARK                         _______ _______ _______ _____ _____    ______ ____
ROOT
ATOM      1  C   UNL     1      33.213  23.576  10.368  0.00  0.00    +0.040 A 
ATOM      2  C   UNL     1      32.147  24.444  10.617  0.00  0.00    +0.013 A 
ATOM      3  C   UNL     1      31.456  24.356  11.828  0.00  0.00    +0.004 A 
ATOM      4  C   UNL     1      31.837  23.411  12.787  0.00  0.00    +0.046 A 
ATOM      5  C   UNL     1      32.907  22.547  12.544  0.00  0.00    +0.122 A 
ATOM      6  C   UNL     1      33.567  22.617  11.321  0.00  0.00    +0.058 A 
ENDROOT
BRANCH   1   8
ATOM      7  N   UNL     1      34.410  24.837   8.660  0.00  0.00    -0.325 N 
ATOM      8  C   UNL     1      34.015  23.613   9.119  0.00  0.00    +0.242 C 
ATOM      9  O   UNL     1      34.369  22.587   8.551  0.00  0.00    -0.270 OA
ATOM     10  H   UNL     1      35.074  24.824   7.895  0.00  0.00    +0.145 HD
ATOM     11  H   UNL     1      34.379  25.664   9.238  0.00  0.00    +0.145 HD
ENDBRANCH   1   8
BRANCH   5  12
ATOM     12  O   UNL     1      33.208  21.667  13.546  0.00  0.00    -0.484 OA
BRANCH  12  13
ATOM     13  C   UNL     1      32.203  20.704  13.914  0.00  0.00    +0.208 C 
BRANCH  13  14
ATOM     14  C   UNL     1      32.696  19.318  13.554  0.00  0.00    +0.011 A 
ATOM     15  C   UNL     1      32.197  18.196  14.229  0.00  0.00    +0.010 A 
ATOM     16  C   UNL     1      32.653  16.925  13.904  0.00  0.00    +0.020 A 
ATOM     17  C   UNL     1      33.602  16.811  12.904  0.00  0.00    +0.111 A 
ATOM     18  N   UNL     1      34.115  17.864  12.231  0.00  0.00    -0.263 NA
ATOM     19  C   UNL     1      33.654  19.091  12.572  0.00  0.00    +0.118 A 
ENDBRANCH  13  14
BRANCH  13  20
ATOM     20  C   UNL     1      31.932  20.796  15.400  0.00  0.00    +0.034 C 
ATOM     21  C   UNL     1      30.527  20.913  15.955  0.00  0.00    +0.008 C 
ATOM     22  C   UNL     1      31.448  22.093  16.019  0.00  0.00    +0.008 C 
ENDBRANCH  13  20
ENDBRANCH  12  13
ENDBRANCH   5  12
TORSDOF 5
ENDMDL
MODEL 2
REMARK VINA RESULT:      -6.3      3.917      6.118
REMARK  Name = ZINC001228612316
REMARK  5 active torsions:
REMARK  status: ('A' for Active; 'I' for Inactive)
REMARK    1  A    between atoms: C_2  and  C_4
REMARK    2  A    between atoms: C_8  and  O_9
REMARK    3  A    between atoms: O_9  and  C_10
REMARK    4  A    between atoms: C_10  and  C_11
REMARK    5  A    between atoms: C_10  and  C_17
REMARK                            x       y       z     vdW  Elec       q    Type
REMARK                         _______ _______ _______ _____ _____    ______ ____
ROOT
ATOM      1  C   UNL     1      34.916  24.779  17.194  0.00  0.00    +0.040 A 
ATOM      2  C   UNL     1      35.906  25.539  16.566  0.00  0.00    +0.013 A 
ATOM      3  C   UNL     1      36.355  25.171  15.295  0.00  0.00    +0.004 A 
ATOM      4  C   UNL     1      35.808  24.055  14.654  0.00  0.00    +0.046 A 
ATOM      5  C   UNL     1      34.812  23.298  15.275  0.00  0.00    +0.122 A 
ATOM      6  C   UNL     1      34.396  23.649  16.555  0.00  0.00    +0.058 A 
ENDROOT
BRANCH   1   8
ATOM      7  N   UNL     1      33.180  25.782  18.579  0.00  0.00    -0.325 N 
ATOM      8  C   UNL     1      34.367  25.109  18.533  0.00  0.00    +0.242 C 
ATOM      9  O   UNL     1      34.917  24.738  19.563  0.00  0.00    -0.270 OA
ATOM     10  H   UNL     1      32.758  25.864  19.496  0.00  0.00    +0.145 HD
ATOM     11  H   UNL     1      32.571  25.854  17.777  0.00  0.00    +0.145 HD
ENDBRANCH   1   8
BRANCH   5  12
ATOM     12  O   UNL     1      34.335  22.233  14.562  0.00  0.00    -0.484 OA
BRANCH  12  13
ATOM     13  C   UNL     1      32.948  22.254  14.174  0.00  0.00    +0.208 C 
BRANCH  13  14
ATOM     14  C   UNL     1      32.832  22.885  12.802  0.00  0.00    +0.011 A 
ATOM     15  C   UNL     1      31.878  23.884  12.566  0.00  0.00    +0.010 A 
ATOM     16  C   UNL     1      31.765  24.459  11.307  0.00  0.00    +0.020 A 
ATOM     17  C   UNL     1      32.619  24.016  10.312  0.00  0.00    +0.111 A 
ATOM     18  N   UNL     1      33.549  23.054  10.493  0.00  0.00    -0.263 NA
ATOM     19  C   UNL     1      33.633  22.509  11.731  0.00  0.00    +0.118 A 
ENDBRANCH  13  14
BRANCH  13  20
ATOM     20  C   UNL     1      32.406  20.842  14.153  0.00  0.00    +0.034 C 
ATOM     21  C   UNL     1      31.003  20.527  13.675  0.00  0.00    +0.008 C 
ATOM     22  C   UNL     1      31.332  20.410  15.132  0.00  0.00    +0.008 C 
ENDBRANCH  13  20
ENDBRANCH  12  13
ENDBRANCH   5  12
TORSDOF 5
ENDMDL
MODEL 3
REMARK VINA RESULT:      -6.1      1.295      1.348
REMARK  Name = ZINC001228612316
REMARK  5 active torsions:
REMARK  status: ('A' for Active; 'I' for Inactive)
REMARK    1  A    between atoms: C_2  and  C_4
REMARK    2  A    between atoms: C_8  and  O_9
REMARK    3  A    between atoms: O_9  and  C_10
REMARK    4  A    between atoms: C_10  and  C_11
REMARK    5  A    between atoms: C_10  and  C_17
REMARK                            x       y       z     vdW  Elec       q    Type
REMARK                         _______ _______ _______ _____ _____    ______ ____
ROOT
ATOM      1  C   UNL     1      32.861  23.739  10.228  0.00  0.00    +0.040 A 
ATOM      2  C   UNL     1      31.808  24.439  10.820  0.00  0.00    +0.013 A 
ATOM      3  C   UNL     1      31.569  24.296  12.189  0.00  0.00    +0.004 A 
ATOM      4  C   UNL     1      32.387  23.464  12.961  0.00  0.00    +0.046 A 
ATOM      5  C   UNL     1      33.447  22.769  12.373  0.00  0.00    +0.122 A 
ATOM      6  C   UNL     1      33.656  22.889  11.003  0.00  0.00    +0.058 A 
ENDROOT
BRANCH   1   8
ATOM      7  N   UNL     1      34.376  24.458   8.459  0.00  0.00    -0.325 N 
ATOM      8  C   UNL     1      33.199  23.848   8.786  0.00  0.00    +0.242 C 
ATOM      9  O   UNL     1      32.487  23.355   7.920  0.00  0.00    -0.270 OA
ATOM     10  H   UNL     1      34.649  24.388   7.486  0.00  0.00    +0.145 HD
ATOM     11  H   UNL     1      35.105  24.621   9.138  0.00  0.00    +0.145 HD
ENDBRANCH   1   8
BRANCH   5  12
ATOM     12  O   UNL     1      34.194  21.991  13.214  0.00  0.00    -0.484 OA
BRANCH  12  13
ATOM     13  C   UNL     1      33.502  21.272  14.252  0.00  0.00    +0.208 C 
BRANCH  13  14
ATOM     14  C   UNL     1      33.487  19.799  13.902  0.00  0.00    +0.011 A 
ATOM     15  C   UNL     1      32.365  19.016  14.207  0.00  0.00    +0.010 A 
ATOM     16  C   UNL     1      32.352  17.663  13.893  0.00  0.00    +0.020 A 
ATOM     17  C   UNL     1      33.469  17.128  13.277  0.00  0.00    +0.111 A 
ATOM     18  N   UNL     1      34.573  17.843  12.969  0.00  0.00    -0.263 NA
ATOM     19  C   UNL     1      34.559  19.159  13.291  0.00  0.00    +0.118 A 
ENDBRANCH  13  14
BRANCH  13  20
ATOM     20  C   UNL     1      34.203  21.493  15.574  0.00  0.00    +0.034 C 
ATOM     21  C   UNL     1      33.634  20.980  16.881  0.00  0.00    +0.008 C 
ATOM     22  C   UNL     1      33.635  22.452  16.602  0.00  0.00    +0.008 C 
ENDBRANCH  13  20
ENDBRANCH  12  13
ENDBRANCH   5  12
TORSDOF 5
ENDMDL
MODEL 4
REMARK VINA RESULT:      -6.0      2.407      4.205
REMARK  Name = ZINC001228612316
REMARK  5 active torsions:
REMARK  status: ('A' for Active; 'I' for Inactive)
REMARK    1  A    between atoms: C_2  and  C_4
REMARK    2  A    between atoms: C_8  and  O_9
REMARK    3  A    between atoms: O_9  and  C_10
REMARK    4  A    between atoms: C_10  and  C_11
REMARK    5  A    between atoms: C_10  and  C_17
REMARK                            x       y       z     vdW  Elec       q    Type
REMARK                         _______ _______ _______ _____ _____    ______ ____
ROOT
ATOM      1  C   UNL     1      34.274  20.940   8.187  0.00  0.00    +0.040 A 
ATOM      2  C   UNL     1      34.281  19.544   8.234  0.00  0.00    +0.013 A 
ATOM      3  C   UNL     1      34.185  18.895   9.468  0.00  0.00    +0.004 A 
ATOM      4  C   UNL     1      34.072  19.641  10.646  0.00  0.00    +0.046 A 
ATOM      5  C   UNL     1      34.056  21.037  10.602  0.00  0.00    +0.122 A 
ATOM      6  C   UNL     1      34.189  21.676   9.373  0.00  0.00    +0.058 A 
ENDROOT
BRANCH   1   8
ATOM      7  N   UNL     1      34.182  23.063   6.993  0.00  0.00    -0.325 N 
ATOM      8  C   UNL     1      34.352  21.710   6.920  0.00  0.00    +0.242 C 
ATOM      9  O   UNL     1      34.622  21.169   5.854  0.00  0.00    -0.270 OA
ATOM     10  H   UNL     1      34.384  23.575   6.143  0.00  0.00    +0.145 HD
ATOM     11  H   UNL     1      34.238  23.565   7.867  0.00  0.00    +0.145 HD
ENDBRANCH   1   8
BRANCH   5  12
ATOM     12  O   UNL     1      33.931  21.675  11.805  0.00  0.00    -0.484 OA
BRANCH  12  13
ATOM     13  C   UNL     1      32.634  22.190  12.158  0.00  0.00    +0.208 C 
BRANCH  13  14
ATOM     14  C   UNL     1      32.328  21.808  13.592  0.00  0.00    +0.011 A 
ATOM     15  C   UNL     1      31.237  20.977  13.881  0.00  0.00    +0.010 A 
ATOM     16  C   UNL     1      30.951  20.632  15.195  0.00  0.00    +0.020 A 
ATOM     17  C   UNL     1      31.772  21.130  16.191  0.00  0.00    +0.111 A 
ATOM     18  N   UNL     1      32.830  21.937  15.960  0.00  0.00    -0.263 NA
ATOM     19  C   UNL     1      33.082  22.260  14.668  0.00  0.00    +0.118 A 
ENDBRANCH  13  14
BRANCH  13  20
ATOM     20  C   UNL     1      32.625  23.694  12.001  0.00  0.00    +0.034 C 
ATOM     21  C   UNL     1      31.354  24.509  12.124  0.00  0.00    +0.008 C 
ATOM     22  C   UNL     1      31.997  24.342  10.782  0.00  0.00    +0.008 C 
ENDBRANCH  13  20
ENDBRANCH  12  13
ENDBRANCH   5  12
TORSDOF 5
ENDMDL
MODEL 5
REMARK VINA RESULT:      -5.9      3.681      5.863
REMARK  Name = ZINC001228612316
REMARK  5 active torsions:
REMARK  status: ('A' for Active; 'I' for Inactive)
REMARK    1  A    between atoms: C_2  and  C_4
REMARK    2  A    between atoms: C_8  and  O_9
REMARK    3  A    between atoms: O_9  and  C_10
REMARK    4  A    between atoms: C_10  and  C_11
REMARK    5  A    between atoms: C_10  and  C_17
REMARK                            x       y       z     vdW  Elec       q    Type
REMARK                         _______ _______ _______ _____ _____    ______ ____
ROOT
ATOM      1  C   UNL     1      32.198  20.062  14.936  0.00  0.00    +0.040 A 
ATOM      2  C   UNL     1      33.188  20.216  15.910  0.00  0.00    +0.013 A 
ATOM      3  C   UNL     1      33.972  19.119  16.276  0.00  0.00    +0.004 A 
ATOM      4  C   UNL     1      33.773  17.878  15.661  0.00  0.00    +0.046 A 
ATOM      5  C   UNL     1      32.790  17.723  14.680  0.00  0.00    +0.122 A 
ATOM      6  C   UNL     1      31.989  18.811  14.348  0.00  0.00    +0.058 A 
ENDROOT
BRANCH   1   8
ATOM      7  N   UNL     1      31.111  22.204  15.344  0.00  0.00    -0.325 N 
ATOM      8  C   UNL     1      31.334  21.177  14.473  0.00  0.00    +0.242 C 
ATOM      9  O   UNL     1      30.888  21.214  13.333  0.00  0.00    -0.270 OA
ATOM     10  H   UNL     1      30.644  23.014  14.954  0.00  0.00    +0.145 HD
ATOM     11  H   UNL     1      31.676  22.343  16.169  0.00  0.00    +0.145 HD
ENDBRANCH   1   8
BRANCH   5  12
ATOM     12  O   UNL     1      32.680  16.474  14.133  0.00  0.00    -0.484 OA
BRANCH  12  13
ATOM     13  C   UNL     1      32.711  16.369  12.697  0.00  0.00    +0.208 C 
BRANCH  13  14
ATOM     14  C   UNL     1      34.122  16.634  12.216  0.00  0.00    +0.011 A 
ATOM     15  C   UNL     1      34.369  17.655  11.288  0.00  0.00    +0.010 A 
ATOM     16  C   UNL     1      35.661  17.895  10.840  0.00  0.00    +0.020 A 
ATOM     17  C   UNL     1      36.679  17.103  11.339  0.00  0.00    +0.111 A 
ATOM     18  N   UNL     1      36.489  16.106  12.230  0.00  0.00    -0.263 NA
ATOM     19  C   UNL     1      35.216  15.892  12.645  0.00  0.00    +0.118 A 
ENDBRANCH  13  14
BRANCH  13  20
ATOM     20  C   UNL     1      32.265  14.984  12.281  0.00  0.00    +0.034 C 
ATOM     21  C   UNL     1      32.418  14.483  10.860  0.00  0.00    +0.008 C 
ATOM     22  C   UNL     1      31.053  14.797  11.390  0.00  0.00    +0.008 C 
ENDBRANCH  13  20
ENDBRANCH  12  13
ENDBRANCH   5  12
TORSDOF 5
ENDMDL
MODEL 6
REMARK VINA RESULT:      -5.8      2.533      3.441
REMARK  Name = ZINC001228612316
REMARK  5 active torsions:
REMARK  status: ('A' for Active; 'I' for Inactive)
REMARK    1  A    between atoms: C_2  and  C_4
REMARK    2  A    between atoms: C_8  and  O_9
REMARK    3  A    between atoms: O_9  and  C_10
REMARK    4  A    between atoms: C_10  and  C_11
REMARK    5  A    between atoms: C_10  and  C_17
REMARK                            x       y       z     vdW  Elec       q    Type
REMARK                         _______ _______ _______ _____ _____    ______ ____
ROOT
ATOM      1  C   UNL     1      33.650  23.052  10.722  0.00  0.00    +0.040 A 
ATOM      2  C   UNL     1      32.743  24.008  10.257  0.00  0.00    +0.013 A 
ATOM      3  C   UNL     1      31.757  24.498  11.117  0.00  0.00    +0.004 A 
ATOM      4  C   UNL     1      31.688  24.042  12.438  0.00  0.00    +0.046 A 
ATOM      5  C   UNL     1      32.598  23.093  12.908  0.00  0.00    +0.122 A 
ATOM      6  C   UNL     1      33.553  22.582  12.035  0.00  0.00    +0.058 A 
ENDROOT
BRANCH   1   8
ATOM      7  N   UNL     1      34.716  22.774   8.548  0.00  0.00    -0.325 N 
ATOM      8  C   UNL     1      34.740  22.492   9.884  0.00  0.00    +0.242 C 
ATOM      9  O   UNL     1      35.665  21.855  10.374  0.00  0.00    -0.270 OA
ATOM     10  H   UNL     1      35.543  22.505   8.030  0.00  0.00    +0.145 HD
ATOM     11  H   UNL     1      34.142  23.509   8.164  0.00  0.00    +0.145 HD
ENDBRANCH   1   8
BRANCH   5  12
ATOM     12  O   UNL     1      32.454  22.718  14.216  0.00  0.00    -0.484 OA
BRANCH  12  13
ATOM     13  C   UNL     1      32.980  21.436  14.607  0.00  0.00    +0.208 C 
BRANCH  13  14
ATOM     14  C   UNL     1      33.786  21.604  15.878  0.00  0.00    +0.011 A 
ATOM     15  C   UNL     1      33.936  20.527  16.762  0.00  0.00    +0.010 A 
ATOM     16  C   UNL     1      34.670  20.680  17.931  0.00  0.00    +0.020 A 
ATOM     17  C   UNL     1      35.238  21.916  18.184  0.00  0.00    +0.111 A 
ATOM     18  N   UNL     1      35.116  22.982  17.364  0.00  0.00    -0.263 NA
ATOM     19  C   UNL     1      34.391  22.803  16.232  0.00  0.00    +0.118 A 
ENDBRANCH  13  14
BRANCH  13  20
ATOM     20  C   UNL     1      31.840  20.467  14.830  0.00  0.00    +0.034 C 
ATOM     21  C   UNL     1      31.879  19.046  14.309  0.00  0.00    +0.008 C 
ATOM     22  C   UNL     1      30.951  20.038  13.679  0.00  0.00    +0.008 C 
ENDBRANCH  13  20
ENDBRANCH  12  13
ENDBRANCH   5  12
TORSDOF 5
ENDMDL
MODEL 7
REMARK VINA RESULT:      -5.8      4.207      5.947
REMARK  Name = ZINC001228612316
REMARK  5 active torsions:
REMARK  status: ('A' for Active; 'I' for Inactive)
REMARK    1  A    between atoms: C_2  and  C_4
REMARK    2  A    between atoms: C_8  and  O_9
REMARK    3  A    between atoms: O_9  and  C_10
REMARK    4  A    between atoms: C_10  and  C_11
REMARK    5  A    between atoms: C_10  and  C_17
REMARK                            x       y       z     vdW  Elec       q    Type
REMARK                         _______ _______ _______ _____ _____    ______ ____
ROOT
ATOM      1  C   UNL     1      32.367  20.576  15.972  0.00  0.00    +0.040 A 
ATOM      2  C   UNL     1      33.200  20.668  17.090  0.00  0.00    +0.013 A 
ATOM      3  C   UNL     1      34.355  19.884  17.155  0.00  0.00    +0.004 A 
ATOM      4  C   UNL     1      34.678  19.022  16.102  0.00  0.00    +0.046 A 
ATOM      5  C   UNL     1      33.853  18.935  14.978  0.00  0.00    +0.122 A 
ATOM      6  C   UNL     1      32.686  19.691  14.937  0.00  0.00    +0.058 A 
ENDROOT
BRANCH   1   8
ATOM      7  N   UNL     1      31.228  22.543  15.094  0.00  0.00    -0.325 N 
ATOM      8  C   UNL     1      31.133  21.385  15.810  0.00  0.00    +0.242 C 
ATOM      9  O   UNL     1      30.052  21.004  16.243  0.00  0.00    -0.270 OA
ATOM     10  H   UNL     1      30.349  22.997  14.876  0.00  0.00    +0.145 HD
ATOM     11  H   UNL     1      32.018  22.744  14.497  0.00  0.00    +0.145 HD
ENDBRANCH   1   8
BRANCH   5  12
ATOM     12  O   UNL     1      34.261  18.072  13.999  0.00  0.00    -0.484 OA
BRANCH  12  13
ATOM     13  C   UNL     1      34.015  16.668  14.200  0.00  0.00    +0.208 C 
BRANCH  13  14
ATOM     14  C   UNL     1      33.358  16.102  12.958  0.00  0.00    +0.011 A 
ATOM     15  C   UNL     1      33.896  16.373  11.692  0.00  0.00    +0.010 A 
ATOM     16  C   UNL     1      33.291  15.860  10.552  0.00  0.00    +0.020 A 
ATOM     17  C   UNL     1      32.158  15.083  10.712  0.00  0.00    +0.111 A 
ATOM     18  N   UNL     1      31.602  14.800  11.910  0.00  0.00    -0.263 NA
ATOM     19  C   UNL     1      32.212  15.317  13.004  0.00  0.00    +0.118 A 
ENDBRANCH  13  14
BRANCH  13  20
ATOM     20  C   UNL     1      35.323  15.958  14.474  0.00  0.00    +0.034 C 
ATOM     21  C   UNL     1      35.384  14.478  14.790  0.00  0.00    +0.008 C 
ATOM     22  C   UNL     1      35.664  15.476  15.870  0.00  0.00    +0.008 C 
ENDBRANCH  13  20
ENDBRANCH  12  13
ENDBRANCH   5  12
TORSDOF 5
ENDMDL
MODEL 8
REMARK VINA RESULT:      -5.8      4.040      5.756
REMARK  Name = ZINC001228612316
REMARK  5 active torsions:
REMARK  status: ('A' for Active; 'I' for Inactive)
REMARK    1  A    between atoms: C_2  and  C_4
REMARK    2  A    between atoms: C_8  and  O_9
REMARK    3  A    between atoms: O_9  and  C_10
REMARK    4  A    between atoms: C_10  and  C_11
REMARK    5  A    between atoms: C_10  and  C_17
REMARK                            x       y       z     vdW  Elec       q    Type
REMARK                         _______ _______ _______ _____ _____    ______ ____
ROOT
ATOM      1  C   UNL     1      32.082  20.434  15.878  0.00  0.00    +0.040 A 
ATOM      2  C   UNL     1      33.198  20.574  16.707  0.00  0.00    +0.013 A 
ATOM      3  C   UNL     1      34.180  19.581  16.715  0.00  0.00    +0.004 A 
ATOM      4  C   UNL     1      34.050  18.459  15.890  0.00  0.00    +0.046 A 
ATOM      5  C   UNL     1      32.940  18.320  15.053  0.00  0.00    +0.122 A 
ATOM      6  C   UNL     1      31.949  19.295  15.078  0.00  0.00    +0.058 A 
ENDROOT
BRANCH   1   8
ATOM      7  N   UNL     1      31.305  22.642  15.201  0.00  0.00    -0.325 N 
ATOM      8  C   UNL     1      31.002  21.449  15.792  0.00  0.00    +0.242 C 
ATOM      9  O   UNL     1      29.863  21.211  16.174  0.00  0.00    -0.270 OA
ATOM     10  H   UNL     1      30.518  23.255  15.024  0.00  0.00    +0.145 HD
ATOM     11  H   UNL     1      32.131  22.768  14.635  0.00  0.00    +0.145 HD
ENDBRANCH   1   8
BRANCH   5  12
ATOM     12  O   UNL     1      32.910  17.194  14.277  0.00  0.00    -0.484 OA
BRANCH  12  13
ATOM     13  C   UNL     1      33.863  17.097  13.202  0.00  0.00    +0.208 C 
BRANCH  13  14
ATOM     14  C   UNL     1      33.564  15.853  12.391  0.00  0.00    +0.011 A 
ATOM     15  C   UNL     1      32.259  15.600  11.948  0.00  0.00    +0.010 A 
ATOM     16  C   UNL     1      31.982  14.456  11.210  0.00  0.00    +0.020 A 
ATOM     17  C   UNL     1      33.027  13.593  10.933  0.00  0.00    +0.111 A 
ATOM     18  N   UNL     1      34.297  13.794  11.343  0.00  0.00    -0.263 NA
ATOM     19  C   UNL     1      34.537  14.916  12.065  0.00  0.00    +0.118 A 
ENDBRANCH  13  14
BRANCH  13  20
ATOM     20  C   UNL     1      33.770  18.329  12.329  0.00  0.00    +0.034 C 
ATOM     21  C   UNL     1      34.536  18.454  11.029  0.00  0.00    +0.008 C 
ATOM     22  C   UNL     1      34.942  19.283  12.208  0.00  0.00    +0.008 C 
ENDBRANCH  13  20
ENDBRANCH  12  13
ENDBRANCH   5  12
TORSDOF 5
ENDMDL
MODEL 9
REMARK VINA RESULT:      -5.7      2.921      6.228
REMARK  Name = ZINC001228612316
REMARK  5 active torsions:
REMARK  status: ('A' for Active; 'I' for Inactive)
REMARK    1  A    between atoms: C_2  and  C_4
REMARK    2  A    between atoms: C_8  and  O_9
REMARK    3  A    between atoms: O_9  and  C_10
REMARK    4  A    between atoms: C_10  and  C_11
REMARK    5  A    between atoms: C_10  and  C_17
REMARK                            x       y       z     vdW  Elec       q    Type
REMARK                         _______ _______ _______ _____ _____    ______ ____
ROOT
ATOM      1  C   UNL     1      32.650  23.125  12.828  0.00  0.00    +0.040 A 
ATOM      2  C   UNL     1      31.741  24.047  12.303  0.00  0.00    +0.013 A 
ATOM      3  C   UNL     1      31.838  24.423  10.961  0.00  0.00    +0.004 A 
ATOM      4  C   UNL     1      32.832  23.870  10.147  0.00  0.00    +0.046 A 
ATOM      5  C   UNL     1      33.737  22.940  10.667  0.00  0.00    +0.122 A 
ATOM      6  C   UNL     1      33.657  22.599  12.013  0.00  0.00    +0.058 A 
ENDROOT
BRANCH   1   8
ATOM      7  N   UNL     1      31.381  22.521  14.819  0.00  0.00    -0.325 N 
ATOM      8  C   UNL     1      32.608  22.654  14.235  0.00  0.00    +0.242 C 
ATOM      9  O   UNL     1      33.626  22.333  14.837  0.00  0.00    -0.270 OA
ATOM     10  H   UNL     1      31.373  22.062  15.722  0.00  0.00    +0.145 HD
ATOM     11  H   UNL     1      30.527  22.506  14.280  0.00  0.00    +0.145 HD
ENDBRANCH   1   8
BRANCH   5  12
ATOM     12  O   UNL     1      34.664  22.450   9.789  0.00  0.00    -0.484 OA
BRANCH  12  13
ATOM     13  C   UNL     1      34.257  21.381   8.914  0.00  0.00    +0.208 C 
BRANCH  13  14
ATOM     14  C   UNL     1      34.829  21.632   7.534  0.00  0.00    +0.011 A 
ATOM     15  C   UNL     1      35.593  22.781   7.287  0.00  0.00    +0.010 A 
ATOM     16  C   UNL     1      36.113  23.016   6.021  0.00  0.00    +0.020 A 
ATOM     17  C   UNL     1      35.852  22.087   5.029  0.00  0.00    +0.111 A 
ATOM     18  N   UNL     1      35.118  20.969   5.220  0.00  0.00    -0.263 NA
ATOM     19  C   UNL     1      34.620  20.769   6.465  0.00  0.00    +0.118 A 
ENDBRANCH  13  14
BRANCH  13  20
ATOM     20  C   UNL     1      34.757  20.061   9.458  0.00  0.00    +0.034 C 
ATOM     21  C   UNL     1      34.028  18.758   9.203  0.00  0.00    +0.008 C 
ATOM     22  C   UNL     1      34.016  19.355  10.577  0.00  0.00    +0.008 C 
ENDBRANCH  13  20
ENDBRANCH  12  13
ENDBRANCH   5  12
TORSDOF 5
ENDMDL
