MODEL 1
REMARK VINA RESULT:      -6.4      0.000      0.000
REMARK  Name = ZINC000870248439
REMARK  2 active torsions:
REMARK  status: ('A' for Active; 'I' for Inactive)
REMARK    1  A    between atoms: C_2  and  C_4
REMARK    2  A    between atoms: C_7  and  C_8
REMARK                            x       y       z     vdW  Elec       q    Type
REMARK                         _______ _______ _______ _____ _____    ______ ____
ROOT
ATOM      1  C   UNL     1      33.635  17.274  14.689  0.00  0.00    +0.247 C 
ATOM      2  O   UNL     1      33.997  16.764  15.749  0.00  0.00    -0.270 OA
ATOM      3  N   UNL     1      33.810  16.657  13.443  0.00  0.00    -0.297 N 
ATOM      4  C   UNL     1      33.390  17.201  12.154  0.00  0.00    +0.108 C 
ATOM      5  C   UNL     1      32.725  16.179  11.255  0.00  0.00    +0.026 C 
ATOM      6  C   UNL     1      33.564  14.900  11.089  0.00  0.00    -0.025 C 
ATOM      7  C   UNL     1      32.687  13.864  10.350  0.00  0.00    +0.017 C 
ATOM      8  C   UNL     1      33.385  12.544  10.047  0.00  0.00    +0.069 C 
ATOM      9  S   UNL     1      34.857  12.759   9.006  0.00  0.00    -0.161 S 
ATOM     10  C   UNL     1      35.718  14.034   9.963  0.00  0.00    +0.069 C 
ATOM     11  C   UNL     1      34.816  15.228  10.235  0.00  0.00    +0.017 C 
ATOM     12  C   UNL     1      33.924  14.389  12.513  0.00  0.00    +0.026 C 
ATOM     13  C   UNL     1      34.618  15.445  13.372  0.00  0.00    +0.108 C 
ENDROOT
BRANCH   1  17
ATOM     14  C   UNL     1      31.592  21.020  14.526  0.00  0.00    +0.037 A 
ATOM     15  C   UNL     1      32.973  21.002  14.721  0.00  0.00    +0.014 A 
ATOM     16  C   UNL     1      33.624  19.786  14.891  0.00  0.00    +0.014 A 
ATOM     17  C   UNL     1      32.926  18.579  14.756  0.00  0.00    +0.037 A 
ATOM     18  C   UNL     1      31.534  18.597  14.628  0.00  0.00    +0.014 A 
ATOM     19  C   UNL     1      30.866  19.821  14.525  0.00  0.00    +0.014 A 
BRANCH  14  21
ATOM     20  N   UNL     1      30.881  23.170  15.404  0.00  0.00    -0.325 N 
ATOM     21  C   UNL     1      30.886  22.309  14.339  0.00  0.00    +0.242 C 
ATOM     22  O   UNL     1      30.359  22.601  13.273  0.00  0.00    -0.270 OA
ATOM     23  H   UNL     1      30.476  24.085  15.224  0.00  0.00    +0.145 HD
ATOM     24  H   UNL     1      31.520  23.084  16.176  0.00  0.00    +0.145 HD
ENDBRANCH  14  21
ENDBRANCH   1  17
TORSDOF 2
ENDMDL
MODEL 2
REMARK VINA RESULT:      -6.1      2.298      3.121
REMARK  Name = ZINC000870248439
REMARK  2 active torsions:
REMARK  status: ('A' for Active; 'I' for Inactive)
REMARK    1  A    between atoms: C_2  and  C_4
REMARK    2  A    between atoms: C_7  and  C_8
REMARK                            x       y       z     vdW  Elec       q    Type
REMARK                         _______ _______ _______ _____ _____    ______ ____
ROOT
ATOM      1  C   UNL     1      33.128  18.071  12.856  0.00  0.00    +0.247 C 
ATOM      2  O   UNL     1      33.186  18.450  11.686  0.00  0.00    -0.270 OA
ATOM      3  N   UNL     1      33.600  16.823  13.282  0.00  0.00    -0.297 N 
ATOM      4  C   UNL     1      33.574  16.323  14.654  0.00  0.00    +0.108 C 
ATOM      5  C   UNL     1      34.862  15.643  15.074  0.00  0.00    +0.026 C 
ATOM      6  C   UNL     1      35.312  14.560  14.079  0.00  0.00    -0.025 C 
ATOM      7  C   UNL     1      36.732  14.112  14.495  0.00  0.00    +0.017 C 
ATOM      8  C   UNL     1      37.316  12.991  13.644  0.00  0.00    +0.069 C 
ATOM      9  S   UNL     1      36.304  11.485  13.689  0.00  0.00    -0.161 S 
ATOM     10  C   UNL     1      34.692  12.193  13.260  0.00  0.00    +0.069 C 
ATOM     11  C   UNL     1      34.337  13.358  14.172  0.00  0.00    +0.017 C 
ATOM     12  C   UNL     1      35.339  15.205  12.665  0.00  0.00    +0.026 C 
ATOM     13  C   UNL     1      34.011  15.851  12.275  0.00  0.00    +0.108 C 
ENDROOT
BRANCH   1  17
ATOM     14  C   UNL     1      31.462  21.003  15.477  0.00  0.00    +0.037 A 
ATOM     15  C   UNL     1      32.839  20.989  15.251  0.00  0.00    +0.014 A 
ATOM     16  C   UNL     1      33.398  19.968  14.494  0.00  0.00    +0.014 A 
ATOM     17  C   UNL     1      32.583  19.020  13.863  0.00  0.00    +0.037 A 
ATOM     18  C   UNL     1      31.213  18.993  14.142  0.00  0.00    +0.014 A 
ATOM     19  C   UNL     1      30.655  19.980  14.961  0.00  0.00    +0.014 A 
BRANCH  14  21
ATOM     20  N   UNL     1      30.888  23.348  15.740  0.00  0.00    -0.325 N 
ATOM     21  C   UNL     1      30.852  22.089  16.279  0.00  0.00    +0.242 C 
ATOM     22  O   UNL     1      30.316  21.864  17.357  0.00  0.00    -0.270 OA
ATOM     23  H   UNL     1      30.381  24.060  16.260  0.00  0.00    +0.145 HD
ATOM     24  H   UNL     1      31.066  23.517  14.765  0.00  0.00    +0.145 HD
ENDBRANCH  14  21
ENDBRANCH   1  17
TORSDOF 2
ENDMDL
MODEL 3
REMARK VINA RESULT:      -6.1      5.048      6.239
REMARK  Name = ZINC000870248439
REMARK  2 active torsions:
REMARK  status: ('A' for Active; 'I' for Inactive)
REMARK    1  A    between atoms: C_2  and  C_4
REMARK    2  A    between atoms: C_7  and  C_8
REMARK                            x       y       z     vdW  Elec       q    Type
REMARK                         _______ _______ _______ _____ _____    ______ ____
ROOT
ATOM      1  C   UNL     1      33.016  19.974  12.044  0.00  0.00    +0.247 C 
ATOM      2  O   UNL     1      32.905  18.779  11.770  0.00  0.00    -0.270 OA
ATOM      3  N   UNL     1      33.569  20.914  11.164  0.00  0.00    -0.297 N 
ATOM      4  C   UNL     1      33.714  22.344  11.423  0.00  0.00    +0.108 C 
ATOM      5  C   UNL     1      33.320  23.214  10.247  0.00  0.00    +0.026 C 
ATOM      6  C   UNL     1      34.016  22.797   8.941  0.00  0.00    -0.025 C 
ATOM      7  C   UNL     1      33.365  23.601   7.792  0.00  0.00    +0.017 C 
ATOM      8  C   UNL     1      33.977  23.353   6.420  0.00  0.00    +0.069 C 
ATOM      9  S   UNL     1      35.743  23.772   6.360  0.00  0.00    -0.161 S 
ATOM     10  C   UNL     1      36.325  22.823   7.790  0.00  0.00    +0.069 C 
ATOM     11  C   UNL     1      35.522  23.153   9.039  0.00  0.00    +0.017 C 
ATOM     12  C   UNL     1      33.769  21.274   8.745  0.00  0.00    +0.026 C 
ATOM     13  C   UNL     1      34.209  20.436   9.944  0.00  0.00    +0.108 C 
ENDROOT
BRANCH   1  17
ATOM     14  C   UNL     1      31.473  21.629  15.666  0.00  0.00    +0.037 A 
ATOM     15  C   UNL     1      32.837  21.349  15.567  0.00  0.00    +0.014 A 
ATOM     16  C   UNL     1      33.323  20.703  14.437  0.00  0.00    +0.014 A 
ATOM     17  C   UNL     1      32.479  20.436  13.351  0.00  0.00    +0.037 A 
ATOM     18  C   UNL     1      31.104  20.655  13.475  0.00  0.00    +0.014 A 
ATOM     19  C   UNL     1      30.600  21.242  14.640  0.00  0.00    +0.014 A 
BRANCH  14  21
ATOM     20  N   UNL     1      31.695  23.351  17.364  0.00  0.00    -0.325 N 
ATOM     21  C   UNL     1      30.943  22.322  16.863  0.00  0.00    +0.242 C 
ATOM     22  O   UNL     1      29.870  22.006  17.361  0.00  0.00    -0.270 OA
ATOM     23  H   UNL     1      31.268  23.874  18.125  0.00  0.00    +0.145 HD
ATOM     24  H   UNL     1      32.419  23.804  16.833  0.00  0.00    +0.145 HD
ENDBRANCH  14  21
ENDBRANCH   1  17
TORSDOF 2
ENDMDL
MODEL 4
REMARK VINA RESULT:      -6.0      3.108      4.627
REMARK  Name = ZINC000870248439
REMARK  2 active torsions:
REMARK  status: ('A' for Active; 'I' for Inactive)
REMARK    1  A    between atoms: C_2  and  C_4
REMARK    2  A    between atoms: C_7  and  C_8
REMARK                            x       y       z     vdW  Elec       q    Type
REMARK                         _______ _______ _______ _____ _____    ______ ____
ROOT
ATOM      1  C   UNL     1      32.271  21.778  13.896  0.00  0.00    +0.247 C 
ATOM      2  O   UNL     1      31.864  22.467  12.960  0.00  0.00    -0.270 OA
ATOM      3  N   UNL     1      32.464  20.393  13.801  0.00  0.00    -0.297 N 
ATOM      4  C   UNL     1      32.957  19.525  14.867  0.00  0.00    +0.108 C 
ATOM      5  C   UNL     1      33.990  18.520  14.399  0.00  0.00    +0.026 C 
ATOM      6  C   UNL     1      33.521  17.714  13.175  0.00  0.00    -0.025 C 
ATOM      7  C   UNL     1      34.733  16.902  12.664  0.00  0.00    +0.017 C 
ATOM      8  C   UNL     1      34.432  15.993  11.480  0.00  0.00    +0.069 C 
ATOM      9  S   UNL     1      33.152  14.761  11.857  0.00  0.00    -0.161 S 
ATOM     10  C   UNL     1      31.861  15.857  12.501  0.00  0.00    +0.069 C 
ATOM     11  C   UNL     1      32.393  16.746  13.615  0.00  0.00    +0.017 C 
ATOM     12  C   UNL     1      33.054  18.730  12.095  0.00  0.00    +0.026 C 
ATOM     13  C   UNL     1      31.993  19.703  12.606  0.00  0.00    +0.108 C 
ENDROOT
BRANCH   1  17
ATOM     14  C   UNL     1      33.112  24.054  17.410  0.00  0.00    +0.037 A 
ATOM     15  C   UNL     1      34.082  23.951  16.412  0.00  0.00    +0.014 A 
ATOM     16  C   UNL     1      33.858  23.118  15.323  0.00  0.00    +0.014 A 
ATOM     17  C   UNL     1      32.625  22.472  15.162  0.00  0.00    +0.037 A 
ATOM     18  C   UNL     1      31.680  22.521  16.191  0.00  0.00    +0.014 A 
ATOM     19  C   UNL     1      31.931  23.305  17.322  0.00  0.00    +0.014 A 
BRANCH  14  21
ATOM     20  N   UNL     1      32.231  25.555  19.105  0.00  0.00    -0.325 N 
ATOM     21  C   UNL     1      33.336  24.943  18.573  0.00  0.00    +0.242 C 
ATOM     22  O   UNL     1      34.451  25.098  19.054  0.00  0.00    -0.270 OA
ATOM     23  H   UNL     1      32.392  26.082  19.959  0.00  0.00    +0.145 HD
ATOM     24  H   UNL     1      31.294  25.242  18.916  0.00  0.00    +0.145 HD
ENDBRANCH  14  21
ENDBRANCH   1  17
TORSDOF 2
ENDMDL
MODEL 5
REMARK VINA RESULT:      -6.0      1.926      2.479
REMARK  Name = ZINC000870248439
REMARK  2 active torsions:
REMARK  status: ('A' for Active; 'I' for Inactive)
REMARK    1  A    between atoms: C_2  and  C_4
REMARK    2  A    between atoms: C_7  and  C_8
REMARK                            x       y       z     vdW  Elec       q    Type
REMARK                         _______ _______ _______ _____ _____    ______ ____
ROOT
ATOM      1  C   UNL     1      33.140  19.000  11.936  0.00  0.00    +0.247 C 
ATOM      2  O   UNL     1      33.565  19.741  11.050  0.00  0.00    -0.270 OA
ATOM      3  N   UNL     1      33.245  17.603  11.882  0.00  0.00    -0.297 N 
ATOM      4  C   UNL     1      32.777  16.672  12.906  0.00  0.00    +0.108 C 
ATOM      5  C   UNL     1      33.763  15.563  13.211  0.00  0.00    +0.026 C 
ATOM      6  C   UNL     1      34.240  14.830  11.945  0.00  0.00    -0.025 C 
ATOM      7  C   UNL     1      35.397  13.893  12.363  0.00  0.00    +0.017 C 
ATOM      8  C   UNL     1      35.957  13.038  11.233  0.00  0.00    +0.069 C 
ATOM      9  S   UNL     1      34.702  11.954  10.494  0.00  0.00    -0.161 S 
ATOM     10  C   UNL     1      33.416  13.180  10.141  0.00  0.00    +0.069 C 
ATOM     11  C   UNL     1      33.066  13.990  11.380  0.00  0.00    +0.017 C 
ATOM     12  C   UNL     1      34.748  15.905  10.944  0.00  0.00    +0.026 C 
ATOM     13  C   UNL     1      33.709  16.985  10.646  0.00  0.00    +0.108 C 
ENDROOT
BRANCH   1  17
ATOM     14  C   UNL     1      31.424  21.128  15.217  0.00  0.00    +0.037 A 
ATOM     15  C   UNL     1      32.798  20.884  15.202  0.00  0.00    +0.014 A 
ATOM     16  C   UNL     1      33.342  20.093  14.198  0.00  0.00    +0.014 A 
ATOM     17  C   UNL     1      32.545  19.634  13.142  0.00  0.00    +0.037 A 
ATOM     18  C   UNL     1      31.160  19.821  13.191  0.00  0.00    +0.014 A 
ATOM     19  C   UNL     1      30.599  20.559  14.238  0.00  0.00    +0.014 A 
BRANCH  14  21
ATOM     20  N   UNL     1      30.867  23.329  16.080  0.00  0.00    -0.325 N 
ATOM     21  C   UNL     1      30.832  21.973  16.279  0.00  0.00    +0.242 C 
ATOM     22  O   UNL     1      30.310  21.482  17.272  0.00  0.00    -0.270 OA
ATOM     23  H   UNL     1      30.372  23.885  16.772  0.00  0.00    +0.145 HD
ATOM     24  H   UNL     1      31.032  23.741  15.178  0.00  0.00    +0.145 HD
ENDBRANCH  14  21
ENDBRANCH   1  17
TORSDOF 2
ENDMDL
MODEL 6
REMARK VINA RESULT:      -6.0      4.479      8.631
REMARK  Name = ZINC000870248439
REMARK  2 active torsions:
REMARK  status: ('A' for Active; 'I' for Inactive)
REMARK    1  A    between atoms: C_2  and  C_4
REMARK    2  A    between atoms: C_7  and  C_8
REMARK                            x       y       z     vdW  Elec       q    Type
REMARK                         _______ _______ _______ _____ _____    ______ ____
ROOT
ATOM      1  C   UNL     1      31.294  21.142  14.692  0.00  0.00    +0.247 C 
ATOM      2  O   UNL     1      30.106  21.451  14.775  0.00  0.00    -0.270 OA
ATOM      3  N   UNL     1      32.322  21.885  15.289  0.00  0.00    -0.297 N 
ATOM      4  C   UNL     1      33.746  21.563  15.241  0.00  0.00    +0.108 C 
ATOM      5  C   UNL     1      34.447  21.724  16.574  0.00  0.00    +0.026 C 
ATOM      6  C   UNL     1      34.193  23.099  17.216  0.00  0.00    -0.025 C 
ATOM      7  C   UNL     1      34.763  23.051  18.652  0.00  0.00    +0.017 C 
ATOM      8  C   UNL     1      34.648  24.360  19.422  0.00  0.00    +0.069 C 
ATOM      9  S   UNL     1      35.520  25.727  18.603  0.00  0.00    -0.161 S 
ATOM     10  C   UNL     1      34.800  25.592  16.946  0.00  0.00    +0.069 C 
ATOM     11  C   UNL     1      34.939  24.181  16.394  0.00  0.00    +0.017 C 
ATOM     12  C   UNL     1      32.655  23.322  17.250  0.00  0.00    +0.026 C 
ATOM     13  C   UNL     1      31.998  23.179  15.878  0.00  0.00    +0.108 C 
ENDROOT
BRANCH   1  17
ATOM     14  C   UNL     1      32.548  17.503  12.843  0.00  0.00    +0.037 A 
ATOM     15  C   UNL     1      32.865  18.721  12.242  0.00  0.00    +0.014 A 
ATOM     16  C   UNL     1      32.361  19.900  12.776  0.00  0.00    +0.014 A 
ATOM     17  C   UNL     1      31.633  19.886  13.973  0.00  0.00    +0.037 A 
ATOM     18  C   UNL     1      31.259  18.663  14.539  0.00  0.00    +0.014 A 
ATOM     19  C   UNL     1      31.708  17.470  13.964  0.00  0.00    +0.014 A 
BRANCH  14  21
ATOM     20  N   UNL     1      32.178  15.384  11.714  0.00  0.00    -0.325 N 
ATOM     21  C   UNL     1      33.083  16.239  12.286  0.00  0.00    +0.242 C 
ATOM     22  O   UNL     1      34.281  15.986  12.311  0.00  0.00    -0.270 OA
ATOM     23  H   UNL     1      32.576  14.570  11.254  0.00  0.00    +0.145 HD
ATOM     24  H   UNL     1      31.256  15.675  11.436  0.00  0.00    +0.145 HD
ENDBRANCH  14  21
ENDBRANCH   1  17
TORSDOF 2
ENDMDL
MODEL 7
REMARK VINA RESULT:      -5.9      3.829      8.042
REMARK  Name = ZINC000870248439
REMARK  2 active torsions:
REMARK  status: ('A' for Active; 'I' for Inactive)
REMARK    1  A    between atoms: C_2  and  C_4
REMARK    2  A    between atoms: C_7  and  C_8
REMARK                            x       y       z     vdW  Elec       q    Type
REMARK                         _______ _______ _______ _____ _____    ______ ____
ROOT
ATOM      1  C   UNL     1      33.623  17.430  10.762  0.00  0.00    +0.247 C 
ATOM      2  O   UNL     1      33.948  17.993   9.716  0.00  0.00    -0.270 OA
ATOM      3  N   UNL     1      33.300  18.123  11.936  0.00  0.00    -0.297 N 
ATOM      4  C   UNL     1      32.894  17.516  13.201  0.00  0.00    +0.108 C 
ATOM      5  C   UNL     1      31.722  18.216  13.858  0.00  0.00    +0.026 C 
ATOM      6  C   UNL     1      31.938  19.733  13.995  0.00  0.00    -0.025 C 
ATOM      7  C   UNL     1      30.599  20.350  14.461  0.00  0.00    +0.017 C 
ATOM      8  C   UNL     1      30.647  21.853  14.706  0.00  0.00    +0.069 C 
ATOM      9  S   UNL     1      31.857  22.312  15.979  0.00  0.00    -0.161 S 
ATOM     10  C   UNL     1      33.317  21.460  15.326  0.00  0.00    +0.069 C 
ATOM     11  C   UNL     1      33.031  19.989  15.065  0.00  0.00    +0.017 C 
ATOM     12  C   UNL     1      32.329  20.279  12.593  0.00  0.00    +0.026 C 
ATOM     13  C   UNL     1      33.533  19.562  11.984  0.00  0.00    +0.108 C 
ENDROOT
BRANCH   1  17
ATOM     14  C   UNL     1      33.388  13.185  10.364  0.00  0.00    +0.037 A 
ATOM     15  C   UNL     1      32.213  13.937  10.378  0.00  0.00    +0.014 A 
ATOM     16  C   UNL     1      32.278  15.303  10.624  0.00  0.00    +0.014 A 
ATOM     17  C   UNL     1      33.516  15.948  10.744  0.00  0.00    +0.037 A 
ATOM     18  C   UNL     1      34.688  15.187  10.797  0.00  0.00    +0.014 A 
ATOM     19  C   UNL     1      34.621  13.801  10.618  0.00  0.00    +0.014 A 
BRANCH  14  21
ATOM     20  N   UNL     1      33.301  11.342   8.784  0.00  0.00    -0.325 N 
ATOM     21  C   UNL     1      33.334  11.729  10.098  0.00  0.00    +0.242 C 
ATOM     22  O   UNL     1      33.347  10.911  11.009  0.00  0.00    -0.270 OA
ATOM     23  H   UNL     1      33.361  10.340   8.622  0.00  0.00    +0.145 HD
ATOM     24  H   UNL     1      33.561  11.956   8.030  0.00  0.00    +0.145 HD
ENDBRANCH  14  21
ENDBRANCH   1  17
TORSDOF 2
ENDMDL
MODEL 8
REMARK VINA RESULT:      -5.9      7.454     11.237
REMARK  Name = ZINC000870248439
REMARK  2 active torsions:
REMARK  status: ('A' for Active; 'I' for Inactive)
REMARK    1  A    between atoms: C_2  and  C_4
REMARK    2  A    between atoms: C_7  and  C_8
REMARK                            x       y       z     vdW  Elec       q    Type
REMARK                         _______ _______ _______ _____ _____    ______ ____
ROOT
ATOM      1  C   UNL     1      34.226  23.175  18.230  0.00  0.00    +0.247 C 
ATOM      2  O   UNL     1      34.776  22.162  18.662  0.00  0.00    -0.270 OA
ATOM      3  N   UNL     1      34.453  24.454  18.755  0.00  0.00    -0.297 N 
ATOM      4  C   UNL     1      33.845  25.694  18.277  0.00  0.00    +0.108 C 
ATOM      5  C   UNL     1      34.825  26.844  18.165  0.00  0.00    +0.026 C 
ATOM      6  C   UNL     1      35.632  27.063  19.457  0.00  0.00    -0.025 C 
ATOM      7  C   UNL     1      36.737  28.096  19.141  0.00  0.00    +0.017 C 
ATOM      8  C   UNL     1      37.605  28.479  20.333  0.00  0.00    +0.069 C 
ATOM      9  S   UNL     1      36.641  29.206  21.689  0.00  0.00    -0.161 S 
ATOM     10  C   UNL     1      35.371  27.926  21.874  0.00  0.00    +0.069 C 
ATOM     11  C   UNL     1      34.687  27.627  20.549  0.00  0.00    +0.017 C 
ATOM     12  C   UNL     1      36.261  25.698  19.853  0.00  0.00    +0.026 C 
ATOM     13  C   UNL     1      35.231  24.577  19.982  0.00  0.00    +0.108 C 
ENDROOT
BRANCH   1  17
ATOM     14  C   UNL     1      31.652  22.393  14.913  0.00  0.00    +0.037 A 
ATOM     15  C   UNL     1      33.007  22.638  14.685  0.00  0.00    +0.014 A 
ATOM     16  C   UNL     1      33.823  23.007  15.747  0.00  0.00    +0.014 A 
ATOM     17  C   UNL     1      33.325  23.025  17.056  0.00  0.00    +0.037 A 
ATOM     18  C   UNL     1      31.956  22.845  17.276  0.00  0.00    +0.014 A 
ATOM     19  C   UNL     1      31.117  22.541  16.199  0.00  0.00    +0.014 A 
BRANCH  14  21
ATOM     20  N   UNL     1      30.555  20.650  13.624  0.00  0.00    -0.325 N 
ATOM     21  C   UNL     1      30.772  21.993  13.790  0.00  0.00    +0.242 C 
ATOM     22  O   UNL     1      30.241  22.825  13.066  0.00  0.00    -0.270 OA
ATOM     23  H   UNL     1      29.874  20.403  12.910  0.00  0.00    +0.145 HD
ATOM     24  H   UNL     1      30.745  19.976  14.345  0.00  0.00    +0.145 HD
ENDBRANCH  14  21
ENDBRANCH   1  17
TORSDOF 2
ENDMDL
MODEL 9
REMARK VINA RESULT:      -5.9      4.008      5.956
REMARK  Name = ZINC000870248439
REMARK  2 active torsions:
REMARK  status: ('A' for Active; 'I' for Inactive)
REMARK    1  A    between atoms: C_2  and  C_4
REMARK    2  A    between atoms: C_7  and  C_8
REMARK                            x       y       z     vdW  Elec       q    Type
REMARK                         _______ _______ _______ _____ _____    ______ ____
ROOT
ATOM      1  C   UNL     1      32.220  22.670  15.579  0.00  0.00    +0.247 C 
ATOM      2  O   UNL     1      31.098  23.104  15.317  0.00  0.00    -0.270 OA
ATOM      3  N   UNL     1      32.634  21.372  15.251  0.00  0.00    -0.297 N 
ATOM      4  C   UNL     1      33.953  20.803  15.519  0.00  0.00    +0.108 C 
ATOM      5  C   UNL     1      34.521  20.019  14.354  0.00  0.00    +0.026 C 
ATOM      6  C   UNL     1      33.541  18.962  13.816  0.00  0.00    -0.025 C 
ATOM      7  C   UNL     1      34.140  18.400  12.507  0.00  0.00    +0.017 C 
ATOM      8  C   UNL     1      33.320  17.289  11.863  0.00  0.00    +0.069 C 
ATOM      9  S   UNL     1      33.117  15.853  12.954  0.00  0.00    -0.161 S 
ATOM     10  C   UNL     1      32.491  16.688  14.435  0.00  0.00    +0.069 C 
ATOM     11  C   UNL     1      33.409  17.824  14.861  0.00  0.00    +0.017 C 
ATOM     12  C   UNL     1      32.190  19.677  13.532  0.00  0.00    +0.026 C 
ATOM     13  C   UNL     1      31.643  20.430  14.744  0.00  0.00    +0.108 C 
ENDROOT
BRANCH   1  17
ATOM     14  C   UNL     1      34.799  25.604  17.304  0.00  0.00    +0.037 A 
ATOM     15  C   UNL     1      35.134  25.035  16.075  0.00  0.00    +0.014 A 
ATOM     16  C   UNL     1      34.362  23.998  15.566  0.00  0.00    +0.014 A 
ATOM     17  C   UNL     1      33.188  23.598  16.219  0.00  0.00    +0.037 A 
ATOM     18  C   UNL     1      32.888  24.120  17.481  0.00  0.00    +0.014 A 
ATOM     19  C   UNL     1      33.703  25.116  18.028  0.00  0.00    +0.014 A 
BRANCH  14  21
ATOM     20  N   UNL     1      35.460  27.941  17.265  0.00  0.00    -0.325 N 
ATOM     21  C   UNL     1      35.612  26.713  17.854  0.00  0.00    +0.242 C 
ATOM     22  O   UNL     1      36.360  26.545  18.809  0.00  0.00    -0.270 OA
ATOM     23  H   UNL     1      35.952  28.706  17.718  0.00  0.00    +0.145 HD
ATOM     24  H   UNL     1      34.674  28.169  16.680  0.00  0.00    +0.145 HD
ENDBRANCH  14  21
ENDBRANCH   1  17
TORSDOF 2
ENDMDL
