MODEL 1
REMARK VINA RESULT:      -6.4      0.000      0.000
REMARK  Name = ZINC000826139982
REMARK  4 active torsions:
REMARK  status: ('A' for Active; 'I' for Inactive)
REMARK    1  A    between atoms: C_2  and  C_4
REMARK    2  A    between atoms: C_8  and  C_10
REMARK    3  A    between atoms: C_14  and  S_15
REMARK    4  A    between atoms: S_15  and  C_16
REMARK                            x       y       z     vdW  Elec       q    Type
REMARK                         _______ _______ _______ _____ _____    ______ ____
ROOT
ATOM      1  C   UNL     1      36.506  26.119  10.430  0.00  0.00    +0.093 C 
ATOM      2  C   UNL     1      36.882  25.390   9.135  0.00  0.00    +0.033 C 
ATOM      3  C   UNL     1      35.585  24.774   8.628  0.00  0.00    +0.109 C 
ATOM      4  N   UNL     1      34.795  24.573   9.825  0.00  0.00    -0.297 N 
ATOM      5  C   UNL     1      33.810  23.594   9.891  0.00  0.00    +0.247 C 
ATOM      6  O   UNL     1      33.628  22.804   8.965  0.00  0.00    -0.270 OA
ATOM      7  C   UNL     1      35.116  25.611  10.791  0.00  0.00    +0.120 C 
ENDROOT
BRANCH   5   8
ATOM      8  C   UNL     1      32.981  23.418  11.128  0.00  0.00    +0.038 A 
ATOM      9  C   UNL     1      31.732  24.017  11.312  0.00  0.00    +0.013 A 
ATOM     10  C   UNL     1      31.060  23.921  12.530  0.00  0.00    +0.002 A 
ATOM     11  C   UNL     1      31.583  23.132  13.549  0.00  0.00    +0.015 A 
ATOM     12  C   UNL     1      32.762  22.410  13.342  0.00  0.00    +0.017 A 
ATOM     13  C   UNL     1      33.475  22.585  12.147  0.00  0.00    +0.028 A 
BRANCH  12  14
ATOM     14  S   UNL     1      33.385  21.307  14.593  0.00  0.00    -0.016 S 
BRANCH  14  15
ATOM     15  C   UNL     1      32.141  19.999  14.559  0.00  0.00    +0.448 C 
ATOM     16  F   UNL     1      32.608  18.783  14.926  0.00  0.00    -0.160 F 
ATOM     17  F   UNL     1      31.108  20.294  15.385  0.00  0.00    -0.160 F 
ATOM     18  F   UNL     1      31.627  19.864  13.311  0.00  0.00    -0.160 F 
ENDBRANCH  14  15
ENDBRANCH  12  14
ENDBRANCH   5   8
BRANCH   1  20
ATOM     19  N   UNL     1      36.110  28.292  11.442  0.00  0.00    -0.329 N 
ATOM     20  C   UNL     1      36.554  27.633  10.334  0.00  0.00    +0.215 C 
ATOM     21  O   UNL     1      36.894  28.258   9.341  0.00  0.00    -0.276 OA
ATOM     22  H   UNL     1      36.059  29.302  11.394  0.00  0.00    +0.145 HD
ATOM     23  H   UNL     1      35.751  27.825  12.262  0.00  0.00    +0.145 HD
ENDBRANCH   1  20
TORSDOF 4
ENDMDL
MODEL 2
REMARK VINA RESULT:      -6.4      4.645      6.924
REMARK  Name = ZINC000826139982
REMARK  4 active torsions:
REMARK  status: ('A' for Active; 'I' for Inactive)
REMARK    1  A    between atoms: C_2  and  C_4
REMARK    2  A    between atoms: C_8  and  C_10
REMARK    3  A    between atoms: C_14  and  S_15
REMARK    4  A    between atoms: S_15  and  C_16
REMARK                            x       y       z     vdW  Elec       q    Type
REMARK                         _______ _______ _______ _____ _____    ______ ____
ROOT
ATOM      1  C   UNL     1      31.562  20.752  14.955  0.00  0.00    +0.093 C 
ATOM      2  C   UNL     1      32.834  20.129  15.540  0.00  0.00    +0.033 C 
ATOM      3  C   UNL     1      33.971  21.038  15.093  0.00  0.00    +0.109 C 
ATOM      4  N   UNL     1      33.490  21.630  13.862  0.00  0.00    -0.297 N 
ATOM      5  C   UNL     1      34.366  22.084  12.883  0.00  0.00    +0.247 C 
ATOM      6  O   UNL     1      35.582  21.927  12.986  0.00  0.00    -0.270 OA
ATOM      7  C   UNL     1      32.045  21.770  13.930  0.00  0.00    +0.120 C 
ENDROOT
BRANCH   5   8
ATOM      8  C   UNL     1      33.852  22.721  11.626  0.00  0.00    +0.038 A 
ATOM      9  C   UNL     1      32.787  23.627  11.599  0.00  0.00    +0.013 A 
ATOM     10  C   UNL     1      32.270  24.092  10.390  0.00  0.00    +0.002 A 
ATOM     11  C   UNL     1      32.882  23.738   9.193  0.00  0.00    +0.015 A 
ATOM     12  C   UNL     1      34.033  22.945   9.201  0.00  0.00    +0.017 A 
ATOM     13  C   UNL     1      34.492  22.410  10.413  0.00  0.00    +0.028 A 
BRANCH  12  14
ATOM     14  S   UNL     1      34.895  22.576   7.687  0.00  0.00    -0.016 S 
BRANCH  14  15
ATOM     15  C   UNL     1      34.314  20.900   7.352  0.00  0.00    +0.448 C 
ATOM     16  F   UNL     1      34.554  20.474   6.090  0.00  0.00    -0.160 F 
ATOM     17  F   UNL     1      34.901  20.010   8.189  0.00  0.00    -0.160 F 
ATOM     18  F   UNL     1      32.976  20.811   7.551  0.00  0.00    -0.160 F 
ENDBRANCH  14  15
ENDBRANCH  12  14
ENDBRANCH   5   8
BRANCH   1  20
ATOM     19  N   UNL     1      30.832  22.707  16.199  0.00  0.00    -0.329 N 
ATOM     20  C   UNL     1      30.638  21.374  15.986  0.00  0.00    +0.215 C 
ATOM     21  O   UNL     1      29.813  20.759  16.645  0.00  0.00    -0.276 OA
ATOM     22  H   UNL     1      30.284  23.147  16.929  0.00  0.00    +0.145 HD
ATOM     23  H   UNL     1      31.547  23.248  15.735  0.00  0.00    +0.145 HD
ENDBRANCH   1  20
TORSDOF 4
ENDMDL
MODEL 3
REMARK VINA RESULT:      -5.8     22.203     24.423
REMARK  Name = ZINC000826139982
REMARK  4 active torsions:
REMARK  status: ('A' for Active; 'I' for Inactive)
REMARK    1  A    between atoms: C_2  and  C_4
REMARK    2  A    between atoms: C_8  and  C_10
REMARK    3  A    between atoms: C_14  and  S_15
REMARK    4  A    between atoms: S_15  and  C_16
REMARK                            x       y       z     vdW  Elec       q    Type
REMARK                         _______ _______ _______ _____ _____    ______ ____
ROOT
ATOM      1  C   UNL     1      19.292   3.975   0.278  0.00  0.00    +0.093 C 
ATOM      2  C   UNL     1      19.586   3.130   1.522  0.00  0.00    +0.033 C 
ATOM      3  C   UNL     1      19.992   4.125   2.601  0.00  0.00    +0.109 C 
ATOM      4  N   UNL     1      20.543   5.243   1.863  0.00  0.00    -0.297 N 
ATOM      5  C   UNL     1      21.477   6.100   2.433  0.00  0.00    +0.247 C 
ATOM      6  O   UNL     1      21.935   5.895   3.557  0.00  0.00    -0.270 OA
ATOM      7  C   UNL     1      19.864   5.354   0.582  0.00  0.00    +0.120 C 
ENDROOT
BRANCH   5   8
ATOM      8  C   UNL     1      22.017   7.270   1.665  0.00  0.00    +0.038 A 
ATOM      9  C   UNL     1      23.236   7.247   0.981  0.00  0.00    +0.013 A 
ATOM     10  C   UNL     1      23.749   8.400   0.388  0.00  0.00    +0.002 A 
ATOM     11  C   UNL     1      22.996   9.569   0.381  0.00  0.00    +0.015 A 
ATOM     12  C   UNL     1      21.714   9.580   0.936  0.00  0.00    +0.017 A 
ATOM     13  C   UNL     1      21.244   8.442   1.608  0.00  0.00    +0.028 A 
BRANCH  12  14
ATOM     14  S   UNL     1      20.691  11.035   0.835  0.00  0.00    -0.016 S 
BRANCH  14  15
ATOM     15  C   UNL     1      20.094  11.163   2.534  0.00  0.00    +0.448 C 
ATOM     16  F   UNL     1      21.065  11.042   3.470  0.00  0.00    -0.160 F 
ATOM     17  F   UNL     1      19.487  12.355   2.744  0.00  0.00    -0.160 F 
ATOM     18  F   UNL     1      19.177  10.198   2.791  0.00  0.00    -0.160 F 
ENDBRANCH  14  15
ENDBRANCH  12  14
ENDBRANCH   5   8
BRANCH   1  20
ATOM     19  N   UNL     1      17.403   5.251  -0.563  0.00  0.00    -0.329 N 
ATOM     20  C   UNL     1      17.825   4.037  -0.105  0.00  0.00    +0.215 C 
ATOM     21  O   UNL     1      17.029   3.120   0.029  0.00  0.00    -0.276 OA
ATOM     22  H   UNL     1      16.416   5.356  -0.764  0.00  0.00    +0.145 HD
ATOM     23  H   UNL     1      18.001   6.062  -0.625  0.00  0.00    +0.145 HD
ENDBRANCH   1  20
TORSDOF 4
ENDMDL
MODEL 4
REMARK VINA RESULT:      -5.8      2.408      3.807
REMARK  Name = ZINC000826139982
REMARK  4 active torsions:
REMARK  status: ('A' for Active; 'I' for Inactive)
REMARK    1  A    between atoms: C_2  and  C_4
REMARK    2  A    between atoms: C_8  and  C_10
REMARK    3  A    between atoms: C_14  and  S_15
REMARK    4  A    between atoms: S_15  and  C_16
REMARK                            x       y       z     vdW  Elec       q    Type
REMARK                         _______ _______ _______ _____ _____    ______ ____
ROOT
ATOM      1  C   UNL     1      34.701  22.603   7.548  0.00  0.00    +0.093 C 
ATOM      2  C   UNL     1      35.821  23.643   7.671  0.00  0.00    +0.033 C 
ATOM      3  C   UNL     1      36.145  23.715   9.157  0.00  0.00    +0.109 C 
ATOM      4  N   UNL     1      34.909  23.333   9.809  0.00  0.00    -0.297 N 
ATOM      5  C   UNL     1      34.606  23.757  11.097  0.00  0.00    +0.247 C 
ATOM      6  O   UNL     1      35.335  24.541  11.703  0.00  0.00    -0.270 OA
ATOM      7  C   UNL     1      34.198  22.382   8.969  0.00  0.00    +0.120 C 
ENDROOT
BRANCH   5   8
ATOM      8  C   UNL     1      33.334  23.329  11.768  0.00  0.00    +0.038 A 
ATOM      9  C   UNL     1      32.137  24.047  11.683  0.00  0.00    +0.013 A 
ATOM     10  C   UNL     1      31.020  23.672  12.427  0.00  0.00    +0.002 A 
ATOM     11  C   UNL     1      31.052  22.508  13.187  0.00  0.00    +0.015 A 
ATOM     12  C   UNL     1      32.191  21.697  13.180  0.00  0.00    +0.017 A 
ATOM     13  C   UNL     1      33.339  22.129  12.500  0.00  0.00    +0.028 A 
BRANCH  12  14
ATOM     14  S   UNL     1      32.210  20.147  14.056  0.00  0.00    -0.016 S 
BRANCH  14  15
ATOM     15  C   UNL     1      32.057  20.708  15.765  0.00  0.00    +0.448 C 
ATOM     16  F   UNL     1      30.786  20.715  16.231  0.00  0.00    -0.160 F 
ATOM     17  F   UNL     1      32.781  19.922  16.597  0.00  0.00    -0.160 F 
ATOM     18  F   UNL     1      32.532  21.971  15.896  0.00  0.00    -0.160 F 
ENDBRANCH  14  15
ENDBRANCH  12  14
ENDBRANCH   5   8
BRANCH   1  20
ATOM     19  N   UNL     1      35.463  21.420   5.568  0.00  0.00    -0.329 N 
ATOM     20  C   UNL     1      35.122  21.306   6.883  0.00  0.00    +0.215 C 
ATOM     21  O   UNL     1      35.111  20.210   7.423  0.00  0.00    -0.276 OA
ATOM     22  H   UNL     1      35.683  20.567   5.068  0.00  0.00    +0.145 HD
ATOM     23  H   UNL     1      35.421  22.288   5.054  0.00  0.00    +0.145 HD
ENDBRANCH   1  20
TORSDOF 4
ENDMDL
MODEL 5
REMARK VINA RESULT:      -5.8      2.241      3.224
REMARK  Name = ZINC000826139982
REMARK  4 active torsions:
REMARK  status: ('A' for Active; 'I' for Inactive)
REMARK    1  A    between atoms: C_2  and  C_4
REMARK    2  A    between atoms: C_8  and  C_10
REMARK    3  A    between atoms: C_14  and  S_15
REMARK    4  A    between atoms: S_15  and  C_16
REMARK                            x       y       z     vdW  Elec       q    Type
REMARK                         _______ _______ _______ _____ _____    ______ ____
ROOT
ATOM      1  C   UNL     1      34.481  24.038  10.123  0.00  0.00    +0.093 C 
ATOM      2  C   UNL     1      33.203  23.852   9.298  0.00  0.00    +0.033 C 
ATOM      3  C   UNL     1      32.056  24.048  10.280  0.00  0.00    +0.109 C 
ATOM      4  N   UNL     1      32.615  23.666  11.560  0.00  0.00    -0.297 N 
ATOM      5  C   UNL     1      31.812  23.202  12.595  0.00  0.00    +0.247 C 
ATOM      6  O   UNL     1      30.606  23.017  12.437  0.00  0.00    -0.270 OA
ATOM      7  C   UNL     1      34.033  23.986  11.578  0.00  0.00    +0.120 C 
ENDROOT
BRANCH   5   8
ATOM      8  C   UNL     1      32.404  22.837  13.924  0.00  0.00    +0.038 A 
ATOM      9  C   UNL     1      31.976  23.389  15.136  0.00  0.00    +0.013 A 
ATOM     10  C   UNL     1      32.643  23.108  16.328  0.00  0.00    +0.002 A 
ATOM     11  C   UNL     1      33.683  22.186  16.339  0.00  0.00    +0.015 A 
ATOM     12  C   UNL     1      34.039  21.515  15.165  0.00  0.00    +0.017 A 
ATOM     13  C   UNL     1      33.423  21.870  13.956  0.00  0.00    +0.028 A 
BRANCH  12  14
ATOM     14  S   UNL     1      35.291  20.249  15.184  0.00  0.00    -0.016 S 
BRANCH  14  15
ATOM     15  C   UNL     1      34.346  18.831  15.778  0.00  0.00    +0.448 C 
ATOM     16  F   UNL     1      34.163  18.812  17.119  0.00  0.00    -0.160 F 
ATOM     17  F   UNL     1      33.117  18.798  15.209  0.00  0.00    -0.160 F 
ATOM     18  F   UNL     1      34.968  17.672  15.449  0.00  0.00    -0.160 F 
ENDBRANCH  14  15
ENDBRANCH  12  14
ENDBRANCH   5   8
BRANCH   1  20
ATOM     19  N   UNL     1      35.494  26.112  10.881  0.00  0.00    -0.329 N 
ATOM     20  C   UNL     1      35.252  25.306   9.807  0.00  0.00    +0.215 C 
ATOM     21  O   UNL     1      35.594  25.655   8.687  0.00  0.00    -0.276 OA
ATOM     22  H   UNL     1      35.945  27.001  10.704  0.00  0.00    +0.145 HD
ATOM     23  H   UNL     1      35.171  25.907  11.815  0.00  0.00    +0.145 HD
ENDBRANCH   1  20
TORSDOF 4
ENDMDL
MODEL 6
REMARK VINA RESULT:      -5.8      3.451      4.343
REMARK  Name = ZINC000826139982
REMARK  4 active torsions:
REMARK  status: ('A' for Active; 'I' for Inactive)
REMARK    1  A    between atoms: C_2  and  C_4
REMARK    2  A    between atoms: C_8  and  C_10
REMARK    3  A    between atoms: C_14  and  S_15
REMARK    4  A    between atoms: S_15  and  C_16
REMARK                            x       y       z     vdW  Elec       q    Type
REMARK                         _______ _______ _______ _____ _____    ______ ____
ROOT
ATOM      1  C   UNL     1      34.371  24.032  10.172  0.00  0.00    +0.093 C 
ATOM      2  C   UNL     1      33.055  23.988   9.387  0.00  0.00    +0.033 C 
ATOM      3  C   UNL     1      31.956  24.129  10.431  0.00  0.00    +0.109 C 
ATOM      4  N   UNL     1      32.544  23.592  11.641  0.00  0.00    -0.297 N 
ATOM      5  C   UNL     1      31.760  23.057  12.655  0.00  0.00    +0.247 C 
ATOM      6  O   UNL     1      30.541  22.941  12.531  0.00  0.00    -0.270 OA
ATOM      7  C   UNL     1      33.976  23.848  11.632  0.00  0.00    +0.120 C 
ENDROOT
BRANCH   5   8
ATOM      8  C   UNL     1      32.383  22.531  13.914  0.00  0.00    +0.038 A 
ATOM      9  C   UNL     1      32.716  21.187  14.107  0.00  0.00    +0.013 A 
ATOM     10  C   UNL     1      33.178  20.730  15.341  0.00  0.00    +0.002 A 
ATOM     11  C   UNL     1      33.414  21.635  16.370  0.00  0.00    +0.015 A 
ATOM     12  C   UNL     1      33.221  23.003  16.158  0.00  0.00    +0.017 A 
ATOM     13  C   UNL     1      32.672  23.442  14.945  0.00  0.00    +0.028 A 
BRANCH  12  14
ATOM     14  S   UNL     1      33.625  24.186  17.427  0.00  0.00    -0.016 S 
BRANCH  14  15
ATOM     15  C   UNL     1      35.371  24.488  17.080  0.00  0.00    +0.448 C 
ATOM     16  F   UNL     1      36.220  23.826  17.901  0.00  0.00    -0.160 F 
ATOM     17  F   UNL     1      35.681  24.124  15.812  0.00  0.00    -0.160 F 
ATOM     18  F   UNL     1      35.659  25.808  17.197  0.00  0.00    -0.160 F 
ENDBRANCH  14  15
ENDBRANCH  12  14
ENDBRANCH   5   8
BRANCH   1  20
ATOM     19  N   UNL     1      35.663  25.869  11.097  0.00  0.00    -0.329 N 
ATOM     20  C   UNL     1      35.188  25.293   9.957  0.00  0.00    +0.215 C 
ATOM     21  O   UNL     1      35.379  25.824   8.873  0.00  0.00    -0.276 OA
ATOM     22  H   UNL     1      36.154  26.750  11.004  0.00  0.00    +0.145 HD
ATOM     23  H   UNL     1      35.475  25.513  12.023  0.00  0.00    +0.145 HD
ENDBRANCH   1  20
TORSDOF 4
ENDMDL
MODEL 7
REMARK VINA RESULT:      -5.7      2.147      3.230
REMARK  Name = ZINC000826139982
REMARK  4 active torsions:
REMARK  status: ('A' for Active; 'I' for Inactive)
REMARK    1  A    between atoms: C_2  and  C_4
REMARK    2  A    between atoms: C_8  and  C_10
REMARK    3  A    between atoms: C_14  and  S_15
REMARK    4  A    between atoms: S_15  and  C_16
REMARK                            x       y       z     vdW  Elec       q    Type
REMARK                         _______ _______ _______ _____ _____    ______ ____
ROOT
ATOM      1  C   UNL     1      34.504  24.021  10.276  0.00  0.00    +0.093 C 
ATOM      2  C   UNL     1      33.232  23.962   9.424  0.00  0.00    +0.033 C 
ATOM      3  C   UNL     1      32.079  24.115  10.407  0.00  0.00    +0.109 C 
ATOM      4  N   UNL     1      32.604  23.599  11.654  0.00  0.00    -0.297 N 
ATOM      5  C   UNL     1      31.769  23.076  12.634  0.00  0.00    +0.247 C 
ATOM      6  O   UNL     1      30.558  22.955  12.447  0.00  0.00    -0.270 OA
ATOM      7  C   UNL     1      34.034  23.858  11.716  0.00  0.00    +0.120 C 
ENDROOT
BRANCH   5   8
ATOM      8  C   UNL     1      32.326  22.571  13.931  0.00  0.00    +0.038 A 
ATOM      9  C   UNL     1      32.166  23.235  15.151  0.00  0.00    +0.013 A 
ATOM     10  C   UNL     1      32.809  22.787  16.304  0.00  0.00    +0.002 A 
ATOM     11  C   UNL     1      33.538  21.603  16.274  0.00  0.00    +0.015 A 
ATOM     12  C   UNL     1      33.599  20.846  15.101  0.00  0.00    +0.017 A 
ATOM     13  C   UNL     1      33.024  21.351  13.925  0.00  0.00    +0.028 A 
BRANCH  12  14
ATOM     14  S   UNL     1      34.432  19.272  15.076  0.00  0.00    -0.016 S 
BRANCH  14  15
ATOM     15  C   UNL     1      33.549  18.430  13.745  0.00  0.00    +0.448 C 
ATOM     16  F   UNL     1      33.715  18.997  12.527  0.00  0.00    -0.160 F 
ATOM     17  F   UNL     1      33.951  17.140  13.640  0.00  0.00    -0.160 F 
ATOM     18  F   UNL     1      32.216  18.413  13.993  0.00  0.00    -0.160 F 
ENDBRANCH  14  15
ENDBRANCH  12  14
ENDBRANCH   5   8
BRANCH   1  20
ATOM     19  N   UNL     1      36.130  25.607  11.138  0.00  0.00    -0.329 N 
ATOM     20  C   UNL     1      35.328  25.281  10.085  0.00  0.00    +0.215 C 
ATOM     21  O   UNL     1      35.267  26.013   9.109  0.00  0.00    -0.276 OA
ATOM     22  H   UNL     1      36.645  26.477  11.080  0.00  0.00    +0.145 HD
ATOM     23  H   UNL     1      36.166  25.077  11.997  0.00  0.00    +0.145 HD
ENDBRANCH   1  20
TORSDOF 4
ENDMDL
MODEL 8
REMARK VINA RESULT:      -5.7      2.921      4.695
REMARK  Name = ZINC000826139982
REMARK  4 active torsions:
REMARK  status: ('A' for Active; 'I' for Inactive)
REMARK    1  A    between atoms: C_2  and  C_4
REMARK    2  A    between atoms: C_8  and  C_10
REMARK    3  A    between atoms: C_14  and  S_15
REMARK    4  A    between atoms: S_15  and  C_16
REMARK                            x       y       z     vdW  Elec       q    Type
REMARK                         _______ _______ _______ _____ _____    ______ ____
ROOT
ATOM      1  C   UNL     1      33.171  23.501  10.421  0.00  0.00    +0.093 C 
ATOM      2  C   UNL     1      31.825  24.143  10.774  0.00  0.00    +0.033 C 
ATOM      3  C   UNL     1      31.632  23.887  12.262  0.00  0.00    +0.109 C 
ATOM      4  N   UNL     1      32.384  22.674  12.514  0.00  0.00    -0.297 N 
ATOM      5  C   UNL     1      32.063  21.826  13.567  0.00  0.00    +0.247 C 
ATOM      6  O   UNL     1      31.077  22.027  14.276  0.00  0.00    -0.270 OA
ATOM      7  C   UNL     1      33.524  22.621  11.613  0.00  0.00    +0.120 C 
ENDROOT
BRANCH   5   8
ATOM      8  C   UNL     1      32.868  20.588  13.831  0.00  0.00    +0.038 A 
ATOM      9  C   UNL     1      32.717  19.400  13.110  0.00  0.00    +0.013 A 
ATOM     10  C   UNL     1      33.402  18.244  13.478  0.00  0.00    +0.002 A 
ATOM     11  C   UNL     1      34.332  18.289  14.511  0.00  0.00    +0.015 A 
ATOM     12  C   UNL     1      34.605  19.498  15.157  0.00  0.00    +0.017 A 
ATOM     13  C   UNL     1      33.846  20.634  14.840  0.00  0.00    +0.028 A 
BRANCH  12  14
ATOM     14  S   UNL     1      35.873  19.598  16.403  0.00  0.00    -0.016 S 
BRANCH  14  15
ATOM     15  C   UNL     1      35.019  18.894  17.829  0.00  0.00    +0.448 C 
ATOM     16  F   UNL     1      35.516  19.295  19.023  0.00  0.00    -0.160 F 
ATOM     17  F   UNL     1      33.705  19.222  17.816  0.00  0.00    -0.160 F 
ATOM     18  F   UNL     1      35.092  17.540  17.807  0.00  0.00    -0.160 F 
ENDBRANCH  14  15
ENDBRANCH  12  14
ENDBRANCH   5   8
BRANCH   1  20
ATOM     19  N   UNL     1      34.548  24.635   8.771  0.00  0.00    -0.329 N 
ATOM     20  C   UNL     1      34.273  24.494  10.099  0.00  0.00    +0.215 C 
ATOM     21  O   UNL     1      34.935  25.096  10.931  0.00  0.00    -0.276 OA
ATOM     22  H   UNL     1      35.323  25.235   8.516  0.00  0.00    +0.145 HD
ATOM     23  H   UNL     1      34.081  24.108   8.046  0.00  0.00    +0.145 HD
ENDBRANCH   1  20
TORSDOF 4
ENDMDL
MODEL 9
REMARK VINA RESULT:      -5.5      3.088      3.800
REMARK  Name = ZINC000826139982
REMARK  4 active torsions:
REMARK  status: ('A' for Active; 'I' for Inactive)
REMARK    1  A    between atoms: C_2  and  C_4
REMARK    2  A    between atoms: C_8  and  C_10
REMARK    3  A    between atoms: C_14  and  S_15
REMARK    4  A    between atoms: S_15  and  C_16
REMARK                            x       y       z     vdW  Elec       q    Type
REMARK                         _______ _______ _______ _____ _____    ______ ____
ROOT
ATOM      1  C   UNL     1      34.449  22.222   8.208  0.00  0.00    +0.093 C 
ATOM      2  C   UNL     1      33.178  22.966   7.782  0.00  0.00    +0.033 C 
ATOM      3  C   UNL     1      32.870  23.926   8.923  0.00  0.00    +0.109 C 
ATOM      4  N   UNL     1      33.444  23.287  10.090  0.00  0.00    -0.297 N 
ATOM      5  C   UNL     1      32.957  23.535  11.367  0.00  0.00    +0.247 C 
ATOM      6  O   UNL     1      31.966  24.242  11.551  0.00  0.00    -0.270 OA
ATOM      7  C   UNL     1      34.617  22.526   9.692  0.00  0.00    +0.120 C 
ENDROOT
BRANCH   5   8
ATOM      8  C   UNL     1      33.580  22.887  12.568  0.00  0.00    +0.038 A 
ATOM      9  C   UNL     1      34.843  23.230  13.061  0.00  0.00    +0.013 A 
ATOM     10  C   UNL     1      35.426  22.512  14.104  0.00  0.00    +0.002 A 
ATOM     11  C   UNL     1      34.707  21.505  14.739  0.00  0.00    +0.015 A 
ATOM     12  C   UNL     1      33.390  21.236  14.356  0.00  0.00    +0.017 A 
ATOM     13  C   UNL     1      32.845  21.902  13.249  0.00  0.00    +0.028 A 
BRANCH  12  14
ATOM     14  S   UNL     1      32.416  20.030  15.233  0.00  0.00    -0.016 S 
BRANCH  14  15
ATOM     15  C   UNL     1      30.991  21.022  15.728  0.00  0.00    +0.448 C 
ATOM     16  F   UNL     1      30.162  21.343  14.707  0.00  0.00    -0.160 F 
ATOM     17  F   UNL     1      30.248  20.370  16.654  0.00  0.00    -0.160 F 
ATOM     18  F   UNL     1      31.395  22.188  16.289  0.00  0.00    -0.160 F 
ENDBRANCH  14  15
ENDBRANCH  12  14
ENDBRANCH   5   8
BRANCH   1  20
ATOM     19  N   UNL     1      35.442  23.275   6.256  0.00  0.00    -0.329 N 
ATOM     20  C   UNL     1      35.686  22.586   7.408  0.00  0.00    +0.215 C 
ATOM     21  O   UNL     1      36.826  22.256   7.697  0.00  0.00    -0.276 OA
ATOM     22  H   UNL     1      36.232  23.477   5.657  0.00  0.00    +0.145 HD
ATOM     23  H   UNL     1      34.514  23.511   5.934  0.00  0.00    +0.145 HD
ENDBRANCH   1  20
TORSDOF 4
ENDMDL
