MODEL 1
REMARK VINA RESULT:      -6.8      0.000      0.000
REMARK  Name = ZINC000329563636
REMARK  3 active torsions:
REMARK  status: ('A' for Active; 'I' for Inactive)
REMARK    1  A    between atoms: C_1  and  C_2
REMARK    2  A    between atoms: C_2  and  N_3
REMARK    3  A    between atoms: N_9  and  C_10
REMARK                            x       y       z     vdW  Elec       q    Type
REMARK                         _______ _______ _______ _____ _____    ______ ____
ROOT
ATOM      1  C   UNL     1      32.551  21.549  16.162  0.00  0.00    +0.112 C 
ATOM      2  C   UNL     1      33.557  22.237  17.089  0.00  0.00    +0.075 C 
ATOM      3  C   UNL     1      32.940  22.947  18.304  0.00  0.00    +0.113 C 
ATOM      4  C   UNL     1      32.669  22.030  19.525  0.00  0.00    +0.048 C 
ATOM      5  C   UNL     1      33.644  22.465  20.613  0.00  0.00    +0.004 C 
ATOM      6  C   UNL     1      33.866  23.939  20.339  0.00  0.00    +0.004 C 
ATOM      7  C   UNL     1      33.957  23.994  18.824  0.00  0.00    +0.048 C 
ATOM      8  O   UNL     1      31.738  23.659  17.954  0.00  0.00    -0.485 OA
ATOM      9  C   UNL     1      30.785  22.856  17.384  0.00  0.00    +0.126 A 
ATOM     10  C   UNL     1      29.451  23.131  17.679  0.00  0.00    +0.046 A 
ATOM     11  C   UNL     1      28.440  22.321  17.159  0.00  0.00    +0.004 A 
ATOM     12  C   UNL     1      28.762  21.251  16.328  0.00  0.00    +0.001 A 
ATOM     13  C   UNL     1      30.096  20.999  16.009  0.00  0.00    +0.009 A 
ATOM     14  C   UNL     1      31.120  21.803  16.538  0.00  0.00    +0.015 A 
ENDROOT
BRANCH   1  21
ATOM     15  N   UNL     1      33.277  21.937   9.923  0.00  0.00    -0.299 N 
ATOM     16  C   UNL     1      34.041  20.864  10.558  0.00  0.00    +0.127 C 
ATOM     17  C   UNL     1      34.790  21.344  11.797  0.00  0.00    +0.129 C 
ATOM     18  N   UNL     1      33.839  21.943  12.722  0.00  0.00    -0.275 N 
ATOM     19  C   UNL     1      33.703  21.406  13.983  0.00  0.00    +0.303 C 
ATOM     20  O   UNL     1      34.361  20.439  14.364  0.00  0.00    -0.253 OA
ATOM     21  N   UNL     1      32.765  21.990  14.784  0.00  0.00    -0.292 N 
ATOM     22  C   UNL     1      33.072  23.059  12.164  0.00  0.00    +0.205 C 
ATOM     23  C   UNL     1      32.825  23.039  10.641  0.00  0.00    +0.233 C 
ATOM     24  O   UNL     1      32.230  23.975  10.102  0.00  0.00    -0.274 OA
ATOM     25  H   UNL     1      32.518  22.949  14.603  0.00  0.00    +0.151 HD
BRANCH  15  27
ATOM     26  C   UNL     1      33.842  20.870   7.769  0.00  0.00    +0.024 C 
ATOM     27  C   UNL     1      32.886  21.774   8.527  0.00  0.00    +0.104 C 
ENDBRANCH  15  27
ENDBRANCH   1  21
TORSDOF 2
ENDMDL
MODEL 2
REMARK VINA RESULT:      -6.7      8.219     10.277
REMARK  Name = ZINC000329563636
REMARK  3 active torsions:
REMARK  status: ('A' for Active; 'I' for Inactive)
REMARK    1  A    between atoms: C_1  and  C_2
REMARK    2  A    between atoms: C_2  and  N_3
REMARK    3  A    between atoms: N_9  and  C_10
REMARK                            x       y       z     vdW  Elec       q    Type
REMARK                         _______ _______ _______ _____ _____    ______ ____
ROOT
ATOM      1  C   UNL     1      32.220  15.131  12.684  0.00  0.00    +0.112 C 
ATOM      2  C   UNL     1      31.571  15.929  13.819  0.00  0.00    +0.075 C 
ATOM      3  C   UNL     1      32.170  17.324  14.056  0.00  0.00    +0.113 C 
ATOM      4  C   UNL     1      31.599  18.441  13.145  0.00  0.00    +0.048 C 
ATOM      5  C   UNL     1      30.799  19.368  14.052  0.00  0.00    +0.004 C 
ATOM      6  C   UNL     1      31.491  19.255  15.396  0.00  0.00    +0.004 C 
ATOM      7  C   UNL     1      31.804  17.772  15.494  0.00  0.00    +0.048 C 
ATOM      8  O   UNL     1      33.607  17.311  13.968  0.00  0.00    -0.485 OA
ATOM      9  C   UNL     1      34.068  16.835  12.769  0.00  0.00    +0.126 A 
ATOM     10  C   UNL     1      35.221  17.416  12.245  0.00  0.00    +0.046 A 
ATOM     11  C   UNL     1      35.712  16.999  11.007  0.00  0.00    +0.004 A 
ATOM     12  C   UNL     1      35.063  15.986  10.304  0.00  0.00    +0.001 A 
ATOM     13  C   UNL     1      33.928  15.384  10.848  0.00  0.00    +0.009 A 
ATOM     14  C   UNL     1      33.421  15.807  12.088  0.00  0.00    +0.015 A 
ENDROOT
BRANCH   1  21
ATOM     15  N   UNL     1      34.148   9.169  13.266  0.00  0.00    -0.299 N 
ATOM     16  C   UNL     1      33.143   9.383  12.226  0.00  0.00    +0.127 C 
ATOM     17  C   UNL     1      31.972  10.227  12.722  0.00  0.00    +0.129 C 
ATOM     18  N   UNL     1      32.483  11.488  13.239  0.00  0.00    -0.275 N 
ATOM     19  C   UNL     1      32.064  12.667  12.665  0.00  0.00    +0.303 C 
ATOM     20  O   UNL     1      31.264  12.699  11.731  0.00  0.00    -0.253 OA
ATOM     21  N   UNL     1      32.614  13.809  13.171  0.00  0.00    -0.292 N 
ATOM     22  C   UNL     1      33.463  11.347  14.319  0.00  0.00    +0.205 C 
ATOM     23  C   UNL     1      34.315  10.060  14.321  0.00  0.00    +0.233 C 
ATOM     24  O   UNL     1      35.121   9.857  15.231  0.00  0.00    -0.274 OA
ATOM     25  H   UNL     1      32.957  13.790  14.117  0.00  0.00    +0.151 HD
BRANCH  15  27
ATOM     26  C   UNL     1      34.369   6.709  13.229  0.00  0.00    +0.024 C 
ATOM     27  C   UNL     1      35.073   8.051  13.113  0.00  0.00    +0.104 C 
ENDBRANCH  15  27
ENDBRANCH   1  21
TORSDOF 2
ENDMDL
MODEL 3
REMARK VINA RESULT:      -6.7      3.674      7.936
REMARK  Name = ZINC000329563636
REMARK  3 active torsions:
REMARK  status: ('A' for Active; 'I' for Inactive)
REMARK    1  A    between atoms: C_1  and  C_2
REMARK    2  A    between atoms: C_2  and  N_3
REMARK    3  A    between atoms: N_9  and  C_10
REMARK                            x       y       z     vdW  Elec       q    Type
REMARK                         _______ _______ _______ _____ _____    ______ ____
ROOT
ATOM      1  C   UNL     1      33.122  20.763  16.031  0.00  0.00    +0.112 C 
ATOM      2  C   UNL     1      32.781  19.271  15.961  0.00  0.00    +0.075 C 
ATOM      3  C   UNL     1      31.735  18.894  14.900  0.00  0.00    +0.113 C 
ATOM      4  C   UNL     1      32.303  18.679  13.474  0.00  0.00    +0.048 C 
ATOM      5  C   UNL     1      32.159  17.191  13.175  0.00  0.00    +0.004 C 
ATOM      6  C   UNL     1      30.945  16.770  13.979  0.00  0.00    +0.004 C 
ATOM      7  C   UNL     1      31.125  17.523  15.286  0.00  0.00    +0.048 C 
ATOM      8  O   UNL     1      30.653  19.843  14.856  0.00  0.00    -0.485 OA
ATOM      9  C   UNL     1      31.072  21.126  14.620  0.00  0.00    +0.126 A 
ATOM     10  C   UNL     1      30.252  21.939  13.841  0.00  0.00    +0.046 A 
ATOM     11  C   UNL     1      30.649  23.242  13.535  0.00  0.00    +0.004 A 
ATOM     12  C   UNL     1      31.855  23.737  14.026  0.00  0.00    +0.001 A 
ATOM     13  C   UNL     1      32.658  22.930  14.831  0.00  0.00    +0.009 A 
ATOM     14  C   UNL     1      32.271  21.614  15.134  0.00  0.00    +0.015 A 
ENDROOT
BRANCH   1  21
ATOM     15  N   UNL     1      33.425  23.965  21.441  0.00  0.00    -0.299 N 
ATOM     16  C   UNL     1      34.714  23.768  20.778  0.00  0.00    +0.127 C 
ATOM     17  C   UNL     1      34.916  22.325  20.327  0.00  0.00    +0.129 C 
ATOM     18  N   UNL     1      33.808  21.939  19.465  0.00  0.00    -0.275 N 
ATOM     19  C   UNL     1      34.070  21.547  18.172  0.00  0.00    +0.303 C 
ATOM     20  O   UNL     1      35.210  21.503  17.713  0.00  0.00    -0.253 OA
ATOM     21  N   UNL     1      32.982  21.238  17.408  0.00  0.00    -0.292 N 
ATOM     22  C   UNL     1      32.487  22.067  20.085  0.00  0.00    +0.205 C 
ATOM     23  C   UNL     1      32.332  23.146  21.177  0.00  0.00    +0.233 C 
ATOM     24  O   UNL     1      31.260  23.270  21.773  0.00  0.00    -0.274 OA
ATOM     25  H   UNL     1      32.144  20.938  17.877  0.00  0.00    +0.151 HD
BRANCH  15  27
ATOM     26  C   UNL     1      33.734  24.852  23.724  0.00  0.00    +0.024 C 
ATOM     27  C   UNL     1      33.264  25.128  22.307  0.00  0.00    +0.104 C 
ENDBRANCH  15  27
ENDBRANCH   1  21
TORSDOF 2
ENDMDL
MODEL 4
REMARK VINA RESULT:      -6.6      2.851      7.307
REMARK  Name = ZINC000329563636
REMARK  3 active torsions:
REMARK  status: ('A' for Active; 'I' for Inactive)
REMARK    1  A    between atoms: C_1  and  C_2
REMARK    2  A    between atoms: C_2  and  N_3
REMARK    3  A    between atoms: N_9  and  C_10
REMARK                            x       y       z     vdW  Elec       q    Type
REMARK                         _______ _______ _______ _____ _____    ______ ____
ROOT
ATOM      1  C   UNL     1      32.583  23.427  15.706  0.00  0.00    +0.112 C 
ATOM      2  C   UNL     1      33.094  23.629  14.276  0.00  0.00    +0.075 C 
ATOM      3  C   UNL     1      32.130  23.170  13.172  0.00  0.00    +0.113 C 
ATOM      4  C   UNL     1      31.053  24.213  12.774  0.00  0.00    +0.048 C 
ATOM      5  C   UNL     1      31.394  24.662  11.358  0.00  0.00    +0.004 C 
ATOM      6  C   UNL     1      32.075  23.456  10.743  0.00  0.00    +0.004 C 
ATOM      7  C   UNL     1      32.947  22.943  11.875  0.00  0.00    +0.048 C 
ATOM      8  O   UNL     1      31.498  21.919  13.500  0.00  0.00    -0.485 OA
ATOM      9  C   UNL     1      30.817  21.955  14.688  0.00  0.00    +0.126 A 
ATOM     10  C   UNL     1      29.636  21.221  14.778  0.00  0.00    +0.046 A 
ATOM     11  C   UNL     1      28.881  21.255  15.951  0.00  0.00    +0.004 A 
ATOM     12  C   UNL     1      29.317  22.005  17.041  0.00  0.00    +0.001 A 
ATOM     13  C   UNL     1      30.516  22.713  16.958  0.00  0.00    +0.009 A 
ATOM     14  C   UNL     1      31.276  22.693  15.776  0.00  0.00    +0.015 A 
ENDROOT
BRANCH   1  21
ATOM     15  N   UNL     1      36.250  21.092  20.257  0.00  0.00    -0.299 N 
ATOM     16  C   UNL     1      36.111  22.548  20.275  0.00  0.00    +0.127 C 
ATOM     17  C   UNL     1      36.309  23.164  18.893  0.00  0.00    +0.129 C 
ATOM     18  N   UNL     1      35.373  22.550  17.963  0.00  0.00    -0.275 N 
ATOM     19  C   UNL     1      34.454  23.344  17.315  0.00  0.00    +0.303 C 
ATOM     20  O   UNL     1      34.395  24.561  17.487  0.00  0.00    -0.253 OA
ATOM     21  N   UNL     1      33.580  22.698  16.490  0.00  0.00    -0.292 N 
ATOM     22  C   UNL     1      35.489  21.093  17.860  0.00  0.00    +0.205 C 
ATOM     23  C   UNL     1      36.006  20.347  19.108  0.00  0.00    +0.233 C 
ATOM     24  O   UNL     1      36.175  19.126  19.069  0.00  0.00    -0.274 OA
ATOM     25  H   UNL     1      33.863  21.814  16.100  0.00  0.00    +0.151 HD
BRANCH  15  27
ATOM     26  C   UNL     1      38.020  20.390  21.829  0.00  0.00    +0.024 C 
ATOM     27  C   UNL     1      36.534  20.410  21.514  0.00  0.00    +0.104 C 
ENDBRANCH  15  27
ENDBRANCH   1  21
TORSDOF 2
ENDMDL
MODEL 5
REMARK VINA RESULT:      -6.6     21.762     24.212
REMARK  Name = ZINC000329563636
REMARK  3 active torsions:
REMARK  status: ('A' for Active; 'I' for Inactive)
REMARK    1  A    between atoms: C_1  and  C_2
REMARK    2  A    between atoms: C_2  and  N_3
REMARK    3  A    between atoms: N_9  and  C_10
REMARK                            x       y       z     vdW  Elec       q    Type
REMARK                         _______ _______ _______ _____ _____    ______ ____
ROOT
ATOM      1  C   UNL     1      21.613   4.758  29.351  0.00  0.00    +0.112 C 
ATOM      2  C   UNL     1      20.637   5.785  29.933  0.00  0.00    +0.075 C 
ATOM      3  C   UNL     1      19.218   5.737  29.346  0.00  0.00    +0.113 C 
ATOM      4  C   UNL     1      18.277   4.694  30.002  0.00  0.00    +0.048 C 
ATOM      5  C   UNL     1      17.214   5.488  30.753  0.00  0.00    +0.004 C 
ATOM      6  C   UNL     1      17.091   6.776  29.965  0.00  0.00    +0.004 C 
ATOM      7  C   UNL     1      18.533   7.101  29.616  0.00  0.00    +0.048 C 
ATOM      8  O   UNL     1      19.236   5.547  27.918  0.00  0.00    -0.485 OA
ATOM      9  C   UNL     1      19.907   4.416  27.535  0.00  0.00    +0.126 A 
ATOM     10  C   UNL     1      19.415   3.716  26.435  0.00  0.00    +0.046 A 
ATOM     11  C   UNL     1      20.035   2.535  26.025  0.00  0.00    +0.004 A 
ATOM     12  C   UNL     1      21.158   2.064  26.703  0.00  0.00    +0.001 A 
ATOM     13  C   UNL     1      21.665   2.785  27.785  0.00  0.00    +0.009 A 
ATOM     14  C   UNL     1      21.040   3.969  28.210  0.00  0.00    +0.015 A 
ENDROOT
BRANCH   1  21
ATOM     15  N   UNL     1      27.235   6.227  26.934  0.00  0.00    -0.299 N 
ATOM     16  C   UNL     1      27.235   5.051  27.803  0.00  0.00    +0.127 C 
ATOM     17  C   UNL     1      26.487   5.298  29.110  0.00  0.00    +0.129 C 
ATOM     18  N   UNL     1      25.133   5.735  28.804  0.00  0.00    -0.275 N 
ATOM     19  C   UNL     1      24.069   4.988  29.256  0.00  0.00    +0.303 C 
ATOM     20  O   UNL     1      24.217   3.962  29.918  0.00  0.00    -0.253 OA
ATOM     21  N   UNL     1      22.829   5.432  28.898  0.00  0.00    -0.292 N 
ATOM     22  C   UNL     1      25.059   6.940  27.973  0.00  0.00    +0.205 C 
ATOM     23  C   UNL     1      26.234   7.190  27.005  0.00  0.00    +0.233 C 
ATOM     24  O   UNL     1      26.257   8.212  26.316  0.00  0.00    -0.274 OA
ATOM     25  H   UNL     1      22.719   6.410  28.689  0.00  0.00    +0.151 HD
BRANCH  15  27
ATOM     26  C   UNL     1      28.319   5.049  25.054  0.00  0.00    +0.024 C 
ATOM     27  C   UNL     1      28.250   6.315  25.890  0.00  0.00    +0.104 C 
ENDBRANCH  15  27
ENDBRANCH   1  21
TORSDOF 2
ENDMDL
MODEL 6
REMARK VINA RESULT:      -6.3     12.084     15.687
REMARK  Name = ZINC000329563636
REMARK  3 active torsions:
REMARK  status: ('A' for Active; 'I' for Inactive)
REMARK    1  A    between atoms: C_1  and  C_2
REMARK    2  A    between atoms: C_2  and  N_3
REMARK    3  A    between atoms: N_9  and  C_10
REMARK                            x       y       z     vdW  Elec       q    Type
REMARK                         _______ _______ _______ _____ _____    ______ ____
ROOT
ATOM      1  C   UNL     1      20.611  27.460  18.810  0.00  0.00    +0.112 C 
ATOM      2  C   UNL     1      21.345  27.341  20.150  0.00  0.00    +0.075 C 
ATOM      3  C   UNL     1      22.507  26.336  20.165  0.00  0.00    +0.113 C 
ATOM      4  C   UNL     1      23.857  26.894  19.645  0.00  0.00    +0.048 C 
ATOM      5  C   UNL     1      24.786  26.964  20.851  0.00  0.00    +0.004 C 
ATOM      6  C   UNL     1      24.303  25.845  21.753  0.00  0.00    +0.004 C 
ATOM      7  C   UNL     1      22.792  25.944  21.637  0.00  0.00    +0.048 C 
ATOM      8  O   UNL     1      22.177  25.125  19.459  0.00  0.00    -0.485 OA
ATOM      9  C   UNL     1      21.805  25.346  18.159  0.00  0.00    +0.126 A 
ATOM     10  C   UNL     1      22.182  24.396  17.211  0.00  0.00    +0.046 A 
ATOM     11  C   UNL     1      21.865  24.589  15.866  0.00  0.00    +0.004 A 
ATOM     12  C   UNL     1      21.156  25.721  15.471  0.00  0.00    +0.001 A 
ATOM     13  C   UNL     1      20.754  26.653  16.427  0.00  0.00    +0.009 A 
ATOM     14  C   UNL     1      21.078  26.471  17.782  0.00  0.00    +0.015 A 
ENDROOT
BRANCH   1  21
ATOM     15  N   UNL     1      14.333  27.535  18.383  0.00  0.00    -0.299 N 
ATOM     16  C   UNL     1      14.971  28.835  18.182  0.00  0.00    +0.127 C 
ATOM     17  C   UNL     1      16.017  29.137  19.251  0.00  0.00    +0.129 C 
ATOM     18  N   UNL     1      16.995  28.059  19.272  0.00  0.00    -0.275 N 
ATOM     19  C   UNL     1      18.317  28.349  19.022  0.00  0.00    +0.303 C 
ATOM     20  O   UNL     1      18.710  29.490  18.785  0.00  0.00    -0.253 OA
ATOM     21  N   UNL     1      19.173  27.286  19.017  0.00  0.00    -0.292 N 
ATOM     22  C   UNL     1      16.427  26.731  19.518  0.00  0.00    +0.205 C 
ATOM     23  C   UNL     1      14.972  26.501  19.058  0.00  0.00    +0.233 C 
ATOM     24  O   UNL     1      14.419  25.422  19.282  0.00  0.00    -0.274 OA
ATOM     25  H   UNL     1      18.917  26.469  19.546  0.00  0.00    +0.151 HD
BRANCH  15  27
ATOM     26  C   UNL     1      13.189  26.888  16.292  0.00  0.00    +0.024 C 
ATOM     27  C   UNL     1      13.041  27.294  17.748  0.00  0.00    +0.104 C 
ENDBRANCH  15  27
ENDBRANCH   1  21
TORSDOF 2
ENDMDL
MODEL 7
REMARK VINA RESULT:      -6.3     22.422     25.191
REMARK  Name = ZINC000329563636
REMARK  3 active torsions:
REMARK  status: ('A' for Active; 'I' for Inactive)
REMARK    1  A    between atoms: C_1  and  C_2
REMARK    2  A    between atoms: C_2  and  N_3
REMARK    3  A    between atoms: N_9  and  C_10
REMARK                            x       y       z     vdW  Elec       q    Type
REMARK                         _______ _______ _______ _____ _____    ______ ____
ROOT
ATOM      1  C   UNL     1      23.087   4.480  27.815  0.00  0.00    +0.112 C 
ATOM      2  C   UNL     1      23.838   5.393  26.841  0.00  0.00    +0.075 C 
ATOM      3  C   UNL     1      25.173   5.942  27.365  0.00  0.00    +0.113 C 
ATOM      4  C   UNL     1      26.386   4.995  27.176  0.00  0.00    +0.048 C 
ATOM      5  C   UNL     1      27.290   5.656  26.142  0.00  0.00    +0.004 C 
ATOM      6  C   UNL     1      27.038   7.139  26.327  0.00  0.00    +0.004 C 
ATOM      7  C   UNL     1      25.536   7.205  26.542  0.00  0.00    +0.048 C 
ATOM      8  O   UNL     1      25.081   6.346  28.744  0.00  0.00    -0.485 OA
ATOM      9  C   UNL     1      24.668   5.337  29.573  0.00  0.00    +0.126 A 
ATOM     10  C   UNL     1      25.217   5.288  30.853  0.00  0.00    +0.046 A 
ATOM     11  C   UNL     1      24.862   4.258  31.725  0.00  0.00    +0.004 A 
ATOM     12  C   UNL     1      23.944   3.290  31.326  0.00  0.00    +0.001 A 
ATOM     13  C   UNL     1      23.373   3.361  30.055  0.00  0.00    +0.009 A 
ATOM     14  C   UNL     1      23.733   4.389  29.167  0.00  0.00    +0.015 A 
ENDROOT
BRANCH   1  21
ATOM     15  N   UNL     1      17.075   5.298  29.483  0.00  0.00    -0.299 N 
ATOM     16  C   UNL     1      17.423   3.925  29.119  0.00  0.00    +0.127 C 
ATOM     17  C   UNL     1      18.217   3.857  27.818  0.00  0.00    +0.129 C 
ATOM     18  N   UNL     1      19.402   4.693  27.943  0.00  0.00    -0.275 N 
ATOM     19  C   UNL     1      20.645   4.118  27.808  0.00  0.00    +0.303 C 
ATOM     20  O   UNL     1      20.797   2.919  27.579  0.00  0.00    -0.253 OA
ATOM     21  N   UNL     1      21.712   4.952  27.977  0.00  0.00    -0.292 N 
ATOM     22  C   UNL     1      19.122   6.096  28.260  0.00  0.00    +0.205 C 
ATOM     23  C   UNL     1      17.833   6.384  29.059  0.00  0.00    +0.233 C 
ATOM     24  O   UNL     1      17.514   7.548  29.313  0.00  0.00    -0.274 OA
ATOM     25  H   UNL     1      21.578   5.934  27.804  0.00  0.00    +0.151 HD
BRANCH  15  27
ATOM     26  C   UNL     1      16.442   5.550  31.857  0.00  0.00    +0.024 C 
ATOM     27  C   UNL     1      15.971   5.508  30.413  0.00  0.00    +0.104 C 
ENDBRANCH  15  27
ENDBRANCH   1  21
TORSDOF 2
ENDMDL
MODEL 8
REMARK VINA RESULT:      -6.2      2.951      5.078
REMARK  Name = ZINC000329563636
REMARK  3 active torsions:
REMARK  status: ('A' for Active; 'I' for Inactive)
REMARK    1  A    between atoms: C_1  and  C_2
REMARK    2  A    between atoms: C_2  and  N_3
REMARK    3  A    between atoms: N_9  and  C_10
REMARK                            x       y       z     vdW  Elec       q    Type
REMARK                         _______ _______ _______ _____ _____    ______ ____
ROOT
ATOM      1  C   UNL     1      33.175  20.547  12.997  0.00  0.00    +0.112 C 
ATOM      2  C   UNL     1      32.040  21.436  13.513  0.00  0.00    +0.075 C 
ATOM      3  C   UNL     1      30.946  20.700  14.301  0.00  0.00    +0.113 C 
ATOM      4  C   UNL     1      31.261  20.485  15.804  0.00  0.00    +0.048 C 
ATOM      5  C   UNL     1      30.284  21.365  16.577  0.00  0.00    +0.004 C 
ATOM      6  C   UNL     1      29.064  21.435  15.680  0.00  0.00    +0.004 C 
ATOM      7  C   UNL     1      29.667  21.575  14.294  0.00  0.00    +0.048 C 
ATOM      8  O   UNL     1      30.603  19.441  13.691  0.00  0.00    -0.485 OA
ATOM      9  C   UNL     1      31.677  18.604  13.545  0.00  0.00    +0.126 A 
ATOM     10  C   UNL     1      31.456  17.238  13.709  0.00  0.00    +0.046 A 
ATOM     11  C   UNL     1      32.522  16.342  13.612  0.00  0.00    +0.004 A 
ATOM     12  C   UNL     1      33.803  16.810  13.331  0.00  0.00    +0.001 A 
ATOM     13  C   UNL     1      34.014  18.175  13.136  0.00  0.00    +0.009 A 
ATOM     14  C   UNL     1      32.948  19.084  13.243  0.00  0.00    +0.015 A 
ENDROOT
BRANCH   1  21
ATOM     15  N   UNL     1      35.315  22.105   7.287  0.00  0.00    -0.299 N 
ATOM     16  C   UNL     1      35.423  23.167   8.287  0.00  0.00    +0.127 C 
ATOM     17  C   UNL     1      34.131  23.348   9.078  0.00  0.00    +0.129 C 
ATOM     18  N   UNL     1      33.767  22.076   9.686  0.00  0.00    -0.275 N 
ATOM     19  C   UNL     1      33.664  21.994  11.056  0.00  0.00    +0.303 C 
ATOM     20  O   UNL     1      33.863  22.959  11.793  0.00  0.00    -0.253 OA
ATOM     21  N   UNL     1      33.360  20.763  11.562  0.00  0.00    -0.292 N 
ATOM     22  C   UNL     1      33.596  20.976   8.733  0.00  0.00    +0.205 C 
ATOM     23  C   UNL     1      34.420  21.051   7.431  0.00  0.00    +0.233 C 
ATOM     24  O   UNL     1      34.283  20.183   6.566  0.00  0.00    -0.274 OA
ATOM     25  H   UNL     1      32.867  20.117  10.969  0.00  0.00    +0.151 HD
BRANCH  15  27
ATOM     26  C   UNL     1      37.700  22.008   6.655  0.00  0.00    +0.024 C 
ATOM     27  C   UNL     1      36.262  22.103   6.177  0.00  0.00    +0.104 C 
ENDBRANCH  15  27
ENDBRANCH   1  21
TORSDOF 2
ENDMDL
MODEL 9
REMARK VINA RESULT:      -6.2      2.112      3.701
REMARK  Name = ZINC000329563636
REMARK  3 active torsions:
REMARK  status: ('A' for Active; 'I' for Inactive)
REMARK    1  A    between atoms: C_1  and  C_2
REMARK    2  A    between atoms: C_2  and  N_3
REMARK    3  A    between atoms: N_9  and  C_10
REMARK                            x       y       z     vdW  Elec       q    Type
REMARK                         _______ _______ _______ _____ _____    ______ ____
ROOT
ATOM      1  C   UNL     1      33.066  22.448  14.671  0.00  0.00    +0.112 C 
ATOM      2  C   UNL     1      31.721  22.962  15.193  0.00  0.00    +0.075 C 
ATOM      3  C   UNL     1      31.051  22.070  16.249  0.00  0.00    +0.113 C 
ATOM      4  C   UNL     1      31.537  22.306  17.703  0.00  0.00    +0.048 C 
ATOM      5  C   UNL     1      30.361  22.922  18.453  0.00  0.00    +0.004 C 
ATOM      6  C   UNL     1      29.141  22.361  17.750  0.00  0.00    +0.004 C 
ATOM      7  C   UNL     1      29.539  22.410  16.285  0.00  0.00    +0.048 C 
ATOM      8  O   UNL     1      31.165  20.673  15.919  0.00  0.00    -0.485 OA
ATOM      9  C   UNL     1      32.462  20.262  15.757  0.00  0.00    +0.126 A 
ATOM     10  C   UNL     1      32.788  18.976  16.181  0.00  0.00    +0.046 A 
ATOM     11  C   UNL     1      34.103  18.519  16.078  0.00  0.00    +0.004 A 
ATOM     12  C   UNL     1      35.086  19.342  15.533  0.00  0.00    +0.001 A 
ATOM     13  C   UNL     1      34.749  20.618  15.082  0.00  0.00    +0.009 A 
ATOM     14  C   UNL     1      33.429  21.088  15.192  0.00  0.00    +0.015 A 
ENDROOT
BRANCH   1  21
ATOM     15  N   UNL     1      34.491  21.949   8.561  0.00  0.00    -0.299 N 
ATOM     16  C   UNL     1      35.417  22.775   9.336  0.00  0.00    +0.127 C 
ATOM     17  C   UNL     1      34.689  23.774  10.230  0.00  0.00    +0.129 C 
ATOM     18  N   UNL     1      33.767  23.050  11.094  0.00  0.00    -0.275 N 
ATOM     19  C   UNL     1      33.918  23.142  12.459  0.00  0.00    +0.303 C 
ATOM     20  O   UNL     1      34.802  23.818  12.983  0.00  0.00    -0.253 OA
ATOM     21  N   UNL     1      33.046  22.406  13.209  0.00  0.00    -0.292 N 
ATOM     22  C   UNL     1      32.779  22.237  10.380  0.00  0.00    +0.205 C 
ATOM     23  C   UNL     1      33.195  21.695   8.997  0.00  0.00    +0.233 C 
ATOM     24  O   UNL     1      32.391  21.047   8.323  0.00  0.00    -0.274 OA
ATOM     25  H   UNL     1      32.155  22.171  12.804  0.00  0.00    +0.151 HD
BRANCH  15  27
ATOM     26  C   UNL     1      35.793  22.226   6.482  0.00  0.00    +0.024 C 
ATOM     27  C   UNL     1      34.995  21.283   7.365  0.00  0.00    +0.104 C 
ENDBRANCH  15  27
ENDBRANCH   1  21
TORSDOF 2
ENDMDL
