MODEL 1
REMARK VINA RESULT:      -7.7      0.000      0.000
REMARK  Name = ZINC001228612316
REMARK  5 active torsions:
REMARK  status: ('A' for Active; 'I' for Inactive)
REMARK    1  A    between atoms: C_2  and  C_4
REMARK    2  A    between atoms: C_8  and  O_9
REMARK    3  A    between atoms: O_9  and  C_10
REMARK    4  A    between atoms: C_10  and  C_11
REMARK    5  A    between atoms: C_10  and  C_17
REMARK                            x       y       z     vdW  Elec       q    Type
REMARK                         _______ _______ _______ _____ _____    ______ ____
ROOT
ATOM      1  C   UNL     1      13.289   4.502  13.966  0.00  0.00    +0.040 A 
ATOM      2  C   UNL     1      12.214   5.397  13.993  0.00  0.00    +0.013 A 
ATOM      3  C   UNL     1      11.690   5.896  12.800  0.00  0.00    +0.004 A 
ATOM      4  C   UNL     1      12.235   5.505  11.574  0.00  0.00    +0.046 A 
ATOM      5  C   UNL     1      13.309   4.617  11.535  0.00  0.00    +0.122 A 
ATOM      6  C   UNL     1      13.832   4.116  12.734  0.00  0.00    +0.058 A 
ENDROOT
BRANCH   1   8
ATOM      7  N   UNL     1      13.082   2.993  15.876  0.00  0.00    -0.325 N 
ATOM      8  C   UNL     1      13.801   3.984  15.264  0.00  0.00    +0.242 C 
ATOM      9  O   UNL     1      14.844   4.395  15.756  0.00  0.00    -0.270 OA
ATOM     10  H   UNL     1      13.503   2.583  16.701  0.00  0.00    +0.145 HD
ATOM     11  H   UNL     1      12.365   2.465  15.403  0.00  0.00    +0.145 HD
ENDBRANCH   1   8
BRANCH   5  12
ATOM     12  O   UNL     1      13.973   4.218  10.407  0.00  0.00    -0.484 OA
BRANCH  12  13
ATOM     13  C   UNL     1      14.729   5.190   9.667  0.00  0.00    +0.208 C 
BRANCH  13  14
ATOM     14  C   UNL     1      16.203   4.851   9.562  0.00  0.00    +0.011 A 
ATOM     15  C   UNL     1      16.689   3.756   8.842  0.00  0.00    +0.010 A 
ATOM     16  C   UNL     1      18.064   3.565   8.722  0.00  0.00    +0.020 A 
ATOM     17  C   UNL     1      18.912   4.479   9.325  0.00  0.00    +0.111 A 
ATOM     18  N   UNL     1      18.484   5.542  10.036  0.00  0.00    -0.263 NA
ATOM     19  C   UNL     1      17.147   5.703  10.135  0.00  0.00    +0.118 A 
ENDBRANCH  13  14
BRANCH  13  20
ATOM     20  C   UNL     1      14.182   5.279   8.246  0.00  0.00    +0.034 C 
ATOM     21  C   UNL     1      14.640   6.377   7.315  0.00  0.00    +0.008 C 
ATOM     22  C   UNL     1      13.215   6.353   7.798  0.00  0.00    +0.008 C 
ENDBRANCH  13  20
ENDBRANCH  12  13
ENDBRANCH   5  12
TORSDOF 5
ENDMDL
MODEL 2
REMARK VINA RESULT:      -7.2      2.423      6.030
REMARK  Name = ZINC001228612316
REMARK  5 active torsions:
REMARK  status: ('A' for Active; 'I' for Inactive)
REMARK    1  A    between atoms: C_2  and  C_4
REMARK    2  A    between atoms: C_8  and  O_9
REMARK    3  A    between atoms: O_9  and  C_10
REMARK    4  A    between atoms: C_10  and  C_11
REMARK    5  A    between atoms: C_10  and  C_17
REMARK                            x       y       z     vdW  Elec       q    Type
REMARK                         _______ _______ _______ _____ _____    ______ ____
ROOT
ATOM      1  C   UNL     1      17.604   3.202   8.645  0.00  0.00    +0.040 A 
ATOM      2  C   UNL     1      18.678   3.770   9.340  0.00  0.00    +0.013 A 
ATOM      3  C   UNL     1      18.536   5.018   9.947  0.00  0.00    +0.004 A 
ATOM      4  C   UNL     1      17.323   5.707   9.865  0.00  0.00    +0.046 A 
ATOM      5  C   UNL     1      16.247   5.153   9.171  0.00  0.00    +0.122 A 
ATOM      6  C   UNL     1      16.392   3.899   8.565  0.00  0.00    +0.058 A 
ENDROOT
BRANCH   1   8
ATOM      7  N   UNL     1      18.361   0.885   8.809  0.00  0.00    -0.325 N 
ATOM      8  C   UNL     1      17.800   1.862   8.031  0.00  0.00    +0.242 C 
ATOM      9  O   UNL     1      17.441   1.619   6.885  0.00  0.00    -0.270 OA
ATOM     10  H   UNL     1      18.387  -0.044   8.407  0.00  0.00    +0.145 HD
ATOM     11  H   UNL     1      18.447   0.966   9.810  0.00  0.00    +0.145 HD
ENDBRANCH   1   8
BRANCH   5  12
ATOM     12  O   UNL     1      15.039   5.759   8.960  0.00  0.00    -0.484 OA
BRANCH  12  13
ATOM     13  C   UNL     1      13.836   5.013   9.210  0.00  0.00    +0.208 C 
BRANCH  13  14
ATOM     14  C   UNL     1      13.205   5.327  10.553  0.00  0.00    +0.011 A 
ATOM     15  C   UNL     1      12.133   6.210  10.709  0.00  0.00    +0.010 A 
ATOM     16  C   UNL     1      11.553   6.375  11.965  0.00  0.00    +0.020 A 
ATOM     17  C   UNL     1      12.063   5.648  13.028  0.00  0.00    +0.111 A 
ATOM     18  N   UNL     1      13.101   4.794  12.921  0.00  0.00    -0.263 NA
ATOM     19  C   UNL     1      13.643   4.652  11.692  0.00  0.00    +0.118 A 
ENDBRANCH  13  14
BRANCH  13  20
ATOM     20  C   UNL     1      12.805   5.343   8.136  0.00  0.00    +0.034 C 
ATOM     21  C   UNL     1      11.869   4.277   7.619  0.00  0.00    +0.008 C 
ATOM     22  C   UNL     1      12.916   4.858   6.708  0.00  0.00    +0.008 C 
ENDBRANCH  13  20
ENDBRANCH  12  13
ENDBRANCH   5  12
TORSDOF 5
ENDMDL
MODEL 3
REMARK VINA RESULT:      -7.2      2.052      3.230
REMARK  Name = ZINC001228612316
REMARK  5 active torsions:
REMARK  status: ('A' for Active; 'I' for Inactive)
REMARK    1  A    between atoms: C_2  and  C_4
REMARK    2  A    between atoms: C_8  and  O_9
REMARK    3  A    between atoms: O_9  and  C_10
REMARK    4  A    between atoms: C_10  and  C_11
REMARK    5  A    between atoms: C_10  and  C_17
REMARK                            x       y       z     vdW  Elec       q    Type
REMARK                         _______ _______ _______ _____ _____    ______ ____
ROOT
ATOM      1  C   UNL     1      13.390   4.427  14.064  0.00  0.00    +0.040 A 
ATOM      2  C   UNL     1      12.224   5.200  14.024  0.00  0.00    +0.013 A 
ATOM      3  C   UNL     1      11.746   5.682  12.806  0.00  0.00    +0.004 A 
ATOM      4  C   UNL     1      12.427   5.396  11.620  0.00  0.00    +0.046 A 
ATOM      5  C   UNL     1      13.593   4.631  11.647  0.00  0.00    +0.122 A 
ATOM      6  C   UNL     1      14.069   4.146  12.872  0.00  0.00    +0.058 A 
ENDROOT
BRANCH   1   8
ATOM      7  N   UNL     1      13.067   2.989  16.012  0.00  0.00    -0.325 N 
ATOM      8  C   UNL     1      13.849   3.922  15.386  0.00  0.00    +0.242 C 
ATOM      9  O   UNL     1      14.904   4.291  15.886  0.00  0.00    -0.270 OA
ATOM     10  H   UNL     1      13.450   2.581  16.856  0.00  0.00    +0.145 HD
ATOM     11  H   UNL     1      12.332   2.486  15.540  0.00  0.00    +0.145 HD
ENDBRANCH   1   8
BRANCH   5  12
ATOM     12  O   UNL     1      14.385   4.346  10.568  0.00  0.00    -0.484 OA
BRANCH  12  13
ATOM     13  C   UNL     1      13.775   3.806   9.384  0.00  0.00    +0.208 C 
BRANCH  13  14
ATOM     14  C   UNL     1      13.728   4.791   8.232  0.00  0.00    +0.011 A 
ATOM     15  C   UNL     1      12.538   5.211   7.630  0.00  0.00    +0.010 A 
ATOM     16  C   UNL     1      12.576   6.186   6.635  0.00  0.00    +0.020 A 
ATOM     17  C   UNL     1      13.805   6.714   6.275  0.00  0.00    +0.111 A 
ATOM     18  N   UNL     1      14.975   6.330   6.824  0.00  0.00    -0.263 NA
ATOM     19  C   UNL     1      14.909   5.385   7.787  0.00  0.00    +0.118 A 
ENDBRANCH  13  14
BRANCH  13  20
ATOM     20  C   UNL     1      14.574   2.596   8.913  0.00  0.00    +0.034 C 
ATOM     21  C   UNL     1      14.007   1.662   7.871  0.00  0.00    +0.008 C 
ATOM     22  C   UNL     1      14.212   1.174   9.279  0.00  0.00    +0.008 C 
ENDBRANCH  13  20
ENDBRANCH  12  13
ENDBRANCH   5  12
TORSDOF 5
ENDMDL
MODEL 4
REMARK VINA RESULT:      -7.0      2.560      5.983
REMARK  Name = ZINC001228612316
REMARK  5 active torsions:
REMARK  status: ('A' for Active; 'I' for Inactive)
REMARK    1  A    between atoms: C_2  and  C_4
REMARK    2  A    between atoms: C_8  and  O_9
REMARK    3  A    between atoms: O_9  and  C_10
REMARK    4  A    between atoms: C_10  and  C_11
REMARK    5  A    between atoms: C_10  and  C_17
REMARK                            x       y       z     vdW  Elec       q    Type
REMARK                         _______ _______ _______ _____ _____    ______ ____
ROOT
ATOM      1  C   UNL     1      17.421   3.253   8.311  0.00  0.00    +0.040 A 
ATOM      2  C   UNL     1      17.044   2.660   7.101  0.00  0.00    +0.013 A 
ATOM      3  C   UNL     1      15.953   3.158   6.388  0.00  0.00    +0.004 A 
ATOM      4  C   UNL     1      15.231   4.250   6.877  0.00  0.00    +0.046 A 
ATOM      5  C   UNL     1      15.594   4.847   8.085  0.00  0.00    +0.122 A 
ATOM      6  C   UNL     1      16.692   4.346   8.797  0.00  0.00    +0.058 A 
ENDROOT
BRANCH   1   8
ATOM      7  N   UNL     1      18.580   1.365   9.340  0.00  0.00    -0.325 N 
ATOM      8  C   UNL     1      18.602   2.697   9.024  0.00  0.00    +0.242 C 
ATOM      9  O   UNL     1      19.578   3.388   9.290  0.00  0.00    -0.270 OA
ATOM     10  H   UNL     1      19.435   0.986   9.728  0.00  0.00    +0.145 HD
ATOM     11  H   UNL     1      17.921   0.718   8.936  0.00  0.00    +0.145 HD
ENDBRANCH   1   8
BRANCH   5  12
ATOM     12  O   UNL     1      14.926   5.870   8.701  0.00  0.00    -0.484 OA
BRANCH  12  13
ATOM     13  C   UNL     1      13.495   5.797   8.808  0.00  0.00    +0.208 C 
BRANCH  13  14
ATOM     14  C   UNL     1      12.999   5.821  10.241  0.00  0.00    +0.011 A 
ATOM     15  C   UNL     1      11.918   6.598  10.666  0.00  0.00    +0.010 A 
ATOM     16  C   UNL     1      11.470   6.495  11.982  0.00  0.00    +0.020 A 
ATOM     17  C   UNL     1      12.118   5.615  12.833  0.00  0.00    +0.111 A 
ATOM     18  N   UNL     1      13.170   4.856  12.465  0.00  0.00    -0.263 NA
ATOM     19  C   UNL     1      13.582   4.974  11.184  0.00  0.00    +0.118 A 
ENDBRANCH  13  14
BRANCH  13  20
ATOM     20  C   UNL     1      12.874   6.993   8.094  0.00  0.00    +0.034 C 
ATOM     21  C   UNL     1      11.711   6.803   7.150  0.00  0.00    +0.008 C 
ATOM     22  C   UNL     1      13.043   7.250   6.613  0.00  0.00    +0.008 C 
ENDBRANCH  13  20
ENDBRANCH  12  13
ENDBRANCH   5  12
TORSDOF 5
ENDMDL
MODEL 5
REMARK VINA RESULT:      -7.0      2.004      3.025
REMARK  Name = ZINC001228612316
REMARK  5 active torsions:
REMARK  status: ('A' for Active; 'I' for Inactive)
REMARK    1  A    between atoms: C_2  and  C_4
REMARK    2  A    between atoms: C_8  and  O_9
REMARK    3  A    between atoms: O_9  and  C_10
REMARK    4  A    between atoms: C_10  and  C_11
REMARK    5  A    between atoms: C_10  and  C_17
REMARK                            x       y       z     vdW  Elec       q    Type
REMARK                         _______ _______ _______ _____ _____    ______ ____
ROOT
ATOM      1  C   UNL     1      13.240   4.900  12.605  0.00  0.00    +0.040 A 
ATOM      2  C   UNL     1      12.069   5.665  12.542  0.00  0.00    +0.013 A 
ATOM      3  C   UNL     1      11.726   6.322  11.361  0.00  0.00    +0.004 A 
ATOM      4  C   UNL     1      12.546   6.220  10.234  0.00  0.00    +0.046 A 
ATOM      5  C   UNL     1      13.718   5.465  10.285  0.00  0.00    +0.122 A 
ATOM      6  C   UNL     1      14.059   4.804  11.473  0.00  0.00    +0.058 A 
ENDROOT
BRANCH   1   8
ATOM      7  N   UNL     1      12.682   4.374  14.924  0.00  0.00    -0.325 N 
ATOM      8  C   UNL     1      13.553   4.205  13.882  0.00  0.00    +0.242 C 
ATOM      9  O   UNL     1      14.531   3.475  13.995  0.00  0.00    -0.270 OA
ATOM     10  H   UNL     1      12.857   3.809  15.746  0.00  0.00    +0.145 HD
ATOM     11  H   UNL     1      11.758   4.759  14.807  0.00  0.00    +0.145 HD
ENDBRANCH   1   8
BRANCH   5  12
ATOM     12  O   UNL     1      14.636   5.349   9.277  0.00  0.00    -0.484 OA
BRANCH  12  13
ATOM     13  C   UNL     1      15.743   4.449   9.449  0.00  0.00    +0.208 C 
BRANCH  13  14
ATOM     14  C   UNL     1      15.836   3.398   8.360  0.00  0.00    +0.011 A 
ATOM     15  C   UNL     1      16.157   3.694   7.032  0.00  0.00    +0.010 A 
ATOM     16  C   UNL     1      16.309   2.659   6.112  0.00  0.00    +0.020 A 
ATOM     17  C   UNL     1      16.137   1.356   6.550  0.00  0.00    +0.111 A 
ATOM     18  N   UNL     1      15.818   1.029   7.818  0.00  0.00    -0.263 NA
ATOM     19  C   UNL     1      15.678   2.051   8.690  0.00  0.00    +0.118 A 
ENDBRANCH  13  14
BRANCH  13  20
ATOM     20  C   UNL     1      17.046   5.242   9.426  0.00  0.00    +0.034 C 
ATOM     21  C   UNL     1      18.373   4.540   9.581  0.00  0.00    +0.008 C 
ATOM     22  C   UNL     1      17.893   5.475  10.657  0.00  0.00    +0.008 C 
ENDBRANCH  13  20
ENDBRANCH  12  13
ENDBRANCH   5  12
TORSDOF 5
ENDMDL
MODEL 6
REMARK VINA RESULT:      -7.0      2.056      5.879
REMARK  Name = ZINC001228612316
REMARK  5 active torsions:
REMARK  status: ('A' for Active; 'I' for Inactive)
REMARK    1  A    between atoms: C_2  and  C_4
REMARK    2  A    between atoms: C_8  and  O_9
REMARK    3  A    between atoms: O_9  and  C_10
REMARK    4  A    between atoms: C_10  and  C_11
REMARK    5  A    between atoms: C_10  and  C_17
REMARK                            x       y       z     vdW  Elec       q    Type
REMARK                         _______ _______ _______ _____ _____    ______ ____
ROOT
ATOM      1  C   UNL     1      17.257   3.429   8.623  0.00  0.00    +0.040 A 
ATOM      2  C   UNL     1      16.825   3.302   7.299  0.00  0.00    +0.013 A 
ATOM      3  C   UNL     1      15.674   3.964   6.873  0.00  0.00    +0.004 A 
ATOM      4  C   UNL     1      14.948   4.759   7.764  0.00  0.00    +0.046 A 
ATOM      5  C   UNL     1      15.366   4.890   9.088  0.00  0.00    +0.122 A 
ATOM      6  C   UNL     1      16.524   4.224   9.513  0.00  0.00    +0.058 A 
ENDROOT
BRANCH   1   8
ATOM      7  N   UNL     1      18.459   1.349   9.070  0.00  0.00    -0.325 N 
ATOM      8  C   UNL     1      18.500   2.716   9.025  0.00  0.00    +0.242 C 
ATOM      9  O   UNL     1      19.538   3.319   9.271  0.00  0.00    -0.270 OA
ATOM     10  H   UNL     1      19.341   0.882   9.241  0.00  0.00    +0.145 HD
ATOM     11  H   UNL     1      17.716   0.810   8.651  0.00  0.00    +0.145 HD
ENDBRANCH   1   8
BRANCH   5  12
ATOM     12  O   UNL     1      14.704   5.576  10.069  0.00  0.00    -0.484 OA
BRANCH  12  13
ATOM     13  C   UNL     1      13.444   5.070  10.539  0.00  0.00    +0.208 C 
BRANCH  13  14
ATOM     14  C   UNL     1      13.411   4.841  12.038  0.00  0.00    +0.011 A 
ATOM     15  C   UNL     1      12.448   5.405  12.879  0.00  0.00    +0.010 A 
ATOM     16  C   UNL     1      12.436   5.073  14.233  0.00  0.00    +0.020 A 
ATOM     17  C   UNL     1      13.387   4.182  14.702  0.00  0.00    +0.111 A 
ATOM     18  N   UNL     1      14.338   3.624  13.926  0.00  0.00    -0.263 NA
ATOM     19  C   UNL     1      14.326   3.962  12.619  0.00  0.00    +0.118 A 
ENDBRANCH  13  14
BRANCH  13  20
ATOM     20  C   UNL     1      12.343   6.073  10.210  0.00  0.00    +0.034 C 
ATOM     21  C   UNL     1      10.956   5.598   9.849  0.00  0.00    +0.008 C 
ATOM     22  C   UNL     1      11.806   6.280   8.811  0.00  0.00    +0.008 C 
ENDBRANCH  13  20
ENDBRANCH  12  13
ENDBRANCH   5  12
TORSDOF 5
ENDMDL
MODEL 7
REMARK VINA RESULT:      -6.9      3.412      5.551
REMARK  Name = ZINC001228612316
REMARK  5 active torsions:
REMARK  status: ('A' for Active; 'I' for Inactive)
REMARK    1  A    between atoms: C_2  and  C_4
REMARK    2  A    between atoms: C_8  and  O_9
REMARK    3  A    between atoms: O_9  and  C_10
REMARK    4  A    between atoms: C_10  and  C_11
REMARK    5  A    between atoms: C_10  and  C_17
REMARK                            x       y       z     vdW  Elec       q    Type
REMARK                         _______ _______ _______ _____ _____    ______ ____
ROOT
ATOM      1  C   UNL     1      12.585   5.380  11.977  0.00  0.00    +0.040 A 
ATOM      2  C   UNL     1      13.702   4.537  11.949  0.00  0.00    +0.013 A 
ATOM      3  C   UNL     1      14.598   4.598  10.882  0.00  0.00    +0.004 A 
ATOM      4  C   UNL     1      14.386   5.501   9.836  0.00  0.00    +0.046 A 
ATOM      5  C   UNL     1      13.274   6.343   9.850  0.00  0.00    +0.122 A 
ATOM      6  C   UNL     1      12.377   6.281  10.925  0.00  0.00    +0.058 A 
ENDROOT
BRANCH   1   8
ATOM      7  N   UNL     1      12.236   5.242  14.391  0.00  0.00    -0.325 N 
ATOM      8  C   UNL     1      11.669   5.289  13.146  0.00  0.00    +0.242 C 
ATOM      9  O   UNL     1      10.451   5.294  13.012  0.00  0.00    -0.270 OA
ATOM     10  H   UNL     1      11.595   5.287  15.173  0.00  0.00    +0.145 HD
ATOM     11  H   UNL     1      13.202   5.475  14.561  0.00  0.00    +0.145 HD
ENDBRANCH   1   8
BRANCH   5  12
ATOM     12  O   UNL     1      12.920   7.213   8.855  0.00  0.00    -0.484 OA
BRANCH  12  13
ATOM     13  C   UNL     1      12.515   6.682   7.582  0.00  0.00    +0.208 C 
BRANCH  13  14
ATOM     14  C   UNL     1      11.133   7.138   7.155  0.00  0.00    +0.011 A 
ATOM     15  C   UNL     1       9.960   6.461   7.501  0.00  0.00    +0.010 A 
ATOM     16  C   UNL     1       8.724   6.996   7.143  0.00  0.00    +0.020 A 
ATOM     17  C   UNL     1       8.700   8.196   6.451  0.00  0.00    +0.111 A 
ATOM     18  N   UNL     1       9.808   8.875   6.090  0.00  0.00    -0.263 NA
ATOM     19  C   UNL     1      10.992   8.335   6.451  0.00  0.00    +0.118 A 
ENDBRANCH  13  14
BRANCH  13  20
ATOM     20  C   UNL     1      13.496   7.142   6.509  0.00  0.00    +0.034 C 
ATOM     21  C   UNL     1      13.745   6.294   5.284  0.00  0.00    +0.008 C 
ATOM     22  C   UNL     1      14.845   6.495   6.290  0.00  0.00    +0.008 C 
ENDBRANCH  13  20
ENDBRANCH  12  13
ENDBRANCH   5  12
TORSDOF 5
ENDMDL
MODEL 8
REMARK VINA RESULT:      -6.8      2.895      6.010
REMARK  Name = ZINC001228612316
REMARK  5 active torsions:
REMARK  status: ('A' for Active; 'I' for Inactive)
REMARK    1  A    between atoms: C_2  and  C_4
REMARK    2  A    between atoms: C_8  and  O_9
REMARK    3  A    between atoms: O_9  and  C_10
REMARK    4  A    between atoms: C_10  and  C_11
REMARK    5  A    between atoms: C_10  and  C_17
REMARK                            x       y       z     vdW  Elec       q    Type
REMARK                         _______ _______ _______ _____ _____    ______ ____
ROOT
ATOM      1  C   UNL     1      16.962   4.178   8.963  0.00  0.00    +0.040 A 
ATOM      2  C   UNL     1      16.985   3.559   7.708  0.00  0.00    +0.013 A 
ATOM      3  C   UNL     1      15.797   3.122   7.122  0.00  0.00    +0.004 A 
ATOM      4  C   UNL     1      14.579   3.301   7.784  0.00  0.00    +0.046 A 
ATOM      5  C   UNL     1      14.544   3.913   9.037  0.00  0.00    +0.122 A 
ATOM      6  C   UNL     1      15.739   4.353   9.621  0.00  0.00    +0.058 A 
ENDROOT
BRANCH   1   8
ATOM      7  N   UNL     1      19.348   3.838   9.364  0.00  0.00    -0.325 N 
ATOM      8  C   UNL     1      18.254   4.642   9.537  0.00  0.00    +0.242 C 
ATOM      9  O   UNL     1      18.354   5.720  10.112  0.00  0.00    -0.270 OA
ATOM     10  H   UNL     1      20.234   4.221   9.668  0.00  0.00    +0.145 HD
ATOM     11  H   UNL     1      19.368   3.076   8.703  0.00  0.00    +0.145 HD
ENDBRANCH   1   8
BRANCH   5  12
ATOM     12  O   UNL     1      13.428   4.078   9.812  0.00  0.00    -0.484 OA
BRANCH  12  13
ATOM     13  C   UNL     1      12.986   5.412  10.115  0.00  0.00    +0.208 C 
BRANCH  13  14
ATOM     14  C   UNL     1      12.400   6.135   8.918  0.00  0.00    +0.011 A 
ATOM     15  C   UNL     1      11.262   5.695   8.237  0.00  0.00    +0.010 A 
ATOM     16  C   UNL     1      10.736   6.466   7.202  0.00  0.00    +0.020 A 
ATOM     17  C   UNL     1      11.366   7.658   6.881  0.00  0.00    +0.111 A 
ATOM     18  N   UNL     1      12.471   8.112   7.506  0.00  0.00    -0.263 NA
ATOM     19  C   UNL     1      12.958   7.346   8.506  0.00  0.00    +0.118 A 
ENDBRANCH  13  14
BRANCH  13  20
ATOM     20  C   UNL     1      11.901   5.353  11.184  0.00  0.00    +0.034 C 
ATOM     21  C   UNL     1      11.411   6.616  11.851  0.00  0.00    +0.008 C 
ATOM     22  C   UNL     1      12.173   5.596  12.652  0.00  0.00    +0.008 C 
ENDBRANCH  13  20
ENDBRANCH  12  13
ENDBRANCH   5  12
TORSDOF 5
ENDMDL
MODEL 9
REMARK VINA RESULT:      -6.8      3.920      5.705
REMARK  Name = ZINC001228612316
REMARK  5 active torsions:
REMARK  status: ('A' for Active; 'I' for Inactive)
REMARK    1  A    between atoms: C_2  and  C_4
REMARK    2  A    between atoms: C_8  and  O_9
REMARK    3  A    between atoms: O_9  and  C_10
REMARK    4  A    between atoms: C_10  and  C_11
REMARK    5  A    between atoms: C_10  and  C_17
REMARK                            x       y       z     vdW  Elec       q    Type
REMARK                         _______ _______ _______ _____ _____    ______ ____
ROOT
ATOM      1  C   UNL     1      17.453   3.653   9.035  0.00  0.00    +0.040 A 
ATOM      2  C   UNL     1      17.811   4.836   9.690  0.00  0.00    +0.013 A 
ATOM      3  C   UNL     1      16.844   5.804   9.963  0.00  0.00    +0.004 A 
ATOM      4  C   UNL     1      15.514   5.597   9.587  0.00  0.00    +0.046 A 
ATOM      5  C   UNL     1      15.146   4.423   8.930  0.00  0.00    +0.122 A 
ATOM      6  C   UNL     1      16.119   3.452   8.658  0.00  0.00    +0.058 A 
ENDROOT
BRANCH   1   8
ATOM      7  N   UNL     1      19.673   2.750   9.507  0.00  0.00    -0.325 N 
ATOM      8  C   UNL     1      18.517   2.644   8.782  0.00  0.00    +0.242 C 
ATOM      9  O   UNL     1      18.360   1.728   7.984  0.00  0.00    -0.270 OA
ATOM     10  H   UNL     1      20.338   1.995   9.396  0.00  0.00    +0.145 HD
ATOM     11  H   UNL     1      19.752   3.328  10.329  0.00  0.00    +0.145 HD
ENDBRANCH   1   8
BRANCH   5  12
ATOM     12  O   UNL     1      13.898   4.137   8.448  0.00  0.00    -0.484 OA
BRANCH  12  13
ATOM     13  C   UNL     1      13.189   5.150   7.716  0.00  0.00    +0.208 C 
BRANCH  13  14
ATOM     14  C   UNL     1      13.685   5.319   6.293  0.00  0.00    +0.011 A 
ATOM     15  C   UNL     1      13.418   4.402   5.273  0.00  0.00    +0.010 A 
ATOM     16  C   UNL     1      13.836   4.676   3.972  0.00  0.00    +0.020 A 
ATOM     17  C   UNL     1      14.507   5.864   3.731  0.00  0.00    +0.111 A 
ATOM     18  N   UNL     1      14.793   6.770   4.689  0.00  0.00    -0.263 NA
ATOM     19  C   UNL     1      14.375   6.479   5.940  0.00  0.00    +0.118 A 
ENDBRANCH  13  14
BRANCH  13  20
ATOM     20  C   UNL     1      11.712   4.776   7.639  0.00  0.00    +0.034 C 
ATOM     21  C   UNL     1      10.664   5.837   7.405  0.00  0.00    +0.008 C 
ATOM     22  C   UNL     1      10.716   5.117   8.725  0.00  0.00    +0.008 C 
ENDBRANCH  13  20
ENDBRANCH  12  13
ENDBRANCH   5  12
TORSDOF 5
ENDMDL
