MODEL 1
REMARK VINA RESULT:      -7.7      0.000      0.000
REMARK  Name = ZINC001228612316
REMARK  5 active torsions:
REMARK  status: ('A' for Active; 'I' for Inactive)
REMARK    1  A    between atoms: C_2  and  C_4
REMARK    2  A    between atoms: C_8  and  O_9
REMARK    3  A    between atoms: O_9  and  C_10
REMARK    4  A    between atoms: C_10  and  C_11
REMARK    5  A    between atoms: C_10  and  C_17
REMARK                            x       y       z     vdW  Elec       q    Type
REMARK                         _______ _______ _______ _____ _____    ______ ____
ROOT
ATOM      1  C   UNL     1      13.358   4.455  13.941  0.00  0.00    +0.040 A 
ATOM      2  C   UNL     1      12.274   5.338  13.912  0.00  0.00    +0.013 A 
ATOM      3  C   UNL     1      11.793   5.815  12.692  0.00  0.00    +0.004 A 
ATOM      4  C   UNL     1      12.390   5.413  11.494  0.00  0.00    +0.046 A 
ATOM      5  C   UNL     1      13.475   4.537  11.511  0.00  0.00    +0.122 A 
ATOM      6  C   UNL     1      13.954   4.058  12.737  0.00  0.00    +0.058 A 
ENDROOT
BRANCH   1   8
ATOM      7  N   UNL     1      13.076   2.989  15.875  0.00  0.00    -0.325 N 
ATOM      8  C   UNL     1      13.823   3.960  15.265  0.00  0.00    +0.242 C 
ATOM      9  O   UNL     1      14.854   4.373  15.781  0.00  0.00    -0.270 OA
ATOM     10  H   UNL     1      13.466   2.593  16.721  0.00  0.00    +0.145 HD
ATOM     11  H   UNL     1      12.370   2.457  15.389  0.00  0.00    +0.145 HD
ENDBRANCH   1   8
BRANCH   5  12
ATOM     12  O   UNL     1      14.187   4.129  10.415  0.00  0.00    -0.484 OA
BRANCH  12  13
ATOM     13  C   UNL     1      14.905   5.112   9.651  0.00  0.00    +0.208 C 
BRANCH  13  14
ATOM     14  C   UNL     1      16.366   4.762   9.446  0.00  0.00    +0.011 A 
ATOM     15  C   UNL     1      17.414   5.444  10.070  0.00  0.00    +0.010 A 
ATOM     16  C   UNL     1      18.724   5.003   9.898  0.00  0.00    +0.020 A 
ATOM     17  C   UNL     1      18.946   3.887   9.106  0.00  0.00    +0.111 A 
ATOM     18  N   UNL     1      17.964   3.207   8.480  0.00  0.00    -0.263 NA
ATOM     19  C   UNL     1      16.704   3.656   8.666  0.00  0.00    +0.118 A 
ENDBRANCH  13  14
BRANCH  13  20
ATOM     20  C   UNL     1      14.271   5.238   8.270  0.00  0.00    +0.034 C 
ATOM     21  C   UNL     1      14.663   6.367   7.346  0.00  0.00    +0.008 C 
ATOM     22  C   UNL     1      13.271   6.316   7.915  0.00  0.00    +0.008 C 
ENDBRANCH  13  20
ENDBRANCH  12  13
ENDBRANCH   5  12
TORSDOF 5
ENDMDL
MODEL 2
REMARK VINA RESULT:      -7.2      2.247      6.039
REMARK  Name = ZINC001228612316
REMARK  5 active torsions:
REMARK  status: ('A' for Active; 'I' for Inactive)
REMARK    1  A    between atoms: C_2  and  C_4
REMARK    2  A    between atoms: C_8  and  O_9
REMARK    3  A    between atoms: O_9  and  C_10
REMARK    4  A    between atoms: C_10  and  C_11
REMARK    5  A    between atoms: C_10  and  C_17
REMARK                            x       y       z     vdW  Elec       q    Type
REMARK                         _______ _______ _______ _____ _____    ______ ____
ROOT
ATOM      1  C   UNL     1      17.589   3.224   8.654  0.00  0.00    +0.040 A 
ATOM      2  C   UNL     1      18.647   3.794   9.372  0.00  0.00    +0.013 A 
ATOM      3  C   UNL     1      18.488   5.040   9.979  0.00  0.00    +0.004 A 
ATOM      4  C   UNL     1      17.274   5.724   9.876  0.00  0.00    +0.046 A 
ATOM      5  C   UNL     1      16.214   5.168   9.160  0.00  0.00    +0.122 A 
ATOM      6  C   UNL     1      16.376   3.916   8.553  0.00  0.00    +0.058 A 
ENDROOT
BRANCH   1   8
ATOM      7  N   UNL     1      18.344   0.907   8.829  0.00  0.00    -0.325 N 
ATOM      8  C   UNL     1      17.802   1.886   8.040  0.00  0.00    +0.242 C 
ATOM      9  O   UNL     1      17.473   1.648   6.884  0.00  0.00    -0.270 OA
ATOM     10  H   UNL     1      18.381  -0.020   8.424  0.00  0.00    +0.145 HD
ATOM     11  H   UNL     1      18.404   0.984   9.832  0.00  0.00    +0.145 HD
ENDBRANCH   1   8
BRANCH   5  12
ATOM     12  O   UNL     1      15.007   5.769   8.927  0.00  0.00    -0.484 OA
BRANCH  12  13
ATOM     13  C   UNL     1      13.803   5.030   9.187  0.00  0.00    +0.208 C 
BRANCH  13  14
ATOM     14  C   UNL     1      13.188   5.341  10.538  0.00  0.00    +0.011 A 
ATOM     15  C   UNL     1      12.135   6.243  10.712  0.00  0.00    +0.010 A 
ATOM     16  C   UNL     1      11.568   6.405  11.974  0.00  0.00    +0.020 A 
ATOM     17  C   UNL     1      12.071   5.656  13.025  0.00  0.00    +0.111 A 
ATOM     18  N   UNL     1      13.091   4.783  12.901  0.00  0.00    -0.263 NA
ATOM     19  C   UNL     1      13.621   4.644  11.666  0.00  0.00    +0.118 A 
ENDBRANCH  13  14
BRANCH  13  20
ATOM     20  C   UNL     1      12.762   5.372   8.126  0.00  0.00    +0.034 C 
ATOM     21  C   UNL     1      11.785   4.326   7.645  0.00  0.00    +0.008 C 
ATOM     22  C   UNL     1      12.832   4.858   6.705  0.00  0.00    +0.008 C 
ENDBRANCH  13  20
ENDBRANCH  12  13
ENDBRANCH   5  12
TORSDOF 5
ENDMDL
MODEL 3
REMARK VINA RESULT:      -7.2      2.117      3.339
REMARK  Name = ZINC001228612316
REMARK  5 active torsions:
REMARK  status: ('A' for Active; 'I' for Inactive)
REMARK    1  A    between atoms: C_2  and  C_4
REMARK    2  A    between atoms: C_8  and  O_9
REMARK    3  A    between atoms: O_9  and  C_10
REMARK    4  A    between atoms: C_10  and  C_11
REMARK    5  A    between atoms: C_10  and  C_17
REMARK                            x       y       z     vdW  Elec       q    Type
REMARK                         _______ _______ _______ _____ _____    ______ ____
ROOT
ATOM      1  C   UNL     1      13.384   4.432  14.083  0.00  0.00    +0.040 A 
ATOM      2  C   UNL     1      12.235   5.227  14.004  0.00  0.00    +0.013 A 
ATOM      3  C   UNL     1      11.790   5.690  12.766  0.00  0.00    +0.004 A 
ATOM      4  C   UNL     1      12.486   5.364  11.599  0.00  0.00    +0.046 A 
ATOM      5  C   UNL     1      13.636   4.576  11.666  0.00  0.00    +0.122 A 
ATOM      6  C   UNL     1      14.079   4.110  12.911  0.00  0.00    +0.058 A 
ENDROOT
BRANCH   1   8
ATOM      7  N   UNL     1      12.993   3.051  16.059  0.00  0.00    -0.325 N 
ATOM      8  C   UNL     1      13.809   3.948  15.424  0.00  0.00    +0.242 C 
ATOM      9  O   UNL     1      14.865   4.303  15.933  0.00  0.00    -0.270 OA
ATOM     10  H   UNL     1      13.352   2.655  16.919  0.00  0.00    +0.145 HD
ATOM     11  H   UNL     1      12.253   2.555  15.587  0.00  0.00    +0.145 HD
ENDBRANCH   1   8
BRANCH   5  12
ATOM     12  O   UNL     1      14.441   4.251  10.609  0.00  0.00    -0.484 OA
BRANCH  12  13
ATOM     13  C   UNL     1      13.843   3.689   9.429  0.00  0.00    +0.208 C 
BRANCH  13  14
ATOM     14  C   UNL     1      13.752   4.671   8.277  0.00  0.00    +0.011 A 
ATOM     15  C   UNL     1      12.545   5.045   7.680  0.00  0.00    +0.010 A 
ATOM     16  C   UNL     1      12.541   6.021   6.685  0.00  0.00    +0.020 A 
ATOM     17  C   UNL     1      13.747   6.596   6.320  0.00  0.00    +0.111 A 
ATOM     18  N   UNL     1      14.933   6.257   6.864  0.00  0.00    -0.263 NA
ATOM     19  C   UNL     1      14.908   5.310   7.826  0.00  0.00    +0.118 A 
ENDBRANCH  13  14
BRANCH  13  20
ATOM     20  C   UNL     1      14.681   2.508   8.952  0.00  0.00    +0.034 C 
ATOM     21  C   UNL     1      14.158   1.580   7.882  0.00  0.00    +0.008 C 
ATOM     22  C   UNL     1      14.347   1.070   9.284  0.00  0.00    +0.008 C 
ENDBRANCH  13  20
ENDBRANCH  12  13
ENDBRANCH   5  12
TORSDOF 5
ENDMDL
MODEL 4
REMARK VINA RESULT:      -7.1      2.491      5.995
REMARK  Name = ZINC001228612316
REMARK  5 active torsions:
REMARK  status: ('A' for Active; 'I' for Inactive)
REMARK    1  A    between atoms: C_2  and  C_4
REMARK    2  A    between atoms: C_8  and  O_9
REMARK    3  A    between atoms: O_9  and  C_10
REMARK    4  A    between atoms: C_10  and  C_11
REMARK    5  A    between atoms: C_10  and  C_17
REMARK                            x       y       z     vdW  Elec       q    Type
REMARK                         _______ _______ _______ _____ _____    ______ ____
ROOT
ATOM      1  C   UNL     1      17.393   3.147   8.280  0.00  0.00    +0.040 A 
ATOM      2  C   UNL     1      17.031   2.603   7.043  0.00  0.00    +0.013 A 
ATOM      3  C   UNL     1      15.979   3.159   6.315  0.00  0.00    +0.004 A 
ATOM      4  C   UNL     1      15.282   4.262   6.815  0.00  0.00    +0.046 A 
ATOM      5  C   UNL     1      15.630   4.811   8.050  0.00  0.00    +0.122 A 
ATOM      6  C   UNL     1      16.689   4.251   8.777  0.00  0.00    +0.058 A 
ENDROOT
BRANCH   1   8
ATOM      7  N   UNL     1      18.481   1.181   9.237  0.00  0.00    -0.325 N 
ATOM      8  C   UNL     1      18.532   2.530   9.010  0.00  0.00    +0.242 C 
ATOM      9  O   UNL     1      19.503   3.188   9.365  0.00  0.00    -0.270 OA
ATOM     10  H   UNL     1      19.312   0.765   9.639  0.00  0.00    +0.145 HD
ATOM     11  H   UNL     1      17.833   0.571   8.763  0.00  0.00    +0.145 HD
ENDBRANCH   1   8
BRANCH   5  12
ATOM     12  O   UNL     1      14.981   5.839   8.676  0.00  0.00    -0.484 OA
BRANCH  12  13
ATOM     13  C   UNL     1      13.547   5.799   8.769  0.00  0.00    +0.208 C 
BRANCH  13  14
ATOM     14  C   UNL     1      13.037   5.835  10.197  0.00  0.00    +0.011 A 
ATOM     15  C   UNL     1      11.967   6.633  10.610  0.00  0.00    +0.010 A 
ATOM     16  C   UNL     1      11.504   6.541  11.920  0.00  0.00    +0.020 A 
ATOM     17  C   UNL     1      12.126   5.650  12.779  0.00  0.00    +0.111 A 
ATOM     18  N   UNL     1      13.166   4.870  12.423  0.00  0.00    -0.263 NA
ATOM     19  C   UNL     1      13.594   4.978  11.147  0.00  0.00    +0.118 A 
ENDBRANCH  13  14
BRANCH  13  20
ATOM     20  C   UNL     1      12.961   7.008   8.048  0.00  0.00    +0.034 C 
ATOM     21  C   UNL     1      11.774   6.851   7.127  0.00  0.00    +0.008 C 
ATOM     22  C   UNL     1      13.113   7.237   6.561  0.00  0.00    +0.008 C 
ENDBRANCH  13  20
ENDBRANCH  12  13
ENDBRANCH   5  12
TORSDOF 5
ENDMDL
MODEL 5
REMARK VINA RESULT:      -7.0      3.510      5.693
REMARK  Name = ZINC001228612316
REMARK  5 active torsions:
REMARK  status: ('A' for Active; 'I' for Inactive)
REMARK    1  A    between atoms: C_2  and  C_4
REMARK    2  A    between atoms: C_8  and  O_9
REMARK    3  A    between atoms: O_9  and  C_10
REMARK    4  A    between atoms: C_10  and  C_11
REMARK    5  A    between atoms: C_10  and  C_17
REMARK                            x       y       z     vdW  Elec       q    Type
REMARK                         _______ _______ _______ _____ _____    ______ ____
ROOT
ATOM      1  C   UNL     1      12.553   5.279  12.271  0.00  0.00    +0.040 A 
ATOM      2  C   UNL     1      13.713   4.505  12.150  0.00  0.00    +0.013 A 
ATOM      3  C   UNL     1      14.499   4.599  11.001  0.00  0.00    +0.004 A 
ATOM      4  C   UNL     1      14.134   5.465   9.967  0.00  0.00    +0.046 A 
ATOM      5  C   UNL     1      12.978   6.238  10.075  0.00  0.00    +0.122 A 
ATOM      6  C   UNL     1      12.192   6.144  11.231  0.00  0.00    +0.058 A 
ENDROOT
BRANCH   1   8
ATOM      7  N   UNL     1      12.445   5.125  14.707  0.00  0.00    -0.325 N 
ATOM      8  C   UNL     1      11.759   5.157  13.523  0.00  0.00    +0.242 C 
ATOM      9  O   UNL     1      10.534   5.123  13.509  0.00  0.00    -0.270 OA
ATOM     10  H   UNL     1      11.882   5.149  15.548  0.00  0.00    +0.145 HD
ATOM     11  H   UNL     1      13.415   5.388  14.784  0.00  0.00    +0.145 HD
ENDBRANCH   1   8
BRANCH   5  12
ATOM     12  O   UNL     1      12.479   7.065   9.105  0.00  0.00    -0.484 OA
BRANCH  12  13
ATOM     13  C   UNL     1      12.024   6.488   7.870  0.00  0.00    +0.208 C 
BRANCH  13  14
ATOM     14  C   UNL     1      10.550   6.724   7.604  0.00  0.00    +0.011 A 
ATOM     15  C   UNL     1      10.073   7.746   6.780  0.00  0.00    +0.010 A 
ATOM     16  C   UNL     1       8.708   7.839   6.517  0.00  0.00    +0.020 A 
ATOM     17  C   UNL     1       7.860   6.903   7.087  0.00  0.00    +0.111 A 
ATOM     18  N   UNL     1       8.280   5.908   7.895  0.00  0.00    -0.263 NA
ATOM     19  C   UNL     1       9.608   5.840   8.131  0.00  0.00    +0.118 A 
ENDBRANCH  13  14
BRANCH  13  20
ATOM     20  C   UNL     1      12.798   7.106   6.710  0.00  0.00    +0.034 C 
ATOM     21  C   UNL     1      13.310   6.243   5.582  0.00  0.00    +0.008 C 
ATOM     22  C   UNL     1      14.285   6.912   6.511  0.00  0.00    +0.008 C 
ENDBRANCH  13  20
ENDBRANCH  12  13
ENDBRANCH   5  12
TORSDOF 5
ENDMDL
MODEL 6
REMARK VINA RESULT:      -6.9      2.484      2.989
REMARK  Name = ZINC001228612316
REMARK  5 active torsions:
REMARK  status: ('A' for Active; 'I' for Inactive)
REMARK    1  A    between atoms: C_2  and  C_4
REMARK    2  A    between atoms: C_8  and  O_9
REMARK    3  A    between atoms: O_9  and  C_10
REMARK    4  A    between atoms: C_10  and  C_11
REMARK    5  A    between atoms: C_10  and  C_17
REMARK                            x       y       z     vdW  Elec       q    Type
REMARK                         _______ _______ _______ _____ _____    ______ ____
ROOT
ATOM      1  C   UNL     1      11.351   5.410  11.407  0.00  0.00    +0.040 A 
ATOM      2  C   UNL     1      11.951   5.289  12.665  0.00  0.00    +0.013 A 
ATOM      3  C   UNL     1      13.265   4.833  12.773  0.00  0.00    +0.004 A 
ATOM      4  C   UNL     1      13.989   4.496  11.627  0.00  0.00    +0.046 A 
ATOM      5  C   UNL     1      13.401   4.609  10.367  0.00  0.00    +0.122 A 
ATOM      6  C   UNL     1      12.082   5.069  10.262  0.00  0.00    +0.058 A 
ENDROOT
BRANCH   1   8
ATOM      7  N   UNL     1       9.463   6.265  10.113  0.00  0.00    -0.325 N 
ATOM      8  C   UNL     1       9.954   5.918  11.343  0.00  0.00    +0.242 C 
ATOM      9  O   UNL     1       9.249   5.991  12.342  0.00  0.00    -0.270 OA
ATOM     10  H   UNL     1       8.481   6.505  10.079  0.00  0.00    +0.145 HD
ATOM     11  H   UNL     1       9.913   6.000   9.250  0.00  0.00    +0.145 HD
ENDBRANCH   1   8
BRANCH   5  12
ATOM     12  O   UNL     1      13.979   4.242   9.182  0.00  0.00    -0.484 OA
BRANCH  12  13
ATOM     13  C   UNL     1      14.894   5.151   8.548  0.00  0.00    +0.208 C 
BRANCH  13  14
ATOM     14  C   UNL     1      16.350   4.831   8.831  0.00  0.00    +0.011 A 
ATOM     15  C   UNL     1      17.122   5.532   9.761  0.00  0.00    +0.010 A 
ATOM     16  C   UNL     1      18.426   5.118  10.026  0.00  0.00    +0.020 A 
ATOM     17  C   UNL     1      18.917   4.011   9.352  0.00  0.00    +0.111 A 
ATOM     18  N   UNL     1      18.208   3.314   8.441  0.00  0.00    -0.263 NA
ATOM     19  C   UNL     1      16.947   3.737   8.205  0.00  0.00    +0.118 A 
ENDBRANCH  13  14
BRANCH  13  20
ATOM     20  C   UNL     1      14.702   5.086   7.036  0.00  0.00    +0.034 C 
ATOM     21  C   UNL     1      15.041   6.275   6.168  0.00  0.00    +0.008 C 
ATOM     22  C   UNL     1      13.609   5.837   6.309  0.00  0.00    +0.008 C 
ENDBRANCH  13  20
ENDBRANCH  12  13
ENDBRANCH   5  12
TORSDOF 5
ENDMDL
MODEL 7
REMARK VINA RESULT:      -6.9      2.872      6.111
REMARK  Name = ZINC001228612316
REMARK  5 active torsions:
REMARK  status: ('A' for Active; 'I' for Inactive)
REMARK    1  A    between atoms: C_2  and  C_4
REMARK    2  A    between atoms: C_8  and  O_9
REMARK    3  A    between atoms: O_9  and  C_10
REMARK    4  A    between atoms: C_10  and  C_11
REMARK    5  A    between atoms: C_10  and  C_17
REMARK                            x       y       z     vdW  Elec       q    Type
REMARK                         _______ _______ _______ _____ _____    ______ ____
ROOT
ATOM      1  C   UNL     1      16.971   4.172   8.966  0.00  0.00    +0.040 A 
ATOM      2  C   UNL     1      16.987   3.561   7.707  0.00  0.00    +0.013 A 
ATOM      3  C   UNL     1      15.796   3.128   7.124  0.00  0.00    +0.004 A 
ATOM      4  C   UNL     1      14.581   3.303   7.792  0.00  0.00    +0.046 A 
ATOM      5  C   UNL     1      14.552   3.907   9.049  0.00  0.00    +0.122 A 
ATOM      6  C   UNL     1      15.750   4.343   9.631  0.00  0.00    +0.058 A 
ENDROOT
BRANCH   1   8
ATOM      7  N   UNL     1      19.347   3.806   9.396  0.00  0.00    -0.325 N 
ATOM      8  C   UNL     1      18.265   4.632   9.537  0.00  0.00    +0.242 C 
ATOM      9  O   UNL     1      18.377   5.724  10.082  0.00  0.00    -0.270 OA
ATOM     10  H   UNL     1      20.237   4.184   9.697  0.00  0.00    +0.145 HD
ATOM     11  H   UNL     1      19.360   3.026   8.758  0.00  0.00    +0.145 HD
ENDBRANCH   1   8
BRANCH   5  12
ATOM     12  O   UNL     1      13.441   4.068   9.831  0.00  0.00    -0.484 OA
BRANCH  12  13
ATOM     13  C   UNL     1      12.995   5.399  10.135  0.00  0.00    +0.208 C 
BRANCH  13  14
ATOM     14  C   UNL     1      12.402   6.121   8.941  0.00  0.00    +0.011 A 
ATOM     15  C   UNL     1      11.254   5.687   8.274  0.00  0.00    +0.010 A 
ATOM     16  C   UNL     1      10.724   6.457   7.240  0.00  0.00    +0.020 A 
ATOM     17  C   UNL     1      11.360   7.642   6.907  0.00  0.00    +0.111 A 
ATOM     18  N   UNL     1      12.475   8.091   7.519  0.00  0.00    -0.263 NA
ATOM     19  C   UNL     1      12.965   7.326   8.518  0.00  0.00    +0.118 A 
ENDBRANCH  13  14
BRANCH  13  20
ATOM     20  C   UNL     1      11.912   5.336  11.208  0.00  0.00    +0.034 C 
ATOM     21  C   UNL     1      11.420   6.597  11.876  0.00  0.00    +0.008 C 
ATOM     22  C   UNL     1      12.188   5.580  12.675  0.00  0.00    +0.008 C 
ENDBRANCH  13  20
ENDBRANCH  12  13
ENDBRANCH   5  12
TORSDOF 5
ENDMDL
MODEL 8
REMARK VINA RESULT:      -6.8      1.962      6.055
REMARK  Name = ZINC001228612316
REMARK  5 active torsions:
REMARK  status: ('A' for Active; 'I' for Inactive)
REMARK    1  A    between atoms: C_2  and  C_4
REMARK    2  A    between atoms: C_8  and  O_9
REMARK    3  A    between atoms: O_9  and  C_10
REMARK    4  A    between atoms: C_10  and  C_11
REMARK    5  A    between atoms: C_10  and  C_17
REMARK                            x       y       z     vdW  Elec       q    Type
REMARK                         _______ _______ _______ _____ _____    ______ ____
ROOT
ATOM      1  C   UNL     1      16.245   3.611   7.858  0.00  0.00    +0.040 A 
ATOM      2  C   UNL     1      15.925   4.226   6.642  0.00  0.00    +0.013 A 
ATOM      3  C   UNL     1      15.138   5.378   6.628  0.00  0.00    +0.004 A 
ATOM      4  C   UNL     1      14.667   5.924   7.825  0.00  0.00    +0.046 A 
ATOM      5  C   UNL     1      14.976   5.317   9.042  0.00  0.00    +0.122 A 
ATOM      6  C   UNL     1      15.768   4.161   9.054  0.00  0.00    +0.058 A 
ENDROOT
BRANCH   1   8
ATOM      7  N   UNL     1      17.585   1.926   9.013  0.00  0.00    -0.325 N 
ATOM      8  C   UNL     1      17.101   2.395   7.821  0.00  0.00    +0.242 C 
ATOM      9  O   UNL     1      17.340   1.805   6.774  0.00  0.00    -0.270 OA
ATOM     10  H   UNL     1      18.075   1.041   8.978  0.00  0.00    +0.145 HD
ATOM     11  H   UNL     1      17.226   2.229   9.906  0.00  0.00    +0.145 HD
ENDBRANCH   1   8
BRANCH   5  12
ATOM     12  O   UNL     1      14.517   5.712  10.269  0.00  0.00    -0.484 OA
BRANCH  12  13
ATOM     13  C   UNL     1      13.288   5.153  10.762  0.00  0.00    +0.208 C 
BRANCH  13  14
ATOM     14  C   UNL     1      13.361   4.735  12.218  0.00  0.00    +0.011 A 
ATOM     15  C   UNL     1      14.310   3.836  12.712  0.00  0.00    +0.010 A 
ATOM     16  C   UNL     1      14.365   3.573  14.079  0.00  0.00    +0.020 A 
ATOM     17  C   UNL     1      13.467   4.221  14.912  0.00  0.00    +0.111 A 
ATOM     18  N   UNL     1      12.531   5.087  14.475  0.00  0.00    -0.263 NA
ATOM     19  C   UNL     1      12.502   5.325  13.146  0.00  0.00    +0.118 A 
ENDBRANCH  13  14
BRANCH  13  20
ATOM     20  C   UNL     1      12.178   6.193  10.644  0.00  0.00    +0.034 C 
ATOM     21  C   UNL     1      10.746   5.765  10.433  0.00  0.00    +0.008 C 
ATOM     22  C   UNL     1      11.472   6.504   9.343  0.00  0.00    +0.008 C 
ENDBRANCH  13  20
ENDBRANCH  12  13
ENDBRANCH   5  12
TORSDOF 5
ENDMDL
MODEL 9
REMARK VINA RESULT:      -6.8      3.937      5.735
REMARK  Name = ZINC001228612316
REMARK  5 active torsions:
REMARK  status: ('A' for Active; 'I' for Inactive)
REMARK    1  A    between atoms: C_2  and  C_4
REMARK    2  A    between atoms: C_8  and  O_9
REMARK    3  A    between atoms: O_9  and  C_10
REMARK    4  A    between atoms: C_10  and  C_11
REMARK    5  A    between atoms: C_10  and  C_17
REMARK                            x       y       z     vdW  Elec       q    Type
REMARK                         _______ _______ _______ _____ _____    ______ ____
ROOT
ATOM      1  C   UNL     1      17.744   3.634   9.161  0.00  0.00    +0.040 A 
ATOM      2  C   UNL     1      17.998   4.840   9.823  0.00  0.00    +0.013 A 
ATOM      3  C   UNL     1      16.983   5.786   9.968  0.00  0.00    +0.004 A 
ATOM      4  C   UNL     1      15.708   5.534   9.455  0.00  0.00    +0.046 A 
ATOM      5  C   UNL     1      15.443   4.337   8.790  0.00  0.00    +0.122 A 
ATOM      6  C   UNL     1      16.464   3.388   8.647  0.00  0.00    +0.058 A 
ENDROOT
BRANCH   1   8
ATOM      7  N   UNL     1      18.531   1.321   9.111  0.00  0.00    -0.325 N 
ATOM      8  C   UNL     1      18.854   2.650   9.047  0.00  0.00    +0.242 C 
ATOM      9  O   UNL     1      20.013   3.004   8.865  0.00  0.00    -0.270 OA
ATOM     10  H   UNL     1      19.284   0.671   8.926  0.00  0.00    +0.145 HD
ATOM     11  H   UNL     1      17.585   0.984   9.019  0.00  0.00    +0.145 HD
ENDBRANCH   1   8
BRANCH   5  12
ATOM     12  O   UNL     1      14.261   4.007   8.183  0.00  0.00    -0.484 OA
BRANCH  12  13
ATOM     13  C   UNL     1      13.528   5.031   7.491  0.00  0.00    +0.208 C 
BRANCH  13  14
ATOM     14  C   UNL     1      14.046   5.296   6.090  0.00  0.00    +0.011 A 
ATOM     15  C   UNL     1      13.652   4.553   4.973  0.00  0.00    +0.010 A 
ATOM     16  C   UNL     1      14.107   4.918   3.708  0.00  0.00    +0.020 A 
ATOM     17  C   UNL     1      14.941   6.019   3.598  0.00  0.00    +0.111 A 
ATOM     18  N   UNL     1      15.351   6.755   4.651  0.00  0.00    -0.263 NA
ATOM     19  C   UNL     1      14.894   6.380   5.865  0.00  0.00    +0.118 A 
ENDBRANCH  13  14
BRANCH  13  20
ATOM     20  C   UNL     1      12.069   4.606   7.362  0.00  0.00    +0.034 C 
ATOM     21  C   UNL     1      10.970   5.641   7.325  0.00  0.00    +0.008 C 
ATOM     22  C   UNL     1      11.076   4.706   8.499  0.00  0.00    +0.008 C 
ENDBRANCH  13  20
ENDBRANCH  12  13
ENDBRANCH   5  12
TORSDOF 5
ENDMDL
