MODEL 1
REMARK VINA RESULT:      -7.2      0.000      0.000
REMARK  Name = ZINC000329563636
REMARK  3 active torsions:
REMARK  status: ('A' for Active; 'I' for Inactive)
REMARK    1  A    between atoms: C_1  and  C_2
REMARK    2  A    between atoms: C_2  and  N_3
REMARK    3  A    between atoms: N_9  and  C_10
REMARK                            x       y       z     vdW  Elec       q    Type
REMARK                         _______ _______ _______ _____ _____    ______ ____
ROOT
ATOM      1  C   UNL     1      30.469  21.932  13.967  0.00  0.00    +0.112 C 
ATOM      2  C   UNL     1      29.381  20.867  13.806  0.00  0.00    +0.075 C 
ATOM      3  C   UNL     1      29.437  19.722  14.830  0.00  0.00    +0.113 C 
ATOM      4  C   UNL     1      28.735  20.021  16.180  0.00  0.00    +0.048 C 
ATOM      5  C   UNL     1      27.512  19.113  16.237  0.00  0.00    +0.004 C 
ATOM      6  C   UNL     1      27.914  17.901  15.422  0.00  0.00    +0.004 C 
ATOM      7  C   UNL     1      28.662  18.512  14.249  0.00  0.00    +0.048 C 
ATOM      8  O   UNL     1      30.788  19.285  15.070  0.00  0.00    -0.485 OA
ATOM      9  C   UNL     1      31.612  20.294  15.495  0.00  0.00    +0.126 A 
ATOM     10  C   UNL     1      32.596  19.972  16.427  0.00  0.00    +0.046 A 
ATOM     11  C   UNL     1      33.437  20.968  16.926  0.00  0.00    +0.004 A 
ATOM     12  C   UNL     1      33.306  22.281  16.478  0.00  0.00    +0.001 A 
ATOM     13  C   UNL     1      32.340  22.592  15.521  0.00  0.00    +0.009 A 
ATOM     14  C   UNL     1      31.483  21.597  15.023  0.00  0.00    +0.015 A 
ENDROOT
BRANCH   1  21
ATOM     15  N   UNL     1      33.943  24.084   9.181  0.00  0.00    -0.299 N 
ATOM     16  C   UNL     1      33.065  25.082   9.792  0.00  0.00    +0.127 C 
ATOM     17  C   UNL     1      31.646  24.558   9.989  0.00  0.00    +0.129 C 
ATOM     18  N   UNL     1      31.698  23.337  10.779  0.00  0.00    -0.275 N 
ATOM     19  C   UNL     1      31.035  23.291  11.985  0.00  0.00    +0.303 C 
ATOM     20  O   UNL     1      30.391  24.244  12.422  0.00  0.00    -0.253 OA
ATOM     21  N   UNL     1      31.160  22.131  12.693  0.00  0.00    -0.292 N 
ATOM     22  C   UNL     1      32.525  22.275  10.200  0.00  0.00    +0.205 C 
ATOM     23  C   UNL     1      33.704  22.720   9.309  0.00  0.00    +0.233 C 
ATOM     24  O   UNL     1      34.406  21.875   8.751  0.00  0.00    -0.274 OA
ATOM     25  H   UNL     1      31.365  21.286  12.186  0.00  0.00    +0.151 HD
BRANCH  15  27
ATOM     26  C   UNL     1      35.182  26.055   8.355  0.00  0.00    +0.024 C 
ATOM     27  C   UNL     1      35.163  24.546   8.527  0.00  0.00    +0.104 C 
ENDBRANCH  15  27
ENDBRANCH   1  21
TORSDOF 2
ENDMDL
MODEL 2
REMARK VINA RESULT:      -6.8      2.379      4.286
REMARK  Name = ZINC000329563636
REMARK  3 active torsions:
REMARK  status: ('A' for Active; 'I' for Inactive)
REMARK    1  A    between atoms: C_1  and  C_2
REMARK    2  A    between atoms: C_2  and  N_3
REMARK    3  A    between atoms: N_9  and  C_10
REMARK                            x       y       z     vdW  Elec       q    Type
REMARK                         _______ _______ _______ _____ _____    ______ ____
ROOT
ATOM      1  C   UNL     1      31.878  21.625  15.755  0.00  0.00    +0.112 C 
ATOM      2  C   UNL     1      32.306  22.429  16.987  0.00  0.00    +0.075 C 
ATOM      3  C   UNL     1      31.347  22.341  18.185  0.00  0.00    +0.113 C 
ATOM      4  C   UNL     1      31.561  21.108  19.100  0.00  0.00    +0.048 C 
ATOM      5  C   UNL     1      32.093  21.644  20.424  0.00  0.00    +0.004 C 
ATOM      6  C   UNL     1      31.493  23.032  20.527  0.00  0.00    +0.004 C 
ATOM      7  C   UNL     1      31.608  23.559  19.107  0.00  0.00    +0.048 C 
ATOM      8  O   UNL     1      29.969  22.408  17.772  0.00  0.00    -0.485 OA
ATOM      9  C   UNL     1      29.631  21.435  16.868  0.00  0.00    +0.126 A 
ATOM     10  C   UNL     1      28.349  20.894  16.953  0.00  0.00    +0.046 A 
ATOM     11  C   UNL     1      27.965  19.873  16.083  0.00  0.00    +0.004 A 
ATOM     12  C   UNL     1      28.853  19.407  15.117  0.00  0.00    +0.001 A 
ATOM     13  C   UNL     1      30.124  19.974  15.015  0.00  0.00    +0.009 A 
ATOM     14  C   UNL     1      30.522  20.995  15.894  0.00  0.00    +0.015 A 
ENDROOT
BRANCH   1  21
ATOM     15  N   UNL     1      32.695  24.163  10.055  0.00  0.00    -0.299 N 
ATOM     16  C   UNL     1      33.905  23.594  10.646  0.00  0.00    +0.127 C 
ATOM     17  C   UNL     1      34.099  24.029  12.095  0.00  0.00    +0.129 C 
ATOM     18  N   UNL     1      32.913  23.671  12.859  0.00  0.00    -0.275 N 
ATOM     19  C   UNL     1      33.038  22.814  13.929  0.00  0.00    +0.303 C 
ATOM     20  O   UNL     1      34.120  22.339  14.272  0.00  0.00    -0.253 OA
ATOM     21  N   UNL     1      31.881  22.489  14.575  0.00  0.00    -0.292 N 
ATOM     22  C   UNL     1      31.667  24.248  12.348  0.00  0.00    +0.205 C 
ATOM     23  C   UNL     1      31.605  24.537  10.833  0.00  0.00    +0.233 C 
ATOM     24  O   UNL     1      30.604  25.070  10.349  0.00  0.00    -0.274 OA
ATOM     25  H   UNL     1      31.110  23.134  14.520  0.00  0.00    +0.151 HD
BRANCH  15  27
ATOM     26  C   UNL     1      32.963  22.898   7.951  0.00  0.00    +0.024 C 
ATOM     27  C   UNL     1      32.598  24.222   8.601  0.00  0.00    +0.104 C 
ENDBRANCH  15  27
ENDBRANCH   1  21
TORSDOF 2
ENDMDL
MODEL 3
REMARK VINA RESULT:      -6.6      4.413      8.061
REMARK  Name = ZINC000329563636
REMARK  3 active torsions:
REMARK  status: ('A' for Active; 'I' for Inactive)
REMARK    1  A    between atoms: C_1  and  C_2
REMARK    2  A    between atoms: C_2  and  N_3
REMARK    3  A    between atoms: N_9  and  C_10
REMARK                            x       y       z     vdW  Elec       q    Type
REMARK                         _______ _______ _______ _____ _____    ______ ____
ROOT
ATOM      1  C   UNL     1      33.205  22.923  16.985  0.00  0.00    +0.112 C 
ATOM      2  C   UNL     1      33.440  24.379  16.568  0.00  0.00    +0.075 C 
ATOM      3  C   UNL     1      34.166  25.243  17.611  0.00  0.00    +0.113 C 
ATOM      4  C   UNL     1      35.712  25.140  17.578  0.00  0.00    +0.048 C 
ATOM      5  C   UNL     1      36.221  26.492  17.091  0.00  0.00    +0.004 C 
ATOM      6  C   UNL     1      35.168  27.474  17.562  0.00  0.00    +0.004 C 
ATOM      7  C   UNL     1      33.869  26.732  17.299  0.00  0.00    +0.048 C 
ATOM      8  O   UNL     1      33.688  24.985  18.944  0.00  0.00    -0.485 OA
ATOM      9  C   UNL     1      33.801  23.669  19.311  0.00  0.00    +0.126 A 
ATOM     10  C   UNL     1      34.115  23.395  20.640  0.00  0.00    +0.046 A 
ATOM     11  C   UNL     1      34.283  22.074  21.060  0.00  0.00    +0.004 A 
ATOM     12  C   UNL     1      34.116  21.029  20.155  0.00  0.00    +0.001 A 
ATOM     13  C   UNL     1      33.771  21.306  18.832  0.00  0.00    +0.009 A 
ATOM     14  C   UNL     1      33.612  22.633  18.400  0.00  0.00    +0.015 A 
ENDROOT
BRANCH   1  21
ATOM     15  N   UNL     1      27.702  20.046  15.966  0.00  0.00    -0.299 N 
ATOM     16  C   UNL     1      28.725  19.774  14.958  0.00  0.00    +0.127 C 
ATOM     17  C   UNL     1      29.419  21.047  14.483  0.00  0.00    +0.129 C 
ATOM     18  N   UNL     1      29.976  21.740  15.636  0.00  0.00    -0.275 N 
ATOM     19  C   UNL     1      31.332  21.965  15.691  0.00  0.00    +0.303 C 
ATOM     20  O   UNL     1      32.099  21.608  14.797  0.00  0.00    -0.253 OA
ATOM     21  N   UNL     1      31.792  22.583  16.818  0.00  0.00    -0.292 N 
ATOM     22  C   UNL     1      28.994  22.086  16.667  0.00  0.00    +0.205 C 
ATOM     23  C   UNL     1      27.759  21.168  16.786  0.00  0.00    +0.233 C 
ATOM     24  O   UNL     1      26.871  21.433  17.599  0.00  0.00    -0.274 OA
ATOM     25  H   UNL     1      31.152  23.164  17.333  0.00  0.00    +0.151 HD
BRANCH  15  27
ATOM     26  C   UNL     1      27.219  17.629  16.118  0.00  0.00    +0.024 C 
ATOM     27  C   UNL     1      26.667  19.042  16.188  0.00  0.00    +0.104 C 
ENDBRANCH  15  27
ENDBRANCH   1  21
TORSDOF 2
ENDMDL
MODEL 4
REMARK VINA RESULT:      -6.5      2.380      7.731
REMARK  Name = ZINC000329563636
REMARK  3 active torsions:
REMARK  status: ('A' for Active; 'I' for Inactive)
REMARK    1  A    between atoms: C_1  and  C_2
REMARK    2  A    between atoms: C_2  and  N_3
REMARK    3  A    between atoms: N_9  and  C_10
REMARK                            x       y       z     vdW  Elec       q    Type
REMARK                         _______ _______ _______ _____ _____    ______ ____
ROOT
ATOM      1  C   UNL     1      33.260  22.196  13.053  0.00  0.00    +0.112 C 
ATOM      2  C   UNL     1      34.312  21.259  12.453  0.00  0.00    +0.075 C 
ATOM      3  C   UNL     1      34.625  21.502  10.968  0.00  0.00    +0.113 C 
ATOM      4  C   UNL     1      35.674  22.611  10.697  0.00  0.00    +0.048 C 
ATOM      5  C   UNL     1      36.910  21.907  10.149  0.00  0.00    +0.004 C 
ATOM      6  C   UNL     1      36.356  20.684   9.445  0.00  0.00    +0.004 C 
ATOM      7  C   UNL     1      35.263  20.214  10.389  0.00  0.00    +0.048 C 
ATOM      8  O   UNL     1      33.431  21.763  10.206  0.00  0.00    -0.485 OA
ATOM      9  C   UNL     1      32.713  22.828  10.682  0.00  0.00    +0.126 A 
ATOM     10  C   UNL     1      32.065  23.637   9.750  0.00  0.00    +0.046 A 
ATOM     11  C   UNL     1      31.352  24.759  10.175  0.00  0.00    +0.004 A 
ATOM     12  C   UNL     1      31.270  25.060  11.533  0.00  0.00    +0.001 A 
ATOM     13  C   UNL     1      31.893  24.230  12.464  0.00  0.00    +0.009 A 
ATOM     14  C   UNL     1      32.622  23.105  12.043  0.00  0.00    +0.015 A 
ENDROOT
BRANCH   1  21
ATOM     15  N   UNL     1      28.191  20.222  16.219  0.00  0.00    -0.299 N 
ATOM     16  C   UNL     1      28.950  21.281  16.885  0.00  0.00    +0.127 C 
ATOM     17  C   UNL     1      30.448  20.997  16.896  0.00  0.00    +0.129 C 
ATOM     18  N   UNL     1      30.902  20.795  15.528  0.00  0.00    -0.275 N 
ATOM     19  C   UNL     1      31.866  21.630  15.012  0.00  0.00    +0.303 C 
ATOM     20  O   UNL     1      32.369  22.543  15.665  0.00  0.00    -0.253 OA
ATOM     21  N   UNL     1      32.215  21.411  13.711  0.00  0.00    -0.292 N 
ATOM     22  C   UNL     1      30.215  19.714  14.816  0.00  0.00    +0.205 C 
ATOM     23  C   UNL     1      28.765  19.410  15.247  0.00  0.00    +0.233 C 
ATOM     24  O   UNL     1      28.149  18.479  14.722  0.00  0.00    -0.274 OA
ATOM     25  H   UNL     1      32.077  20.488  13.333  0.00  0.00    +0.151 HD
BRANCH  15  27
ATOM     26  C   UNL     1      26.233  21.327  17.240  0.00  0.00    +0.024 C 
ATOM     27  C   UNL     1      26.765  20.109  16.506  0.00  0.00    +0.104 C 
ENDBRANCH  15  27
ENDBRANCH   1  21
TORSDOF 2
ENDMDL
MODEL 5
REMARK VINA RESULT:      -6.4      4.625      7.549
REMARK  Name = ZINC000329563636
REMARK  3 active torsions:
REMARK  status: ('A' for Active; 'I' for Inactive)
REMARK    1  A    between atoms: C_1  and  C_2
REMARK    2  A    between atoms: C_2  and  N_3
REMARK    3  A    between atoms: N_9  and  C_10
REMARK                            x       y       z     vdW  Elec       q    Type
REMARK                         _______ _______ _______ _____ _____    ______ ____
ROOT
ATOM      1  C   UNL     1      33.448  21.951  17.342  0.00  0.00    +0.112 C 
ATOM      2  C   UNL     1      33.820  23.336  16.803  0.00  0.00    +0.075 C 
ATOM      3  C   UNL     1      33.583  24.497  17.780  0.00  0.00    +0.113 C 
ATOM      4  C   UNL     1      34.735  24.745  18.788  0.00  0.00    +0.048 C 
ATOM      5  C   UNL     1      35.360  26.081  18.404  0.00  0.00    +0.004 C 
ATOM      6  C   UNL     1      34.215  26.861  17.789  0.00  0.00    +0.004 C 
ATOM      7  C   UNL     1      33.494  25.811  16.962  0.00  0.00    +0.048 C 
ATOM      8  O   UNL     1      32.338  24.354  18.489  0.00  0.00    -0.485 OA
ATOM      9  C   UNL     1      32.245  23.175  19.180  0.00  0.00    +0.126 A 
ATOM     10  C   UNL     1      31.579  23.195  20.403  0.00  0.00    +0.046 A 
ATOM     11  C   UNL     1      31.490  22.031  21.169  0.00  0.00    +0.004 A 
ATOM     12  C   UNL     1      32.049  20.844  20.702  0.00  0.00    +0.001 A 
ATOM     13  C   UNL     1      32.688  20.821  19.462  0.00  0.00    +0.009 A 
ATOM     14  C   UNL     1      32.791  21.991  18.691  0.00  0.00    +0.015 A 
ENDROOT
BRANCH   1  21
ATOM     15  N   UNL     1      29.785  17.857  14.272  0.00  0.00    -0.299 N 
ATOM     16  C   UNL     1      31.081  17.320  14.688  0.00  0.00    +0.127 C 
ATOM     17  C   UNL     1      32.232  18.259  14.341  0.00  0.00    +0.129 C 
ATOM     18  N   UNL     1      31.976  19.562  14.940  0.00  0.00    -0.275 N 
ATOM     19  C   UNL     1      32.878  20.071  15.847  0.00  0.00    +0.303 C 
ATOM     20  O   UNL     1      33.901  19.469  16.170  0.00  0.00    -0.253 OA
ATOM     21  N   UNL     1      32.556  21.276  16.399  0.00  0.00    -0.292 N 
ATOM     22  C   UNL     1      30.713  20.179  14.528  0.00  0.00    +0.205 C 
ATOM     23  C   UNL     1      29.567  19.223  14.137  0.00  0.00    +0.233 C 
ATOM     24  O   UNL     1      28.496  19.681  13.732  0.00  0.00    -0.274 OA
ATOM     25  H   UNL     1      31.946  21.887  15.881  0.00  0.00    +0.151 HD
BRANCH  15  27
ATOM     26  C   UNL     1      27.969  16.654  15.436  0.00  0.00    +0.024 C 
ATOM     27  C   UNL     1      28.671  16.928  14.117  0.00  0.00    +0.104 C 
ENDBRANCH  15  27
ENDBRANCH   1  21
TORSDOF 2
ENDMDL
MODEL 6
REMARK VINA RESULT:      -6.4      1.894      2.431
REMARK  Name = ZINC000329563636
REMARK  3 active torsions:
REMARK  status: ('A' for Active; 'I' for Inactive)
REMARK    1  A    between atoms: C_1  and  C_2
REMARK    2  A    between atoms: C_2  and  N_3
REMARK    3  A    between atoms: N_9  and  C_10
REMARK                            x       y       z     vdW  Elec       q    Type
REMARK                         _______ _______ _______ _____ _____    ______ ____
ROOT
ATOM      1  C   UNL     1      31.290  22.826  12.855  0.00  0.00    +0.112 C 
ATOM      2  C   UNL     1      30.230  21.812  13.296  0.00  0.00    +0.075 C 
ATOM      3  C   UNL     1      30.343  21.348  14.756  0.00  0.00    +0.113 C 
ATOM      4  C   UNL     1      29.664  22.283  15.790  0.00  0.00    +0.048 C 
ATOM      5  C   UNL     1      28.469  21.514  16.343  0.00  0.00    +0.004 C 
ATOM      6  C   UNL     1      28.888  20.061  16.243  0.00  0.00    +0.004 C 
ATOM      7  C   UNL     1      29.590  20.001  14.898  0.00  0.00    +0.048 C 
ATOM      8  O   UNL     1      31.711  21.112  15.137  0.00  0.00    -0.485 OA
ATOM      9  C   UNL     1      32.515  22.208  14.963  0.00  0.00    +0.126 A 
ATOM     10  C   UNL     1      33.530  22.418  15.894  0.00  0.00    +0.046 A 
ATOM     11  C   UNL     1      34.352  23.540  15.788  0.00  0.00    +0.004 A 
ATOM     12  C   UNL     1      34.173  24.441  14.741  0.00  0.00    +0.001 A 
ATOM     13  C   UNL     1      33.176  24.210  13.793  0.00  0.00    +0.009 A 
ATOM     14  C   UNL     1      32.337  23.088  13.899  0.00  0.00    +0.015 A 
ENDROOT
BRANCH   1  21
ATOM     15  N   UNL     1      34.902  22.144   7.747  0.00  0.00    -0.299 N 
ATOM     16  C   UNL     1      34.281  23.461   7.881  0.00  0.00    +0.127 C 
ATOM     17  C   UNL     1      32.795  23.368   8.213  0.00  0.00    +0.129 C 
ATOM     18  N   UNL     1      32.630  22.574   9.422  0.00  0.00    -0.275 N 
ATOM     19  C   UNL     1      32.031  23.145  10.521  0.00  0.00    +0.303 C 
ATOM     20  O   UNL     1      31.621  24.305  10.523  0.00  0.00    -0.253 OA
ATOM     21  N   UNL     1      31.945  22.359  11.634  0.00  0.00    -0.292 N 
ATOM     22  C   UNL     1      33.189  21.222   9.340  0.00  0.00    +0.205 C 
ATOM     23  C   UNL     1      34.391  21.023   8.392  0.00  0.00    +0.233 C 
ATOM     24  O   UNL     1      34.874  19.899   8.240  0.00  0.00    -0.274 OA
ATOM     25  H   UNL     1      31.945  21.360  11.508  0.00  0.00    +0.151 HD
BRANCH  15  27
ATOM     26  C   UNL     1      35.938  22.006   5.510  0.00  0.00    +0.024 C 
ATOM     27  C   UNL     1      36.158  22.044   7.012  0.00  0.00    +0.104 C 
ENDBRANCH  15  27
ENDBRANCH   1  21
TORSDOF 2
ENDMDL
MODEL 7
REMARK VINA RESULT:      -6.4      4.341      7.595
REMARK  Name = ZINC000329563636
REMARK  3 active torsions:
REMARK  status: ('A' for Active; 'I' for Inactive)
REMARK    1  A    between atoms: C_1  and  C_2
REMARK    2  A    between atoms: C_2  and  N_3
REMARK    3  A    between atoms: N_9  and  C_10
REMARK                            x       y       z     vdW  Elec       q    Type
REMARK                         _______ _______ _______ _____ _____    ______ ____
ROOT
ATOM      1  C   UNL     1      31.554  19.872  14.162  0.00  0.00    +0.112 C 
ATOM      2  C   UNL     1      32.830  19.400  13.459  0.00  0.00    +0.075 C 
ATOM      3  C   UNL     1      32.761  17.984  12.869  0.00  0.00    +0.113 C 
ATOM      4  C   UNL     1      32.130  17.898  11.455  0.00  0.00    +0.048 C 
ATOM      5  C   UNL     1      33.258  17.512  10.505  0.00  0.00    +0.004 C 
ATOM      6  C   UNL     1      34.204  16.700  11.366  0.00  0.00    +0.004 C 
ATOM      7  C   UNL     1      34.208  17.464  12.679  0.00  0.00    +0.048 C 
ATOM      8  O   UNL     1      32.093  17.067  13.756  0.00  0.00    -0.485 OA
ATOM      9  C   UNL     1      30.825  17.466  14.087  0.00  0.00    +0.126 A 
ATOM     10  C   UNL     1      29.858  16.476  14.246  0.00  0.00    +0.046 A 
ATOM     11  C   UNL     1      28.540  16.828  14.543  0.00  0.00    +0.004 A 
ATOM     12  C   UNL     1      28.195  18.168  14.701  0.00  0.00    +0.001 A 
ATOM     13  C   UNL     1      29.173  19.154  14.573  0.00  0.00    +0.009 A 
ATOM     14  C   UNL     1      30.499  18.809  14.263  0.00  0.00    +0.015 A 
ENDROOT
BRANCH   1  21
ATOM     15  N   UNL     1      31.397  22.087  20.050  0.00  0.00    -0.299 N 
ATOM     16  C   UNL     1      30.584  22.840  19.096  0.00  0.00    +0.127 C 
ATOM     17  C   UNL     1      31.344  23.152  17.810  0.00  0.00    +0.129 C 
ATOM     18  N   UNL     1      31.828  21.906  17.233  0.00  0.00    -0.275 N 
ATOM     19  C   UNL     1      31.417  21.549  15.969  0.00  0.00    +0.303 C 
ATOM     20  O   UNL     1      30.658  22.247  15.299  0.00  0.00    -0.253 OA
ATOM     21  N   UNL     1      31.876  20.349  15.506  0.00  0.00    -0.292 N 
ATOM     22  C   UNL     1      32.690  21.122  18.122  0.00  0.00    +0.205 C 
ATOM     23  C   UNL     1      32.451  21.279  19.638  0.00  0.00    +0.233 C 
ATOM     24  O   UNL     1      33.176  20.686  20.440  0.00  0.00    -0.274 OA
ATOM     25  H   UNL     1      32.736  19.992  15.888  0.00  0.00    +0.151 HD
BRANCH  15  27
ATOM     26  C   UNL     1      31.922  22.966  22.297  0.00  0.00    +0.024 C 
ATOM     27  C   UNL     1      31.002  22.100  21.454  0.00  0.00    +0.104 C 
ENDBRANCH  15  27
ENDBRANCH   1  21
TORSDOF 2
ENDMDL
MODEL 8
REMARK VINA RESULT:      -6.3     24.715     28.286
REMARK  Name = ZINC000329563636
REMARK  3 active torsions:
REMARK  status: ('A' for Active; 'I' for Inactive)
REMARK    1  A    between atoms: C_1  and  C_2
REMARK    2  A    between atoms: C_2  and  N_3
REMARK    3  A    between atoms: N_9  and  C_10
REMARK                            x       y       z     vdW  Elec       q    Type
REMARK                         _______ _______ _______ _____ _____    ______ ____
ROOT
ATOM      1  C   UNL     1      19.235   6.109  29.283  0.00  0.00    +0.112 C 
ATOM      2  C   UNL     1      20.564   6.396  29.989  0.00  0.00    +0.075 C 
ATOM      3  C   UNL     1      21.699   5.414  29.661  0.00  0.00    +0.113 C 
ATOM      4  C   UNL     1      22.488   5.740  28.366  0.00  0.00    +0.048 C 
ATOM      5  C   UNL     1      23.885   6.158  28.810  0.00  0.00    +0.004 C 
ATOM      6  C   UNL     1      24.105   5.395  30.101  0.00  0.00    +0.004 C 
ATOM      7  C   UNL     1      22.756   5.497  30.791  0.00  0.00    +0.048 C 
ATOM      8  O   UNL     1      21.231   4.052  29.616  0.00  0.00    -0.485 OA
ATOM      9  C   UNL     1      20.214   3.863  28.718  0.00  0.00    +0.126 A 
ATOM     10  C   UNL     1      20.180   2.652  28.028  0.00  0.00    +0.046 A 
ATOM     11  C   UNL     1      19.190   2.421  27.072  0.00  0.00    +0.004 A 
ATOM     12  C   UNL     1      18.223   3.392  26.821  0.00  0.00    +0.001 A 
ATOM     13  C   UNL     1      18.242   4.589  27.536  0.00  0.00    +0.009 A 
ATOM     14  C   UNL     1      19.242   4.834  28.492  0.00  0.00    +0.015 A 
ENDROOT
BRANCH   1  21
ATOM     15  N   UNL     1      13.688   5.895  32.247  0.00  0.00    -0.299 N 
ATOM     16  C   UNL     1      13.780   6.915  31.204  0.00  0.00    +0.127 C 
ATOM     17  C   UNL     1      15.066   7.731  31.307  0.00  0.00    +0.129 C 
ATOM     18  N   UNL     1      16.205   6.825  31.270  0.00  0.00    -0.275 N 
ATOM     19  C   UNL     1      17.135   6.959  30.265  0.00  0.00    +0.303 C 
ATOM     20  O   UNL     1      17.047   7.823  29.394  0.00  0.00    -0.253 OA
ATOM     21  N   UNL     1      18.154   6.051  30.267  0.00  0.00    -0.292 N 
ATOM     22  C   UNL     1      16.199   5.803  32.320  0.00  0.00    +0.205 C 
ATOM     23  C   UNL     1      14.820   5.357  32.849  0.00  0.00    +0.233 C 
ATOM     24  O   UNL     1      14.748   4.538  33.768  0.00  0.00    -0.274 OA
ATOM     25  H   UNL     1      18.400   5.617  31.141  0.00  0.00    +0.151 HD
BRANCH  15  27
ATOM     26  C   UNL     1      11.591   6.257  33.501  0.00  0.00    +0.024 C 
ATOM     27  C   UNL     1      12.372   5.351  32.565  0.00  0.00    +0.104 C 
ENDBRANCH  15  27
ENDBRANCH   1  21
TORSDOF 2
ENDMDL
MODEL 9
REMARK VINA RESULT:      -6.2     12.698     15.818
REMARK  Name = ZINC000329563636
REMARK  3 active torsions:
REMARK  status: ('A' for Active; 'I' for Inactive)
REMARK    1  A    between atoms: C_1  and  C_2
REMARK    2  A    between atoms: C_2  and  N_3
REMARK    3  A    between atoms: N_9  and  C_10
REMARK                            x       y       z     vdW  Elec       q    Type
REMARK                         _______ _______ _______ _____ _____    ______ ____
ROOT
ATOM      1  C   UNL     1      20.635  27.213  19.124  0.00  0.00    +0.112 C 
ATOM      2  C   UNL     1      21.385  26.835  20.405  0.00  0.00    +0.075 C 
ATOM      3  C   UNL     1      22.479  25.772  20.226  0.00  0.00    +0.113 C 
ATOM      4  C   UNL     1      23.852  26.322  19.763  0.00  0.00    +0.048 C 
ATOM      5  C   UNL     1      24.806  26.139  20.937  0.00  0.00    +0.004 C 
ATOM      6  C   UNL     1      24.268  24.922  21.663  0.00  0.00    +0.004 C 
ATOM      7  C   UNL     1      22.765  25.130  21.608  0.00  0.00    +0.048 C 
ATOM      8  O   UNL     1      22.057  24.713  19.346  0.00  0.00    -0.485 OA
ATOM      9  C   UNL     1      21.677  25.162  18.109  0.00  0.00    +0.126 A 
ATOM     10  C   UNL     1      21.972  24.356  17.011  0.00  0.00    +0.046 A 
ATOM     11  C   UNL     1      21.644  24.782  15.724  0.00  0.00    +0.004 A 
ATOM     12  C   UNL     1      21.003  26.004  15.535  0.00  0.00    +0.001 A 
ATOM     13  C   UNL     1      20.680  26.793  16.639  0.00  0.00    +0.009 A 
ATOM     14  C   UNL     1      21.017  26.376  17.938  0.00  0.00    +0.015 A 
ENDROOT
BRANCH   1  21
ATOM     15  N   UNL     1      14.363  27.267  18.609  0.00  0.00    -0.299 N 
ATOM     16  C   UNL     1      15.019  28.497  18.169  0.00  0.00    +0.127 C 
ATOM     17  C   UNL     1      16.057  28.989  19.173  0.00  0.00    +0.129 C 
ATOM     18  N   UNL     1      17.022  27.926  19.415  0.00  0.00    -0.275 N 
ATOM     19  C   UNL     1      18.350  28.149  19.130  0.00  0.00    +0.303 C 
ATOM     20  O   UNL     1      18.759  29.219  18.682  0.00  0.00    -0.253 OA
ATOM     21  N   UNL     1      19.193  27.097  19.341  0.00  0.00    -0.292 N 
ATOM     22  C   UNL     1      16.435  26.675  19.904  0.00  0.00    +0.205 C 
ATOM     23  C   UNL     1      14.982  26.376  19.479  0.00  0.00    +0.233 C 
ATOM     24  O   UNL     1      14.414  25.366  19.899  0.00  0.00    -0.274 OA
ATOM     25  H   UNL     1      18.921  26.400  20.014  0.00  0.00    +0.151 HD
BRANCH  15  27
ATOM     26  C   UNL     1      13.232  26.271  16.653  0.00  0.00    +0.024 C 
ATOM     27  C   UNL     1      13.076  26.921  18.016  0.00  0.00    +0.104 C 
ENDBRANCH  15  27
ENDBRANCH   1  21
TORSDOF 2
ENDMDL
