MODEL 1
REMARK VINA RESULT:      -7.0      0.000      0.000
REMARK  Name = ZINC000329563636
REMARK  3 active torsions:
REMARK  status: ('A' for Active; 'I' for Inactive)
REMARK    1  A    between atoms: C_1  and  C_2
REMARK    2  A    between atoms: C_2  and  N_3
REMARK    3  A    between atoms: N_9  and  C_10
REMARK                            x       y       z     vdW  Elec       q    Type
REMARK                         _______ _______ _______ _____ _____    ______ ____
ROOT
ATOM      1  C   UNL     1      30.382  22.082  15.366  0.00  0.00    +0.112 C 
ATOM      2  C   UNL     1      29.402  20.956  15.026  0.00  0.00    +0.075 C 
ATOM      3  C   UNL     1      28.904  20.143  16.231  0.00  0.00    +0.113 C 
ATOM      4  C   UNL     1      27.697  20.765  16.981  0.00  0.00    +0.048 C 
ATOM      5  C   UNL     1      26.511  19.842  16.722  0.00  0.00    +0.004 C 
ATOM      6  C   UNL     1      27.140  18.476  16.539  0.00  0.00    +0.004 C 
ATOM      7  C   UNL     1      28.379  18.779  15.715  0.00  0.00    +0.048 C 
ATOM      8  O   UNL     1      29.965  19.864  17.164  0.00  0.00    -0.485 OA
ATOM      9  C   UNL     1      30.586  20.995  17.625  0.00  0.00    +0.126 A 
ATOM     10  C   UNL     1      31.020  20.998  18.949  0.00  0.00    +0.046 A 
ATOM     11  C   UNL     1      31.623  22.137  19.483  0.00  0.00    +0.004 A 
ATOM     12  C   UNL     1      31.810  23.266  18.688  0.00  0.00    +0.001 A 
ATOM     13  C   UNL     1      31.403  23.247  17.354  0.00  0.00    +0.009 A 
ATOM     14  C   UNL     1      30.785  22.108  16.812  0.00  0.00    +0.015 A 
ENDROOT
BRANCH   1  21
ATOM     15  N   UNL     1      35.673  23.075  12.107  0.00  0.00    -0.299 N 
ATOM     16  C   UNL     1      34.611  24.046  11.851  0.00  0.00    +0.127 C 
ATOM     17  C   UNL     1      33.263  23.376  11.606  0.00  0.00    +0.129 C 
ATOM     18  N   UNL     1      32.945  22.523  12.743  0.00  0.00    -0.275 N 
ATOM     19  C   UNL     1      31.799  22.770  13.465  0.00  0.00    +0.303 C 
ATOM     20  O   UNL     1      31.024  23.683  13.184  0.00  0.00    -0.253 OA
ATOM     21  N   UNL     1      31.584  21.959  14.541  0.00  0.00    -0.292 N 
ATOM     22  C   UNL     1      33.948  21.494  13.026  0.00  0.00    +0.205 C 
ATOM     23  C   UNL     1      35.405  21.815  12.631  0.00  0.00    +0.233 C 
ATOM     24  O   UNL     1      36.288  20.970  12.796  0.00  0.00    -0.274 OA
ATOM     25  H   UNL     1      32.003  21.044  14.536  0.00  0.00    +0.151 HD
BRANCH  15  27
ATOM     26  C   UNL     1      37.213  25.004  12.033  0.00  0.00    +0.024 C 
ATOM     27  C   UNL     1      37.057  23.498  11.916  0.00  0.00    +0.104 C 
ENDBRANCH  15  27
ENDBRANCH   1  21
TORSDOF 2
ENDMDL
MODEL 2
REMARK VINA RESULT:      -6.9      4.404      6.529
REMARK  Name = ZINC000329563636
REMARK  3 active torsions:
REMARK  status: ('A' for Active; 'I' for Inactive)
REMARK    1  A    between atoms: C_1  and  C_2
REMARK    2  A    between atoms: C_2  and  N_3
REMARK    3  A    between atoms: N_9  and  C_10
REMARK                            x       y       z     vdW  Elec       q    Type
REMARK                         _______ _______ _______ _____ _____    ______ ____
ROOT
ATOM      1  C   UNL     1      31.153  18.564  16.799  0.00  0.00    +0.112 C 
ATOM      2  C   UNL     1      32.053  19.765  17.103  0.00  0.00    +0.075 C 
ATOM      3  C   UNL     1      31.307  21.068  17.431  0.00  0.00    +0.113 C 
ATOM      4  C   UNL     1      30.868  21.211  18.911  0.00  0.00    +0.048 C 
ATOM      5  C   UNL     1      31.712  22.335  19.501  0.00  0.00    +0.004 C 
ATOM      6  C   UNL     1      31.999  23.240  18.319  0.00  0.00    +0.004 C 
ATOM      7  C   UNL     1      32.275  22.255  17.196  0.00  0.00    +0.048 C 
ATOM      8  O   UNL     1      30.173  21.267  16.566  0.00  0.00    -0.485 OA
ATOM      9  C   UNL     1      29.279  20.229  16.604  0.00  0.00    +0.126 A 
ATOM     10  C   UNL     1      27.925  20.540  16.491  0.00  0.00    +0.046 A 
ATOM     11  C   UNL     1      26.968  19.527  16.563  0.00  0.00    +0.004 A 
ATOM     12  C   UNL     1      27.366  18.202  16.728  0.00  0.00    +0.001 A 
ATOM     13  C   UNL     1      28.724  17.892  16.808  0.00  0.00    +0.009 A 
ATOM     14  C   UNL     1      29.693  18.908  16.747  0.00  0.00    +0.015 A 
ENDROOT
BRANCH   1  21
ATOM     15  N   UNL     1      32.774  14.660  12.136  0.00  0.00    -0.299 N 
ATOM     16  C   UNL     1      33.495  14.442  13.389  0.00  0.00    +0.127 C 
ATOM     17  C   UNL     1      34.024  15.744  13.985  0.00  0.00    +0.129 C 
ATOM     18  N   UNL     1      32.913  16.668  14.161  0.00  0.00    -0.275 N 
ATOM     19  C   UNL     1      32.622  17.132  15.424  0.00  0.00    +0.303 C 
ATOM     20  O   UNL     1      33.270  16.801  16.416  0.00  0.00    -0.253 OA
ATOM     21  N   UNL     1      31.543  17.963  15.523  0.00  0.00    -0.292 N 
ATOM     22  C   UNL     1      32.174  16.968  12.932  0.00  0.00    +0.205 C 
ATOM     23  C   UNL     1      32.157  15.872  11.846  0.00  0.00    +0.233 C 
ATOM     24  O   UNL     1      31.596  16.082  10.769  0.00  0.00    -0.274 OA
ATOM     25  H   UNL     1      31.271  18.485  14.707  0.00  0.00    +0.151 HD
BRANCH  15  27
ATOM     26  C   UNL     1      33.834  13.295  10.373  0.00  0.00    +0.024 C 
ATOM     27  C   UNL     1      32.604  13.528  11.232  0.00  0.00    +0.104 C 
ENDBRANCH  15  27
ENDBRANCH   1  21
TORSDOF 2
ENDMDL
MODEL 3
REMARK VINA RESULT:      -6.9     13.057     15.221
REMARK  Name = ZINC000329563636
REMARK  3 active torsions:
REMARK  status: ('A' for Active; 'I' for Inactive)
REMARK    1  A    between atoms: C_1  and  C_2
REMARK    2  A    between atoms: C_2  and  N_3
REMARK    3  A    between atoms: N_9  and  C_10
REMARK                            x       y       z     vdW  Elec       q    Type
REMARK                         _______ _______ _______ _____ _____    ______ ____
ROOT
ATOM      1  C   UNL     1      25.028  21.344  28.561  0.00  0.00    +0.112 C 
ATOM      2  C   UNL     1      24.193  22.427  29.251  0.00  0.00    +0.075 C 
ATOM      3  C   UNL     1      23.131  23.092  28.363  0.00  0.00    +0.113 C 
ATOM      4  C   UNL     1      21.786  22.325  28.271  0.00  0.00    +0.048 C 
ATOM      5  C   UNL     1      20.753  23.184  28.991  0.00  0.00    +0.004 C 
ATOM      6  C   UNL     1      21.256  24.601  28.802  0.00  0.00    +0.004 C 
ATOM      7  C   UNL     1      22.756  24.458  28.992  0.00  0.00    +0.048 C 
ATOM      8  O   UNL     1      23.631  23.358  27.039  0.00  0.00    -0.485 OA
ATOM      9  C   UNL     1      24.093  22.235  26.404  0.00  0.00    +0.126 A 
ATOM     10  C   UNL     1      23.889  22.142  25.028  0.00  0.00    +0.046 A 
ATOM     11  C   UNL     1      24.303  21.003  24.337  0.00  0.00    +0.004 A 
ATOM     12  C   UNL     1      24.938  19.966  25.017  0.00  0.00    +0.001 A 
ATOM     13  C   UNL     1      25.168  20.077  26.388  0.00  0.00    +0.009 A 
ATOM     14  C   UNL     1      24.745  21.216  27.093  0.00  0.00    +0.015 A 
ENDROOT
BRANCH   1  21
ATOM     15  N   UNL     1      31.246  20.994  29.462  0.00  0.00    -0.299 N 
ATOM     16  C   UNL     1      30.452  20.182  30.383  0.00  0.00    +0.127 C 
ATOM     17  C   UNL     1      29.284  20.962  30.979  0.00  0.00    +0.129 C 
ATOM     18  N   UNL     1      28.469  21.493  29.897  0.00  0.00    -0.275 N 
ATOM     19  C   UNL     1      27.147  21.121  29.809  0.00  0.00    +0.303 C 
ATOM     20  O   UNL     1      26.620  20.357  30.617  0.00  0.00    -0.253 OA
ATOM     21  N   UNL     1      26.452  21.623  28.747  0.00  0.00    -0.292 N 
ATOM     22  C   UNL     1      29.194  22.356  28.960  0.00  0.00    +0.205 C 
ATOM     23  C   UNL     1      30.702  22.079  28.784  0.00  0.00    +0.233 C 
ATOM     24  O   UNL     1      31.378  22.802  28.050  0.00  0.00    -0.274 OA
ATOM     25  H   UNL     1      26.773  22.483  28.336  0.00  0.00    +0.151 HD
BRANCH  15  27
ATOM     26  C   UNL     1      32.781  19.065  29.307  0.00  0.00    +0.024 C 
ATOM     27  C   UNL     1      32.610  20.567  29.165  0.00  0.00    +0.104 C 
ENDBRANCH  15  27
ENDBRANCH   1  21
TORSDOF 2
ENDMDL
MODEL 4
REMARK VINA RESULT:      -6.8      2.094      2.916
REMARK  Name = ZINC000329563636
REMARK  3 active torsions:
REMARK  status: ('A' for Active; 'I' for Inactive)
REMARK    1  A    between atoms: C_1  and  C_2
REMARK    2  A    between atoms: C_2  and  N_3
REMARK    3  A    between atoms: N_9  and  C_10
REMARK                            x       y       z     vdW  Elec       q    Type
REMARK                         _______ _______ _______ _____ _____    ______ ____
ROOT
ATOM      1  C   UNL     1      29.386  21.804  15.108  0.00  0.00    +0.112 C 
ATOM      2  C   UNL     1      29.464  20.333  14.686  0.00  0.00    +0.075 C 
ATOM      3  C   UNL     1      29.876  19.360  15.800  0.00  0.00    +0.113 C 
ATOM      4  C   UNL     1      28.715  18.882  16.710  0.00  0.00    +0.048 C 
ATOM      5  C   UNL     1      28.518  17.400  16.412  0.00  0.00    +0.004 C 
ATOM      6  C   UNL     1      29.896  16.921  16.000  0.00  0.00    +0.004 C 
ATOM      7  C   UNL     1      30.410  18.063  15.140  0.00  0.00    +0.048 C 
ATOM      8  O   UNL     1      30.941  19.893  16.610  0.00  0.00    -0.485 OA
ATOM      9  C   UNL     1      30.632  21.102  17.176  0.00  0.00    +0.126 A 
ATOM     10  C   UNL     1      31.123  21.359  18.455  0.00  0.00    +0.046 A 
ATOM     11  C   UNL     1      30.805  22.557  19.096  0.00  0.00    +0.004 A 
ATOM     12  C   UNL     1      30.014  23.505  18.452  0.00  0.00    +0.001 A 
ATOM     13  C   UNL     1      29.551  23.257  17.160  0.00  0.00    +0.009 A 
ATOM     14  C   UNL     1      29.857  22.049  16.512  0.00  0.00    +0.015 A 
ENDROOT
BRANCH   1  21
ATOM     15  N   UNL     1      32.990  23.977  10.429  0.00  0.00    -0.299 N 
ATOM     16  C   UNL     1      33.491  22.761  11.067  0.00  0.00    +0.127 C 
ATOM     17  C   UNL     1      33.468  22.856  12.589  0.00  0.00    +0.129 C 
ATOM     18  N   UNL     1      32.113  23.168  13.023  0.00  0.00    -0.275 N 
ATOM     19  C   UNL     1      31.459  22.291  13.858  0.00  0.00    +0.303 C 
ATOM     20  O   UNL     1      31.976  21.250  14.260  0.00  0.00    -0.253 OA
ATOM     21  N   UNL     1      30.178  22.624  14.192  0.00  0.00    -0.292 N 
ATOM     22  C   UNL     1      31.566  24.403  12.457  0.00  0.00    +0.205 C 
ATOM     23  C   UNL     1      32.095  24.827  11.071  0.00  0.00    +0.233 C 
ATOM     24  O   UNL     1      31.712  25.883  10.562  0.00  0.00    -0.274 OA
ATOM     25  H   UNL     1      29.919  23.596  14.160  0.00  0.00    +0.151 HD
BRANCH  15  27
ATOM     26  C   UNL     1      32.604  23.318   8.080  0.00  0.00    +0.024 C 
ATOM     27  C   UNL     1      33.353  24.228   9.038  0.00  0.00    +0.104 C 
ENDBRANCH  15  27
ENDBRANCH   1  21
TORSDOF 2
ENDMDL
MODEL 5
REMARK VINA RESULT:      -6.8      1.859      2.372
REMARK  Name = ZINC000329563636
REMARK  3 active torsions:
REMARK  status: ('A' for Active; 'I' for Inactive)
REMARK    1  A    between atoms: C_1  and  C_2
REMARK    2  A    between atoms: C_2  and  N_3
REMARK    3  A    between atoms: N_9  and  C_10
REMARK                            x       y       z     vdW  Elec       q    Type
REMARK                         _______ _______ _______ _____ _____    ______ ____
ROOT
ATOM      1  C   UNL     1      29.752  22.163  15.061  0.00  0.00    +0.112 C 
ATOM      2  C   UNL     1      29.101  20.824  14.698  0.00  0.00    +0.075 C 
ATOM      3  C   UNL     1      28.980  19.826  15.860  0.00  0.00    +0.113 C 
ATOM      4  C   UNL     1      27.729  20.020  16.756  0.00  0.00    +0.048 C 
ATOM      5  C   UNL     1      26.833  18.812  16.510  0.00  0.00    +0.004 C 
ATOM      6  C   UNL     1      27.802  17.702  16.154  0.00  0.00    +0.004 C 
ATOM      7  C   UNL     1      28.813  18.405  15.265  0.00  0.00    +0.048 C 
ATOM      8  O   UNL     1      30.166  19.808  16.676  0.00  0.00    -0.485 OA
ATOM      9  C   UNL     1      30.485  21.039  17.187  0.00  0.00    +0.126 A 
ATOM     10  C   UNL     1      31.033  21.082  18.468  0.00  0.00    +0.046 A 
ATOM     11  C   UNL     1      31.340  22.311  19.054  0.00  0.00    +0.004 A 
ATOM     12  C   UNL     1      31.117  23.494  18.353  0.00  0.00    +0.001 A 
ATOM     13  C   UNL     1      30.597  23.444  17.059  0.00  0.00    +0.009 A 
ATOM     14  C   UNL     1      30.276  22.211  16.466  0.00  0.00    +0.015 A 
ENDROOT
BRANCH   1  21
ATOM     15  N   UNL     1      33.836  22.216  10.273  0.00  0.00    -0.299 N 
ATOM     16  C   UNL     1      33.566  20.890  10.827  0.00  0.00    +0.127 C 
ATOM     17  C   UNL     1      33.639  20.875  12.351  0.00  0.00    +0.129 C 
ATOM     18  N   UNL     1      32.717  21.872  12.878  0.00  0.00    -0.275 N 
ATOM     19  C   UNL     1      31.699  21.468  13.711  0.00  0.00    +0.303 C 
ATOM     20  O   UNL     1      31.538  20.293  14.037  0.00  0.00    -0.253 OA
ATOM     21  N   UNL     1      30.848  22.447  14.135  0.00  0.00    -0.292 N 
ATOM     22  C   UNL     1      32.961  23.235  12.399  0.00  0.00    +0.205 C 
ATOM     23  C   UNL     1      33.604  23.377  11.003  0.00  0.00    +0.233 C 
ATOM     24  O   UNL     1      33.882  24.495  10.565  0.00  0.00    -0.274 OA
ATOM     25  H   UNL     1      31.190  23.393  14.162  0.00  0.00    +0.151 HD
BRANCH  15  27
ATOM     26  C   UNL     1      33.070  22.136   7.927  0.00  0.00    +0.024 C 
ATOM     27  C   UNL     1      34.243  22.311   8.876  0.00  0.00    +0.104 C 
ENDBRANCH  15  27
ENDBRANCH   1  21
TORSDOF 2
ENDMDL
MODEL 6
REMARK VINA RESULT:      -6.6      3.162      7.180
REMARK  Name = ZINC000329563636
REMARK  3 active torsions:
REMARK  status: ('A' for Active; 'I' for Inactive)
REMARK    1  A    between atoms: C_1  and  C_2
REMARK    2  A    between atoms: C_2  and  N_3
REMARK    3  A    between atoms: N_9  and  C_10
REMARK                            x       y       z     vdW  Elec       q    Type
REMARK                         _______ _______ _______ _____ _____    ______ ____
ROOT
ATOM      1  C   UNL     1      32.000  21.814  16.422  0.00  0.00    +0.112 C 
ATOM      2  C   UNL     1      33.184  21.916  17.388  0.00  0.00    +0.075 C 
ATOM      3  C   UNL     1      34.277  22.913  16.973  0.00  0.00    +0.113 C 
ATOM      4  C   UNL     1      34.007  24.384  17.385  0.00  0.00    +0.048 C 
ATOM      5  C   UNL     1      35.041  24.727  18.451  0.00  0.00    +0.004 C 
ATOM      6  C   UNL     1      36.231  23.856  18.103  0.00  0.00    +0.004 C 
ATOM      7  C   UNL     1      35.586  22.538  17.713  0.00  0.00    +0.048 C 
ATOM      8  O   UNL     1      34.553  22.846  15.561  0.00  0.00    -0.485 OA
ATOM      9  C   UNL     1      33.444  23.063  14.786  0.00  0.00    +0.126 A 
ATOM     10  C   UNL     1      33.620  23.751  13.587  0.00  0.00    +0.046 A 
ATOM     11  C   UNL     1      32.520  24.035  12.777  0.00  0.00    +0.004 A 
ATOM     12  C   UNL     1      31.247  23.613  13.156  0.00  0.00    +0.001 A 
ATOM     13  C   UNL     1      31.080  22.897  14.341  0.00  0.00    +0.009 A 
ATOM     14  C   UNL     1      32.182  22.617  15.167  0.00  0.00    +0.015 A 
ENDROOT
BRANCH   1  21
ATOM     15  N   UNL     1      29.756  16.374  14.191  0.00  0.00    -0.299 N 
ATOM     16  C   UNL     1      28.766  17.205  14.875  0.00  0.00    +0.127 C 
ATOM     17  C   UNL     1      29.279  17.732  16.212  0.00  0.00    +0.129 C 
ATOM     18  N   UNL     1      30.522  18.457  15.989  0.00  0.00    -0.275 N 
ATOM     19  C   UNL     1      30.594  19.786  16.336  0.00  0.00    +0.303 C 
ATOM     20  O   UNL     1      29.646  20.391  16.837  0.00  0.00    -0.253 OA
ATOM     21  N   UNL     1      31.774  20.415  16.062  0.00  0.00    -0.292 N 
ATOM     22  C   UNL     1      31.577  17.667  15.348  0.00  0.00    +0.205 C 
ATOM     23  C   UNL     1      31.120  16.525  14.416  0.00  0.00    +0.233 C 
ATOM     24  O   UNL     1      31.958  15.791  13.886  0.00  0.00    -0.274 OA
ATOM     25  H   UNL     1      32.607  19.853  16.002  0.00  0.00    +0.151 HD
BRANCH  15  27
ATOM     26  C   UNL     1      27.813  15.630  12.862  0.00  0.00    +0.024 C 
ATOM     27  C   UNL     1      29.291  15.452  13.161  0.00  0.00    +0.104 C 
ENDBRANCH  15  27
ENDBRANCH   1  21
TORSDOF 2
ENDMDL
MODEL 7
REMARK VINA RESULT:      -6.5      2.099      4.569
REMARK  Name = ZINC000329563636
REMARK  3 active torsions:
REMARK  status: ('A' for Active; 'I' for Inactive)
REMARK    1  A    between atoms: C_1  and  C_2
REMARK    2  A    between atoms: C_2  and  N_3
REMARK    3  A    between atoms: N_9  and  C_10
REMARK                            x       y       z     vdW  Elec       q    Type
REMARK                         _______ _______ _______ _____ _____    ______ ____
ROOT
ATOM      1  C   UNL     1      32.157  21.752  15.851  0.00  0.00    +0.112 C 
ATOM      2  C   UNL     1      33.196  22.149  16.905  0.00  0.00    +0.075 C 
ATOM      3  C   UNL     1      32.615  22.579  18.260  0.00  0.00    +0.113 C 
ATOM      4  C   UNL     1      32.295  21.413  19.231  0.00  0.00    +0.048 C 
ATOM      5  C   UNL     1      33.290  21.528  20.380  0.00  0.00    +0.004 C 
ATOM      6  C   UNL     1      33.588  23.012  20.462  0.00  0.00    +0.004 C 
ATOM      7  C   UNL     1      33.683  23.421  19.003  0.00  0.00    +0.048 C 
ATOM      8  O   UNL     1      31.452  23.414  18.102  0.00  0.00    -0.485 OA
ATOM      9  C   UNL     1      30.459  22.819  17.368  0.00  0.00    +0.126 A 
ATOM     10  C   UNL     1      29.141  23.082  17.735  0.00  0.00    +0.046 A 
ATOM     11  C   UNL     1      28.090  22.471  17.048  0.00  0.00    +0.004 A 
ATOM     12  C   UNL     1      28.358  21.614  15.983  0.00  0.00    +0.001 A 
ATOM     13  C   UNL     1      29.678  21.379  15.599  0.00  0.00    +0.009 A 
ATOM     14  C   UNL     1      30.741  21.981  16.292  0.00  0.00    +0.015 A 
ENDROOT
BRANCH   1  21
ATOM     15  N   UNL     1      33.082  23.546   9.891  0.00  0.00    -0.299 N 
ATOM     16  C   UNL     1      33.879  22.394  10.309  0.00  0.00    +0.127 C 
ATOM     17  C   UNL     1      34.558  22.621  11.657  0.00  0.00    +0.129 C 
ATOM     18  N   UNL     1      33.543  22.956  12.646  0.00  0.00    -0.275 N 
ATOM     19  C   UNL     1      33.392  22.149  13.750  0.00  0.00    +0.303 C 
ATOM     20  O   UNL     1      34.087  21.151  13.940  0.00  0.00    -0.253 OA
ATOM     21  N   UNL     1      32.396  22.497  14.615  0.00  0.00    -0.292 N 
ATOM     22  C   UNL     1      32.736  24.133  12.311  0.00  0.00    +0.205 C 
ATOM     23  C   UNL     1      32.545  24.440  10.811  0.00  0.00    +0.233 C 
ATOM     24  O   UNL     1      31.920  25.444  10.464  0.00  0.00    -0.274 OA
ATOM     25  H   UNL     1      32.104  23.460  14.638  0.00  0.00    +0.151 HD
BRANCH  15  27
ATOM     26  C   UNL     1      32.422  22.339   7.840  0.00  0.00    +0.024 C 
ATOM     27  C   UNL     1      32.749  23.679   8.476  0.00  0.00    +0.104 C 
ENDBRANCH  15  27
ENDBRANCH   1  21
TORSDOF 2
ENDMDL
MODEL 8
REMARK VINA RESULT:      -6.5     22.148     25.359
REMARK  Name = ZINC000329563636
REMARK  3 active torsions:
REMARK  status: ('A' for Active; 'I' for Inactive)
REMARK    1  A    between atoms: C_1  and  C_2
REMARK    2  A    between atoms: C_2  and  N_3
REMARK    3  A    between atoms: N_9  and  C_10
REMARK                            x       y       z     vdW  Elec       q    Type
REMARK                         _______ _______ _______ _____ _____    ______ ____
ROOT
ATOM      1  C   UNL     1      12.335   7.125  12.618  0.00  0.00    +0.112 C 
ATOM      2  C   UNL     1      11.649   8.287  11.893  0.00  0.00    +0.075 C 
ATOM      3  C   UNL     1      12.575   9.137  11.010  0.00  0.00    +0.113 C 
ATOM      4  C   UNL     1      12.805   8.578   9.582  0.00  0.00    +0.048 C 
ATOM      5  C   UNL     1      12.116   9.546   8.627  0.00  0.00    +0.004 C 
ATOM      6  C   UNL     1      12.190  10.882   9.339  0.00  0.00    +0.004 C 
ATOM      7  C   UNL     1      11.901  10.514  10.783  0.00  0.00    +0.048 C 
ATOM      8  O   UNL     1      13.843   9.384  11.646  0.00  0.00    -0.485 OA
ATOM      9  C   UNL     1      14.503   8.235  11.993  0.00  0.00    +0.126 A 
ATOM     10  C   UNL     1      15.892   8.233  11.889  0.00  0.00    +0.046 A 
ATOM     11  C   UNL     1      16.613   7.076  12.190  0.00  0.00    +0.004 A 
ATOM     12  C   UNL     1      15.946   5.930  12.616  0.00  0.00    +0.001 A 
ATOM     13  C   UNL     1      14.558   5.946  12.750  0.00  0.00    +0.009 A 
ATOM     14  C   UNL     1      13.824   7.103  12.437  0.00  0.00    +0.015 A 
ENDROOT
BRANCH   1  21
ATOM     15  N   UNL     1      10.816   5.854  18.592  0.00  0.00    -0.299 N 
ATOM     16  C   UNL     1       9.923   5.259  17.598  0.00  0.00    +0.127 C 
ATOM     17  C   UNL     1       9.497   6.263  16.531  0.00  0.00    +0.129 C 
ATOM     18  N   UNL     1      10.686   6.828  15.911  0.00  0.00    -0.275 N 
ATOM     19  C   UNL     1      10.875   6.667  14.557  0.00  0.00    +0.303 C 
ATOM     20  O   UNL     1      10.072   6.067  13.844  0.00  0.00    -0.253 OA
ATOM     21  N   UNL     1      12.031   7.185  14.048  0.00  0.00    -0.292 N 
ATOM     22  C   UNL     1      11.605   7.482  16.846  0.00  0.00    +0.205 C 
ATOM     23  C   UNL     1      11.615   6.953  18.296  0.00  0.00    +0.233 C 
ATOM     24  O   UNL     1      12.327   7.495  19.143  0.00  0.00    -0.274 OA
ATOM     25  H   UNL     1      12.467   7.946  14.542  0.00  0.00    +0.151 HD
BRANCH  15  27
ATOM     26  C   UNL     1       9.926   5.688  20.889  0.00  0.00    +0.024 C 
ATOM     27  C   UNL     1      10.950   5.190  19.884  0.00  0.00    +0.104 C 
ENDBRANCH  15  27
ENDBRANCH   1  21
TORSDOF 2
ENDMDL
MODEL 9
REMARK VINA RESULT:      -6.4      3.744      5.044
REMARK  Name = ZINC000329563636
REMARK  3 active torsions:
REMARK  status: ('A' for Active; 'I' for Inactive)
REMARK    1  A    between atoms: C_1  and  C_2
REMARK    2  A    between atoms: C_2  and  N_3
REMARK    3  A    between atoms: N_9  and  C_10
REMARK                            x       y       z     vdW  Elec       q    Type
REMARK                         _______ _______ _______ _____ _____    ______ ____
ROOT
ATOM      1  C   UNL     1      31.838  20.180  16.625  0.00  0.00    +0.112 C 
ATOM      2  C   UNL     1      31.447  18.704  16.756  0.00  0.00    +0.075 C 
ATOM      3  C   UNL     1      29.967  18.452  17.082  0.00  0.00    +0.113 C 
ATOM      4  C   UNL     1      29.024  18.437  15.851  0.00  0.00    +0.048 C 
ATOM      5  C   UNL     1      28.540  17.000  15.699  0.00  0.00    +0.004 C 
ATOM      6  C   UNL     1      28.555  16.454  17.113  0.00  0.00    +0.004 C 
ATOM      7  C   UNL     1      29.837  17.031  17.687  0.00  0.00    +0.048 C 
ATOM      8  O   UNL     1      29.470  19.379  18.065  0.00  0.00    -0.485 OA
ATOM      9  C   UNL     1      29.620  20.689  17.693  0.00  0.00    +0.126 A 
ATOM     10  C   UNL     1      28.619  21.584  18.067  0.00  0.00    +0.046 A 
ATOM     11  C   UNL     1      28.699  22.922  17.680  0.00  0.00    +0.004 A 
ATOM     12  C   UNL     1      29.789  23.370  16.936  0.00  0.00    +0.001 A 
ATOM     13  C   UNL     1      30.804  22.477  16.591  0.00  0.00    +0.009 A 
ATOM     14  C   UNL     1      30.725  21.126  16.968  0.00  0.00    +0.015 A 
ENDROOT
BRANCH   1  21
ATOM     15  N   UNL     1      36.568  22.860  19.794  0.00  0.00    -0.299 N 
ATOM     16  C   UNL     1      36.507  23.217  18.377  0.00  0.00    +0.127 C 
ATOM     17  C   UNL     1      36.319  21.996  17.482  0.00  0.00    +0.129 C 
ATOM     18  N   UNL     1      35.124  21.279  17.905  0.00  0.00    -0.275 N 
ATOM     19  C   UNL     1      34.093  21.110  17.009  0.00  0.00    +0.303 C 
ATOM     20  O   UNL     1      34.141  21.537  15.857  0.00  0.00    -0.253 OA
ATOM     21  N   UNL     1      32.987  20.466  17.484  0.00  0.00    -0.292 N 
ATOM     22  C   UNL     1      35.139  20.850  19.306  0.00  0.00    +0.205 C 
ATOM     23  C   UNL     1      35.965  21.709  20.287  0.00  0.00    +0.233 C 
ATOM     24  O   UNL     1      36.060  21.372  21.469  0.00  0.00    -0.274 OA
ATOM     25  H   UNL     1      33.102  19.837  18.261  0.00  0.00    +0.151 HD
BRANCH  15  27
ATOM     26  C   UNL     1      36.503  25.169  20.668  0.00  0.00    +0.024 C 
ATOM     27  C   UNL     1      37.178  23.810  20.719  0.00  0.00    +0.104 C 
ENDBRANCH  15  27
ENDBRANCH   1  21
TORSDOF 2
ENDMDL
