MODEL 1
REMARK VINA RESULT:      -6.6      0.000      0.000
REMARK  Name = ZINC000583127796
REMARK  2 active torsions:
REMARK  status: ('A' for Active; 'I' for Inactive)
REMARK    1  A    between atoms: C_2  and  C_4
REMARK    2  A    between atoms: C_7  and  C_8
REMARK                            x       y       z     vdW  Elec       q    Type
REMARK                         _______ _______ _______ _____ _____    ______ ____
ROOT
ATOM      1  C   UNL     1      30.229  20.457  14.875  0.00  0.00    +0.247 C 
ATOM      2  O   UNL     1      30.619  21.442  14.245  0.00  0.00    -0.270 OA
ATOM      3  N   UNL     1      30.625  19.147  14.564  0.00  0.00    -0.297 N 
ATOM      4  C   UNL     1      30.212  17.922  15.251  0.00  0.00    +0.108 C 
ATOM      5  C   UNL     1      31.390  17.090  15.721  0.00  0.00    +0.020 C 
ATOM      6  C   UNL     1      32.397  16.864  14.608  0.00  0.00    +0.011 C 
ATOM      7  C   UNL     1      32.832  18.174  13.907  0.00  0.00    -0.004 C 
ATOM      8  C   UNL     1      33.736  17.768  12.723  0.00  0.00    +0.020 C 
ATOM      9  C   UNL     1      34.660  18.910  12.363  0.00  0.00    +0.070 C 
ATOM     10  S   UNL     1      35.161  19.589  13.952  0.00  0.00    -0.160 S 
ATOM     11  C   UNL     1      33.672  19.066  14.848  0.00  0.00    +0.077 C 
ATOM     12  C   UNL     1      31.563  18.938  13.444  0.00  0.00    +0.115 C 
ENDROOT
BRANCH   1  16
ATOM     13  C   UNL     1      27.657  21.504  18.134  0.00  0.00    +0.037 A 
ATOM     14  C   UNL     1      29.042  21.524  18.324  0.00  0.00    +0.014 A 
ATOM     15  C   UNL     1      29.888  21.071  17.309  0.00  0.00    +0.014 A 
ATOM     16  C   UNL     1      29.363  20.707  16.068  0.00  0.00    +0.037 A 
ATOM     17  C   UNL     1      27.974  20.595  15.914  0.00  0.00    +0.014 A 
ATOM     18  C   UNL     1      27.122  20.983  16.953  0.00  0.00    +0.014 A 
BRANCH  13  20
ATOM     19  N   UNL     1      27.283  22.345  20.384  0.00  0.00    -0.325 N 
ATOM     20  C   UNL     1      26.732  22.032  19.173  0.00  0.00    +0.242 C 
ATOM     21  O   UNL     1      25.551  22.227  18.939  0.00  0.00    -0.270 OA
ATOM     22  H   UNL     1      26.671  22.817  21.040  0.00  0.00    +0.145 HD
ATOM     23  H   UNL     1      28.278  22.465  20.511  0.00  0.00    +0.145 HD
ENDBRANCH  13  20
ENDBRANCH   1  16
TORSDOF 2
ENDMDL
MODEL 2
REMARK VINA RESULT:      -6.6      3.273      4.488
REMARK  Name = ZINC000583127796
REMARK  2 active torsions:
REMARK  status: ('A' for Active; 'I' for Inactive)
REMARK    1  A    between atoms: C_2  and  C_4
REMARK    2  A    between atoms: C_7  and  C_8
REMARK                            x       y       z     vdW  Elec       q    Type
REMARK                         _______ _______ _______ _____ _____    ______ ____
ROOT
ATOM      1  C   UNL     1      32.487  16.993  15.029  0.00  0.00    +0.247 C 
ATOM      2  O   UNL     1      32.547  16.094  15.870  0.00  0.00    -0.270 OA
ATOM      3  N   UNL     1      33.124  16.913  13.781  0.00  0.00    -0.297 N 
ATOM      4  C   UNL     1      33.111  17.927  12.725  0.00  0.00    +0.108 C 
ATOM      5  C   UNL     1      32.644  17.376  11.391  0.00  0.00    +0.020 C 
ATOM      6  C   UNL     1      33.386  16.106  11.017  0.00  0.00    +0.011 C 
ATOM      7  C   UNL     1      33.373  15.041  12.141  0.00  0.00    -0.004 C 
ATOM      8  C   UNL     1      34.277  13.882  11.669  0.00  0.00    +0.020 C 
ATOM      9  C   UNL     1      33.876  12.599  12.362  0.00  0.00    +0.070 C 
ATOM     10  S   UNL     1      32.078  12.656  12.390  0.00  0.00    -0.160 S 
ATOM     11  C   UNL     1      31.955  14.467  12.359  0.00  0.00    +0.077 C 
ATOM     12  C   UNL     1      33.888  15.693  13.452  0.00  0.00    +0.115 C 
ENDROOT
BRANCH   1  16
ATOM     13  C   UNL     1      29.922  20.191  16.261  0.00  0.00    +0.037 A 
ATOM     14  C   UNL     1      29.507  19.342  15.231  0.00  0.00    +0.014 A 
ATOM     15  C   UNL     1      30.381  18.371  14.738  0.00  0.00    +0.014 A 
ATOM     16  C   UNL     1      31.622  18.170  15.346  0.00  0.00    +0.037 A 
ATOM     17  C   UNL     1      32.072  19.083  16.310  0.00  0.00    +0.014 A 
ATOM     18  C   UNL     1      31.225  20.101  16.758  0.00  0.00    +0.014 A 
BRANCH  13  20
ATOM     19  N   UNL     1      27.909  21.545  16.092  0.00  0.00    -0.325 N 
ATOM     20  C   UNL     1      28.995  21.198  16.847  0.00  0.00    +0.242 C 
ATOM     21  O   UNL     1      29.167  21.653  17.965  0.00  0.00    -0.270 OA
ATOM     22  H   UNL     1      27.223  22.135  16.549  0.00  0.00    +0.145 HD
ATOM     23  H   UNL     1      27.593  20.988  15.310  0.00  0.00    +0.145 HD
ENDBRANCH  13  20
ENDBRANCH   1  16
TORSDOF 2
ENDMDL
MODEL 3
REMARK VINA RESULT:      -6.6      1.140      1.171
REMARK  Name = ZINC000583127796
REMARK  2 active torsions:
REMARK  status: ('A' for Active; 'I' for Inactive)
REMARK    1  A    between atoms: C_2  and  C_4
REMARK    2  A    between atoms: C_7  and  C_8
REMARK                            x       y       z     vdW  Elec       q    Type
REMARK                         _______ _______ _______ _____ _____    ______ ____
ROOT
ATOM      1  C   UNL     1      30.010  20.060  14.719  0.00  0.00    +0.247 C 
ATOM      2  O   UNL     1      30.075  20.899  13.818  0.00  0.00    -0.270 OA
ATOM      3  N   UNL     1      30.400  18.723  14.545  0.00  0.00    -0.297 N 
ATOM      4  C   UNL     1      30.355  17.660  15.551  0.00  0.00    +0.108 C 
ATOM      5  C   UNL     1      31.694  16.972  15.734  0.00  0.00    +0.020 C 
ATOM      6  C   UNL     1      32.289  16.539  14.406  0.00  0.00    +0.011 C 
ATOM      7  C   UNL     1      32.342  17.682  13.363  0.00  0.00    -0.004 C 
ATOM      8  C   UNL     1      32.833  17.057  12.040  0.00  0.00    +0.020 C 
ATOM      9  C   UNL     1      33.474  18.118  11.173  0.00  0.00    +0.070 C 
ATOM     10  S   UNL     1      34.411  19.126  12.332  0.00  0.00    -0.160 S 
ATOM     11  C   UNL     1      33.360  18.771  13.769  0.00  0.00    +0.077 C 
ATOM     12  C   UNL     1      30.926  18.304  13.231  0.00  0.00    +0.115 C 
ENDROOT
BRANCH   1  16
ATOM     13  C   UNL     1      28.638  21.739  18.410  0.00  0.00    +0.037 A 
ATOM     14  C   UNL     1      30.012  21.647  18.171  0.00  0.00    +0.014 A 
ATOM     15  C   UNL     1      30.475  20.994  17.027  0.00  0.00    +0.014 A 
ATOM     16  C   UNL     1      29.572  20.535  16.067  0.00  0.00    +0.037 A 
ATOM     17  C   UNL     1      28.200  20.541  16.354  0.00  0.00    +0.014 A 
ATOM     18  C   UNL     1      27.735  21.133  17.533  0.00  0.00    +0.014 A 
BRANCH  13  20
ATOM     19  N   UNL     1      28.406  23.809  19.664  0.00  0.00    -0.325 N 
ATOM     20  C   UNL     1      28.111  22.476  19.590  0.00  0.00    +0.242 C 
ATOM     21  O   UNL     1      27.405  21.932  20.423  0.00  0.00    -0.270 OA
ATOM     22  H   UNL     1      27.942  24.325  20.402  0.00  0.00    +0.145 HD
ATOM     23  H   UNL     1      28.733  24.336  18.866  0.00  0.00    +0.145 HD
ENDBRANCH  13  20
ENDBRANCH   1  16
TORSDOF 2
ENDMDL
MODEL 4
REMARK VINA RESULT:      -6.4      1.193      1.614
REMARK  Name = ZINC000583127796
REMARK  2 active torsions:
REMARK  status: ('A' for Active; 'I' for Inactive)
REMARK    1  A    between atoms: C_2  and  C_4
REMARK    2  A    between atoms: C_7  and  C_8
REMARK                            x       y       z     vdW  Elec       q    Type
REMARK                         _______ _______ _______ _____ _____    ______ ____
ROOT
ATOM      1  C   UNL     1      30.511  19.887  14.341  0.00  0.00    +0.247 C 
ATOM      2  O   UNL     1      30.833  20.611  13.397  0.00  0.00    -0.270 OA
ATOM      3  N   UNL     1      30.838  18.523  14.401  0.00  0.00    -0.297 N 
ATOM      4  C   UNL     1      30.497  17.589  15.476  0.00  0.00    +0.108 C 
ATOM      5  C   UNL     1      31.712  16.871  16.032  0.00  0.00    +0.020 C 
ATOM      6  C   UNL     1      32.559  16.261  14.930  0.00  0.00    +0.011 C 
ATOM      7  C   UNL     1      32.921  17.271  13.813  0.00  0.00    -0.004 C 
ATOM      8  C   UNL     1      33.652  16.474  12.711  0.00  0.00    +0.020 C 
ATOM      9  C   UNL     1      34.542  17.399  11.910  0.00  0.00    +0.070 C 
ATOM     10  S   UNL     1      35.261  18.495  13.142  0.00  0.00    -0.160 S 
ATOM     11  C   UNL     1      33.894  18.355  14.327  0.00  0.00    +0.077 C 
ATOM     12  C   UNL     1      31.616  17.932  13.295  0.00  0.00    +0.115 C 
ENDROOT
BRANCH   1  16
ATOM     13  C   UNL     1      28.589  21.426  17.843  0.00  0.00    +0.037 A 
ATOM     14  C   UNL     1      27.809  21.047  16.747  0.00  0.00    +0.014 A 
ATOM     15  C   UNL     1      28.426  20.657  15.557  0.00  0.00    +0.014 A 
ATOM     16  C   UNL     1      29.816  20.535  15.495  0.00  0.00    +0.037 A 
ATOM     17  C   UNL     1      30.597  21.007  16.559  0.00  0.00    +0.014 A 
ATOM     18  C   UNL     1      29.981  21.464  17.729  0.00  0.00    +0.014 A 
BRANCH  13  20
ATOM     19  N   UNL     1      26.596  21.798  19.186  0.00  0.00    -0.325 N 
ATOM     20  C   UNL     1      27.963  21.793  19.142  0.00  0.00    +0.242 C 
ATOM     21  O   UNL     1      28.634  22.026  20.133  0.00  0.00    -0.270 OA
ATOM     22  H   UNL     1      26.183  21.927  20.101  0.00  0.00    +0.145 HD
ATOM     23  H   UNL     1      26.031  21.341  18.483  0.00  0.00    +0.145 HD
ENDBRANCH  13  20
ENDBRANCH   1  16
TORSDOF 2
ENDMDL
MODEL 5
REMARK VINA RESULT:      -6.3      4.034      7.568
REMARK  Name = ZINC000583127796
REMARK  2 active torsions:
REMARK  status: ('A' for Active; 'I' for Inactive)
REMARK    1  A    between atoms: C_2  and  C_4
REMARK    2  A    between atoms: C_7  and  C_8
REMARK                            x       y       z     vdW  Elec       q    Type
REMARK                         _______ _______ _______ _____ _____    ______ ____
ROOT
ATOM      1  C   UNL     1      33.129  17.263  14.258  0.00  0.00    +0.247 C 
ATOM      2  O   UNL     1      34.223  17.633  13.828  0.00  0.00    -0.270 OA
ATOM      3  N   UNL     1      32.312  18.072  15.064  0.00  0.00    -0.297 N 
ATOM      4  C   UNL     1      31.006  17.717  15.620  0.00  0.00    +0.108 C 
ATOM      5  C   UNL     1      29.927  18.724  15.268  0.00  0.00    +0.020 C 
ATOM      6  C   UNL     1      30.364  20.145  15.575  0.00  0.00    +0.011 C 
ATOM      7  C   UNL     1      31.740  20.504  14.963  0.00  0.00    -0.004 C 
ATOM      8  C   UNL     1      32.103  21.913  15.476  0.00  0.00    +0.020 C 
ATOM      9  C   UNL     1      33.067  22.580  14.519  0.00  0.00    +0.070 C 
ATOM     10  S   UNL     1      32.456  22.122  12.890  0.00  0.00    -0.160 S 
ATOM     11  C   UNL     1      31.671  20.574  13.421  0.00  0.00    +0.077 C 
ATOM     12  C   UNL     1      32.775  19.432  15.399  0.00  0.00    +0.115 C 
ENDROOT
BRANCH   1  16
ATOM     13  C   UNL     1      32.070  13.360  12.852  0.00  0.00    +0.037 A 
ATOM     14  C   UNL     1      31.553  14.483  12.200  0.00  0.00    +0.014 A 
ATOM     15  C   UNL     1      31.792  15.757  12.719  0.00  0.00    +0.014 A 
ATOM     16  C   UNL     1      32.638  15.920  13.817  0.00  0.00    +0.037 A 
ATOM     17  C   UNL     1      33.074  14.791  14.525  0.00  0.00    +0.014 A 
ATOM     18  C   UNL     1      32.778  13.510  14.047  0.00  0.00    +0.014 A 
BRANCH  13  20
ATOM     19  N   UNL     1      33.002  11.352  11.847  0.00  0.00    -0.325 N 
ATOM     20  C   UNL     1      31.881  11.993  12.294  0.00  0.00    +0.242 C 
ATOM     21  O   UNL     1      30.788  11.451  12.284  0.00  0.00    -0.270 OA
ATOM     22  H   UNL     1      32.882  10.381  11.585  0.00  0.00    +0.145 HD
ATOM     23  H   UNL     1      33.934  11.651  12.100  0.00  0.00    +0.145 HD
ENDBRANCH  13  20
ENDBRANCH   1  16
TORSDOF 2
ENDMDL
MODEL 6
REMARK VINA RESULT:      -6.3      1.905      2.209
REMARK  Name = ZINC000583127796
REMARK  2 active torsions:
REMARK  status: ('A' for Active; 'I' for Inactive)
REMARK    1  A    between atoms: C_2  and  C_4
REMARK    2  A    between atoms: C_7  and  C_8
REMARK                            x       y       z     vdW  Elec       q    Type
REMARK                         _______ _______ _______ _____ _____    ______ ____
ROOT
ATOM      1  C   UNL     1      30.336  19.389  14.679  0.00  0.00    +0.247 C 
ATOM      2  O   UNL     1      30.149  20.036  13.647  0.00  0.00    -0.270 OA
ATOM      3  N   UNL     1      30.731  18.043  14.673  0.00  0.00    -0.297 N 
ATOM      4  C   UNL     1      30.973  17.197  15.843  0.00  0.00    +0.108 C 
ATOM      5  C   UNL     1      32.346  16.552  15.824  0.00  0.00    +0.020 C 
ATOM      6  C   UNL     1      32.627  15.867  14.499  0.00  0.00    +0.011 C 
ATOM      7  C   UNL     1      32.380  16.784  13.277  0.00  0.00    -0.004 C 
ATOM      8  C   UNL     1      32.569  15.911  12.018  0.00  0.00    +0.020 C 
ATOM      9  C   UNL     1      32.939  16.781  10.836  0.00  0.00    +0.070 C 
ATOM     10  S   UNL     1      34.080  17.992  11.522  0.00  0.00    -0.160 S 
ATOM     11  C   UNL     1      33.418  17.927  13.210  0.00  0.00    +0.077 C 
ATOM     12  C   UNL     1      30.948  17.374  13.376  0.00  0.00    +0.115 C 
ENDROOT
BRANCH   1  16
ATOM     13  C   UNL     1      29.922  21.797  18.195  0.00  0.00    +0.037 A 
ATOM     14  C   UNL     1      31.186  21.317  17.841  0.00  0.00    +0.014 A 
ATOM     15  C   UNL     1      31.318  20.434  16.768  0.00  0.00    +0.014 A 
ATOM     16  C   UNL     1      30.211  20.120  15.977  0.00  0.00    +0.037 A 
ATOM     17  C   UNL     1      28.933  20.523  16.391  0.00  0.00    +0.014 A 
ATOM     18  C   UNL     1      28.789  21.352  17.508  0.00  0.00    +0.014 A 
BRANCH  13  20
ATOM     19  N   UNL     1      28.631  23.559  19.261  0.00  0.00    -0.325 N 
ATOM     20  C   UNL     1      29.755  22.782  19.297  0.00  0.00    +0.242 C 
ATOM     21  O   UNL     1      30.553  22.856  20.217  0.00  0.00    -0.270 OA
ATOM     22  H   UNL     1      28.465  24.137  20.077  0.00  0.00    +0.145 HD
ATOM     23  H   UNL     1      27.831  23.328  18.688  0.00  0.00    +0.145 HD
ENDBRANCH  13  20
ENDBRANCH   1  16
TORSDOF 2
ENDMDL
MODEL 7
REMARK VINA RESULT:      -6.3      3.500      6.989
REMARK  Name = ZINC000583127796
REMARK  2 active torsions:
REMARK  status: ('A' for Active; 'I' for Inactive)
REMARK    1  A    between atoms: C_2  and  C_4
REMARK    2  A    between atoms: C_7  and  C_8
REMARK                            x       y       z     vdW  Elec       q    Type
REMARK                         _______ _______ _______ _____ _____    ______ ____
ROOT
ATOM      1  C   UNL     1      31.690  20.041  14.199  0.00  0.00    +0.247 C 
ATOM      2  O   UNL     1      30.937  20.914  13.762  0.00  0.00    -0.270 OA
ATOM      3  N   UNL     1      32.485  20.221  15.341  0.00  0.00    -0.297 N 
ATOM      4  C   UNL     1      33.406  19.247  15.929  0.00  0.00    +0.108 C 
ATOM      5  C   UNL     1      33.128  18.992  17.398  0.00  0.00    +0.020 C 
ATOM      6  C   UNL     1      33.017  20.287  18.182  0.00  0.00    +0.011 C 
ATOM      7  C   UNL     1      32.026  21.296  17.552  0.00  0.00    -0.004 C 
ATOM      8  C   UNL     1      32.131  22.598  18.374  0.00  0.00    +0.020 C 
ATOM      9  C   UNL     1      30.850  23.393  18.249  0.00  0.00    +0.070 C 
ATOM     10  S   UNL     1      29.552  22.149  18.312  0.00  0.00    -0.160 S 
ATOM     11  C   UNL     1      30.568  20.795  17.658  0.00  0.00    +0.077 C 
ATOM     12  C   UNL     1      32.407  21.506  16.062  0.00  0.00    +0.115 C 
ENDROOT
BRANCH   1  16
ATOM     13  C   UNL     1      31.859  16.112  12.507  0.00  0.00    +0.037 A 
ATOM     14  C   UNL     1      32.558  17.152  11.888  0.00  0.00    +0.014 A 
ATOM     15  C   UNL     1      32.416  18.459  12.358  0.00  0.00    +0.014 A 
ATOM     16  C   UNL     1      31.671  18.713  13.511  0.00  0.00    +0.037 A 
ATOM     17  C   UNL     1      30.895  17.688  14.070  0.00  0.00    +0.014 A 
ATOM     18  C   UNL     1      30.981  16.389  13.558  0.00  0.00    +0.014 A 
BRANCH  13  20
ATOM     19  N   UNL     1      33.296  14.317  11.717  0.00  0.00    -0.325 N 
ATOM     20  C   UNL     1      32.031  14.701  12.066  0.00  0.00    +0.242 C 
ATOM     21  O   UNL     1      31.102  13.911  12.067  0.00  0.00    -0.270 OA
ATOM     22  H   UNL     1      33.425  13.328  11.538  0.00  0.00    +0.145 HD
ATOM     23  H   UNL     1      34.115  14.851  11.975  0.00  0.00    +0.145 HD
ENDBRANCH  13  20
ENDBRANCH   1  16
TORSDOF 2
ENDMDL
MODEL 8
REMARK VINA RESULT:      -6.2      1.880      2.865
REMARK  Name = ZINC000583127796
REMARK  2 active torsions:
REMARK  status: ('A' for Active; 'I' for Inactive)
REMARK    1  A    between atoms: C_2  and  C_4
REMARK    2  A    between atoms: C_7  and  C_8
REMARK                            x       y       z     vdW  Elec       q    Type
REMARK                         _______ _______ _______ _____ _____    ______ ____
ROOT
ATOM      1  C   UNL     1      31.626  20.046  15.960  0.00  0.00    +0.247 C 
ATOM      2  O   UNL     1      31.916  18.894  16.285  0.00  0.00    -0.270 OA
ATOM      3  N   UNL     1      32.330  20.763  14.980  0.00  0.00    -0.297 N 
ATOM      4  C   UNL     1      32.060  22.130  14.533  0.00  0.00    +0.108 C 
ATOM      5  C   UNL     1      31.872  22.228  13.030  0.00  0.00    +0.020 C 
ATOM      6  C   UNL     1      32.999  21.544  12.278  0.00  0.00    +0.011 C 
ATOM      7  C   UNL     1      33.256  20.094  12.756  0.00  0.00    -0.004 C 
ATOM      8  C   UNL     1      34.507  19.591  12.003  0.00  0.00    +0.020 C 
ATOM      9  C   UNL     1      34.491  18.080  11.927  0.00  0.00    +0.070 C 
ATOM     10  S   UNL     1      32.769  17.673  11.602  0.00  0.00    -0.160 S 
ATOM     11  C   UNL     1      32.083  19.160  12.383  0.00  0.00    +0.077 C 
ATOM     12  C   UNL     1      33.458  20.103  14.294  0.00  0.00    +0.115 C 
ENDROOT
BRANCH   1  16
ATOM     13  C   UNL     1      28.172  21.500  18.031  0.00  0.00    +0.037 A 
ATOM     14  C   UNL     1      28.014  20.899  16.779  0.00  0.00    +0.014 A 
ATOM     15  C   UNL     1      29.140  20.530  16.040  0.00  0.00    +0.014 A 
ATOM     16  C   UNL     1      30.415  20.652  16.595  0.00  0.00    +0.037 A 
ATOM     17  C   UNL     1      30.576  21.342  17.805  0.00  0.00    +0.014 A 
ATOM     18  C   UNL     1      29.453  21.776  18.517  0.00  0.00    +0.014 A 
BRANCH  13  20
ATOM     19  N   UNL     1      27.243  22.195  20.168  0.00  0.00    -0.325 N 
ATOM     20  C   UNL     1      26.993  21.854  18.868  0.00  0.00    +0.242 C 
ATOM     21  O   UNL     1      25.866  21.890  18.404  0.00  0.00    -0.270 OA
ATOM     22  H   UNL     1      26.453  22.552  20.692  0.00  0.00    +0.145 HD
ATOM     23  H   UNL     1      28.166  22.448  20.493  0.00  0.00    +0.145 HD
ENDBRANCH  13  20
ENDBRANCH   1  16
TORSDOF 2
ENDMDL
MODEL 9
REMARK VINA RESULT:      -6.1     10.439     12.384
REMARK  Name = ZINC000583127796
REMARK  2 active torsions:
REMARK  status: ('A' for Active; 'I' for Inactive)
REMARK    1  A    between atoms: C_2  and  C_4
REMARK    2  A    between atoms: C_7  and  C_8
REMARK                            x       y       z     vdW  Elec       q    Type
REMARK                         _______ _______ _______ _____ _____    ______ ____
ROOT
ATOM      1  C   UNL     1      21.875  27.203  20.019  0.00  0.00    +0.247 C 
ATOM      2  O   UNL     1      20.968  27.088  20.846  0.00  0.00    -0.270 OA
ATOM      3  N   UNL     1      23.089  27.846  20.304  0.00  0.00    -0.297 N 
ATOM      4  C   UNL     1      24.217  28.032  19.388  0.00  0.00    +0.108 C 
ATOM      5  C   UNL     1      25.523  27.509  19.956  0.00  0.00    +0.020 C 
ATOM      6  C   UNL     1      25.774  28.032  21.359  0.00  0.00    +0.011 C 
ATOM      7  C   UNL     1      24.576  27.810  22.314  0.00  0.00    -0.004 C 
ATOM      8  C   UNL     1      24.928  28.512  23.643  0.00  0.00    +0.020 C 
ATOM      9  C   UNL     1      24.157  27.881  24.781  0.00  0.00    +0.070 C 
ATOM     10  S   UNL     1      24.200  26.119  24.418  0.00  0.00    -0.160 S 
ATOM     11  C   UNL     1      24.369  26.310  22.621  0.00  0.00    +0.077 C 
ATOM     12  C   UNL     1      23.299  28.397  21.657  0.00  0.00    +0.115 C 
ENDROOT
BRANCH   1  16
ATOM     13  C   UNL     1      21.673  25.402  16.140  0.00  0.00    +0.037 A 
ATOM     14  C   UNL     1      21.026  26.621  16.361  0.00  0.00    +0.014 A 
ATOM     15  C   UNL     1      20.982  27.160  17.648  0.00  0.00    +0.014 A 
ATOM     16  C   UNL     1      21.678  26.545  18.691  0.00  0.00    +0.037 A 
ATOM     17  C   UNL     1      22.242  25.277  18.489  0.00  0.00    +0.014 A 
ATOM     18  C   UNL     1      22.228  24.701  17.214  0.00  0.00    +0.014 A 
BRANCH  13  20
ATOM     19  N   UNL     1      22.509  23.675  14.646  0.00  0.00    -0.325 N 
ATOM     20  C   UNL     1      21.786  24.829  14.771  0.00  0.00    +0.242 C 
ATOM     21  O   UNL     1      21.219  25.333  13.817  0.00  0.00    -0.270 OA
ATOM     22  H   UNL     1      22.477  23.228  13.738  0.00  0.00    +0.145 HD
ATOM     23  H   UNL     1      22.741  23.093  15.440  0.00  0.00    +0.145 HD
ENDBRANCH  13  20
ENDBRANCH   1  16
TORSDOF 2
ENDMDL
