MODEL 1
REMARK VINA RESULT:      -6.9      0.000      0.000
REMARK  Name = ZINC000435351830
REMARK  5 active torsions:
REMARK  status: ('A' for Active; 'I' for Inactive)
REMARK    1  A    between atoms: C_2  and  C_3
REMARK    2  A    between atoms: C_7  and  C_8
REMARK    3  A    between atoms: C_8  and  C_9
REMARK    4  A    between atoms: N_11  and  C_12
REMARK    5  A    between atoms: C_12  and  C_13
REMARK                            x       y       z     vdW  Elec       q    Type
REMARK                         _______ _______ _______ _____ _____    ______ ____
ROOT
ATOM      1  C   UNL     1      31.538  22.440  15.649  0.00  0.00    +0.224 C 
ATOM      2  O   UNL     1      32.360  22.875  16.448  0.00  0.00    -0.275 OA
ATOM      3  N   UNL     1      30.884  23.201  14.716  0.00  0.00    -0.309 N 
ATOM      4  H   UNL     1      30.245  22.763  14.068  0.00  0.00    +0.149 HD
ENDROOT
BRANCH   1   5
ATOM      5  C   UNL     1      31.131  20.989  15.681  0.00  0.00    +0.072 C 
ATOM      6  C   UNL     1      31.751  20.037  14.665  0.00  0.00    +0.022 C 
ATOM      7  C   UNL     1      32.207  19.974  16.086  0.00  0.00    +0.022 C 
BRANCH   5  12
ATOM      8  C   UNL     1      28.201  20.923  18.157  0.00  0.00    +0.052 A 
ATOM      9  C   UNL     1      27.281  20.098  17.509  0.00  0.00    +0.019 A 
ATOM     10  C   UNL     1      27.572  19.599  16.239  0.00  0.00    +0.002 A 
ATOM     11  C   UNL     1      28.791  19.903  15.626  0.00  0.00    +0.005 A 
ATOM     12  C   UNL     1      29.750  20.705  16.270  0.00  0.00    -0.031 A 
ATOM     13  C   UNL     1      29.412  21.231  17.531  0.00  0.00    +0.023 A 
BRANCH   8  15
ATOM     14  N   UNL     1      27.710  21.821  20.540  0.00  0.00    -0.191 NA
ATOM     15  C   UNL     1      27.929  21.426  19.469  0.00  0.00    +0.099 C 
ENDBRANCH   8  15
ENDBRANCH   5  12
ENDBRANCH   1   5
BRANCH   3  16
ATOM     16  C   UNL     1      31.050  24.637  14.657  0.00  0.00    +0.159 C 
BRANCH  16  17
ATOM     17  C   UNL     1      31.471  25.134  13.292  0.00  0.00    +0.058 A 
ATOM     18  C   UNL     1      30.826  26.230  12.713  0.00  0.00    +0.028 A 
ATOM     19  C   UNL     1      31.215  26.653  11.443  0.00  0.00    +0.042 A 
ATOM     20  C   UNL     1      32.234  25.974  10.798  0.00  0.00    +0.141 A 
ATOM     21  F   UNL     1      32.628  26.349   9.574  0.00  0.00    -0.204 F 
ATOM     22  C   UNL     1      32.835  24.905  11.437  0.00  0.00    +0.149 A 
ATOM     23  N   UNL     1      32.483  24.471  12.671  0.00  0.00    -0.255 NA
ENDBRANCH  16  17
ENDBRANCH   3  16
TORSDOF 5
ENDMDL
MODEL 2
REMARK VINA RESULT:      -6.8      5.175      7.423
REMARK  Name = ZINC000435351830
REMARK  5 active torsions:
REMARK  status: ('A' for Active; 'I' for Inactive)
REMARK    1  A    between atoms: C_2  and  C_3
REMARK    2  A    between atoms: C_7  and  C_8
REMARK    3  A    between atoms: C_8  and  C_9
REMARK    4  A    between atoms: N_11  and  C_12
REMARK    5  A    between atoms: C_12  and  C_13
REMARK                            x       y       z     vdW  Elec       q    Type
REMARK                         _______ _______ _______ _____ _____    ______ ____
ROOT
ATOM      1  C   UNL     1      27.505  22.653  19.509  0.00  0.00    +0.224 C 
ATOM      2  O   UNL     1      27.368  21.879  20.449  0.00  0.00    -0.275 OA
ATOM      3  N   UNL     1      26.600  23.622  19.162  0.00  0.00    -0.309 N 
ATOM      4  H   UNL     1      26.801  24.246  18.394  0.00  0.00    +0.149 HD
ENDROOT
BRANCH   1   5
ATOM      5  C   UNL     1      28.701  22.549  18.597  0.00  0.00    +0.072 C 
ATOM      6  C   UNL     1      29.426  23.830  18.201  0.00  0.00    +0.022 C 
ATOM      7  C   UNL     1      30.064  22.917  19.195  0.00  0.00    +0.022 C 
BRANCH   5  12
ATOM      8  C   UNL     1      30.045  19.603  16.540  0.00  0.00    +0.052 A 
ATOM      9  C   UNL     1      28.902  19.155  15.878  0.00  0.00    +0.019 A 
ATOM     10  C   UNL     1      27.672  19.762  16.131  0.00  0.00    +0.002 A 
ATOM     11  C   UNL     1      27.587  20.833  17.025  0.00  0.00    +0.005 A 
ATOM     12  C   UNL     1      28.728  21.326  17.682  0.00  0.00    -0.031 A 
ATOM     13  C   UNL     1      29.949  20.666  17.442  0.00  0.00    +0.023 A 
BRANCH   8  15
ATOM     14  N   UNL     1      32.347  18.512  16.055  0.00  0.00    -0.191 NA
ATOM     15  C   UNL     1      31.319  19.007  16.277  0.00  0.00    +0.099 C 
ENDBRANCH   8  15
ENDBRANCH   5  12
ENDBRANCH   1   5
BRANCH   3  16
ATOM     16  C   UNL     1      25.330  23.751  19.843  0.00  0.00    +0.159 C 
BRANCH  16  17
ATOM     17  C   UNL     1      24.394  24.736  19.178  0.00  0.00    +0.058 A 
ATOM     18  C   UNL     1      23.911  24.489  17.891  0.00  0.00    +0.028 A 
ATOM     19  C   UNL     1      23.071  25.425  17.289  0.00  0.00    +0.042 A 
ATOM     20  C   UNL     1      22.737  26.569  17.992  0.00  0.00    +0.141 A 
ATOM     21  F   UNL     1      21.937  27.492  17.443  0.00  0.00    -0.204 F 
ATOM     22  C   UNL     1      23.242  26.742  19.268  0.00  0.00    +0.149 A 
ATOM     23  N   UNL     1      24.059  25.851  19.882  0.00  0.00    -0.255 NA
ENDBRANCH  16  17
ENDBRANCH   3  16
TORSDOF 5
ENDMDL
MODEL 3
REMARK VINA RESULT:      -6.8      4.080      6.169
REMARK  Name = ZINC000435351830
REMARK  5 active torsions:
REMARK  status: ('A' for Active; 'I' for Inactive)
REMARK    1  A    between atoms: C_2  and  C_3
REMARK    2  A    between atoms: C_7  and  C_8
REMARK    3  A    between atoms: C_8  and  C_9
REMARK    4  A    between atoms: N_11  and  C_12
REMARK    5  A    between atoms: C_12  and  C_13
REMARK                            x       y       z     vdW  Elec       q    Type
REMARK                         _______ _______ _______ _____ _____    ______ ____
ROOT
ATOM      1  C   UNL     1      31.641  20.017  15.006  0.00  0.00    +0.224 C 
ATOM      2  O   UNL     1      32.760  20.237  14.556  0.00  0.00    -0.275 OA
ATOM      3  N   UNL     1      31.169  18.774  15.337  0.00  0.00    -0.309 N 
ATOM      4  H   UNL     1      30.246  18.677  15.736  0.00  0.00    +0.149 HD
ENDROOT
BRANCH   1   5
ATOM      5  C   UNL     1      30.648  21.138  15.177  0.00  0.00    +0.072 C 
ATOM      6  C   UNL     1      31.143  22.574  15.046  0.00  0.00    +0.022 C 
ATOM      7  C   UNL     1      30.336  21.984  13.936  0.00  0.00    +0.022 C 
BRANCH   5  12
ATOM      8  C   UNL     1      28.318  20.928  18.217  0.00  0.00    +0.052 A 
ATOM      9  C   UNL     1      27.283  20.119  17.745  0.00  0.00    +0.019 A 
ATOM     10  C   UNL     1      27.296  19.679  16.422  0.00  0.00    +0.002 A 
ATOM     11  C   UNL     1      28.355  20.024  15.576  0.00  0.00    +0.005 A 
ATOM     12  C   UNL     1      29.426  20.811  16.034  0.00  0.00    -0.031 A 
ATOM     13  C   UNL     1      29.365  21.279  17.361  0.00  0.00    +0.023 A 
BRANCH   8  15
ATOM     14  N   UNL     1      28.334  21.742  20.679  0.00  0.00    -0.191 NA
ATOM     15  C   UNL     1      28.332  21.371  19.578  0.00  0.00    +0.099 C 
ENDBRANCH   8  15
ENDBRANCH   5  12
ENDBRANCH   1   5
BRANCH   3  16
ATOM     16  C   UNL     1      31.943  17.577  15.090  0.00  0.00    +0.159 C 
BRANCH  16  17
ATOM     17  C   UNL     1      31.383  16.724  13.974  0.00  0.00    +0.058 A 
ATOM     18  C   UNL     1      30.002  16.563  13.837  0.00  0.00    +0.028 A 
ATOM     19  C   UNL     1      29.511  15.750  12.816  0.00  0.00    +0.042 A 
ATOM     20  C   UNL     1      30.411  15.132  11.965  0.00  0.00    +0.141 A 
ATOM     21  F   UNL     1      29.975  14.340  10.978  0.00  0.00    -0.204 F 
ATOM     22  C   UNL     1      31.764  15.347  12.153  0.00  0.00    +0.149 A 
ATOM     23  N   UNL     1      32.274  16.132  13.133  0.00  0.00    -0.255 NA
ENDBRANCH  16  17
ENDBRANCH   3  16
TORSDOF 5
ENDMDL
MODEL 4
REMARK VINA RESULT:      -6.5      5.051      7.422
REMARK  Name = ZINC000435351830
REMARK  5 active torsions:
REMARK  status: ('A' for Active; 'I' for Inactive)
REMARK    1  A    between atoms: C_2  and  C_3
REMARK    2  A    between atoms: C_7  and  C_8
REMARK    3  A    between atoms: C_8  and  C_9
REMARK    4  A    between atoms: N_11  and  C_12
REMARK    5  A    between atoms: C_12  and  C_13
REMARK                            x       y       z     vdW  Elec       q    Type
REMARK                         _______ _______ _______ _____ _____    ______ ____
ROOT
ATOM      1  C   UNL     1      27.287  22.498  19.147  0.00  0.00    +0.224 C 
ATOM      2  O   UNL     1      26.943  21.408  19.590  0.00  0.00    -0.275 OA
ATOM      3  N   UNL     1      26.502  23.622  19.153  0.00  0.00    -0.309 N 
ATOM      4  H   UNL     1      26.869  24.494  18.800  0.00  0.00    +0.149 HD
ENDROOT
BRANCH   1   5
ATOM      5  C   UNL     1      28.630  22.669  18.483  0.00  0.00    +0.072 C 
ATOM      6  C   UNL     1      29.379  23.980  18.687  0.00  0.00    +0.022 C 
ATOM      7  C   UNL     1      29.852  22.759  19.405  0.00  0.00    +0.022 C 
BRANCH   5  12
ATOM      8  C   UNL     1      29.549  19.701  16.233  0.00  0.00    +0.052 A 
ATOM      9  C   UNL     1      29.450  20.253  14.955  0.00  0.00    +0.019 A 
ATOM     10  C   UNL     1      29.028  21.574  14.802  0.00  0.00    +0.002 A 
ATOM     11  C   UNL     1      28.731  22.352  15.925  0.00  0.00    +0.005 A 
ATOM     12  C   UNL     1      28.854  21.832  17.225  0.00  0.00    -0.031 A 
ATOM     13  C   UNL     1      29.238  20.483  17.349  0.00  0.00    +0.023 A 
BRANCH   8  15
ATOM     14  N   UNL     1      30.378  17.266  16.564  0.00  0.00    -0.191 NA
ATOM     15  C   UNL     1      30.001  18.355  16.410  0.00  0.00    +0.099 C 
ENDBRANCH   8  15
ENDBRANCH   5  12
ENDBRANCH   1   5
BRANCH   3  16
ATOM     16  C   UNL     1      25.131  23.586  19.615  0.00  0.00    +0.159 C 
BRANCH  16  17
ATOM     17  C   UNL     1      24.275  24.686  19.028  0.00  0.00    +0.058 A 
ATOM     18  C   UNL     1      23.978  25.825  19.782  0.00  0.00    +0.028 A 
ATOM     19  C   UNL     1      23.166  26.813  19.228  0.00  0.00    +0.042 A 
ATOM     20  C   UNL     1      22.682  26.635  17.944  0.00  0.00    +0.141 A 
ATOM     21  F   UNL     1      21.893  27.561  17.383  0.00  0.00    -0.204 F 
ATOM     22  C   UNL     1      23.027  25.489  17.252  0.00  0.00    +0.149 A 
ATOM     23  N   UNL     1      23.816  24.511  17.759  0.00  0.00    -0.255 NA
ENDBRANCH  16  17
ENDBRANCH   3  16
TORSDOF 5
ENDMDL
MODEL 5
REMARK VINA RESULT:      -6.5      0.995      1.151
REMARK  Name = ZINC000435351830
REMARK  5 active torsions:
REMARK  status: ('A' for Active; 'I' for Inactive)
REMARK    1  A    between atoms: C_2  and  C_3
REMARK    2  A    between atoms: C_7  and  C_8
REMARK    3  A    between atoms: C_8  and  C_9
REMARK    4  A    between atoms: N_11  and  C_12
REMARK    5  A    between atoms: C_12  and  C_13
REMARK                            x       y       z     vdW  Elec       q    Type
REMARK                         _______ _______ _______ _____ _____    ______ ____
ROOT
ATOM      1  C   UNL     1      32.269  21.364  16.301  0.00  0.00    +0.224 C 
ATOM      2  O   UNL     1      32.858  21.645  17.339  0.00  0.00    -0.275 OA
ATOM      3  N   UNL     1      32.197  22.182  15.204  0.00  0.00    -0.309 N 
ATOM      4  H   UNL     1      31.722  21.865  14.371  0.00  0.00    +0.149 HD
ENDROOT
BRANCH   1   5
ATOM      5  C   UNL     1      31.501  20.073  16.179  0.00  0.00    +0.072 C 
ATOM      6  C   UNL     1      32.024  19.004  15.225  0.00  0.00    +0.022 C 
ATOM      7  C   UNL     1      32.191  18.804  16.695  0.00  0.00    +0.022 C 
BRANCH   5  12
ATOM      8  C   UNL     1      28.264  20.812  18.100  0.00  0.00    +0.052 A 
ATOM      9  C   UNL     1      27.295  20.215  17.293  0.00  0.00    +0.019 A 
ATOM     10  C   UNL     1      27.668  19.616  16.090  0.00  0.00    +0.002 A 
ATOM     11  C   UNL     1      29.012  19.591  15.704  0.00  0.00    +0.005 A 
ATOM     12  C   UNL     1      30.013  20.156  16.513  0.00  0.00    -0.031 A 
ATOM     13  C   UNL     1      29.603  20.792  17.700  0.00  0.00    +0.023 A 
BRANCH   8  15
ATOM     14  N   UNL     1      27.597  21.890  20.363  0.00  0.00    -0.191 NA
ATOM     15  C   UNL     1      27.903  21.412  19.348  0.00  0.00    +0.099 C 
ENDBRANCH   8  15
ENDBRANCH   5  12
ENDBRANCH   1   5
BRANCH   3  16
ATOM     16  C   UNL     1      32.751  23.518  15.216  0.00  0.00    +0.159 C 
BRANCH  16  17
ATOM     17  C   UNL     1      32.404  24.320  13.982  0.00  0.00    +0.058 A 
ATOM     18  C   UNL     1      31.375  25.265  14.023  0.00  0.00    +0.028 A 
ATOM     19  C   UNL     1      31.056  25.973  12.866  0.00  0.00    +0.042 A 
ATOM     20  C   UNL     1      31.775  25.719  11.711  0.00  0.00    +0.141 A 
ATOM     21  F   UNL     1      31.491  26.376  10.578  0.00  0.00    -0.204 F 
ATOM     22  C   UNL     1      32.788  24.778  11.746  0.00  0.00    +0.149 A 
ATOM     23  N   UNL     1      33.125  24.075  12.854  0.00  0.00    -0.255 NA
ENDBRANCH  16  17
ENDBRANCH   3  16
TORSDOF 5
ENDMDL
MODEL 6
REMARK VINA RESULT:      -6.4      3.197      7.924
REMARK  Name = ZINC000435351830
REMARK  5 active torsions:
REMARK  status: ('A' for Active; 'I' for Inactive)
REMARK    1  A    between atoms: C_2  and  C_3
REMARK    2  A    between atoms: C_7  and  C_8
REMARK    3  A    between atoms: C_8  and  C_9
REMARK    4  A    between atoms: N_11  and  C_12
REMARK    5  A    between atoms: C_12  and  C_13
REMARK                            x       y       z     vdW  Elec       q    Type
REMARK                         _______ _______ _______ _____ _____    ______ ____
ROOT
ATOM      1  C   UNL     1      31.815  22.792  14.352  0.00  0.00    +0.224 C 
ATOM      2  O   UNL     1      32.508  21.784  14.434  0.00  0.00    -0.275 OA
ATOM      3  N   UNL     1      30.446  22.789  14.287  0.00  0.00    -0.309 N 
ATOM      4  H   UNL     1      29.942  23.664  14.256  0.00  0.00    +0.149 HD
ENDROOT
BRANCH   1   5
ATOM      5  C   UNL     1      32.450  24.155  14.253  0.00  0.00    +0.072 C 
ATOM      6  C   UNL     1      32.700  24.935  15.539  0.00  0.00    +0.022 C 
ATOM      7  C   UNL     1      33.860  24.308  14.838  0.00  0.00    +0.022 C 
BRANCH   5  12
ATOM      8  C   UNL     1      32.916  25.214  10.595  0.00  0.00    +0.052 A 
ATOM      9  C   UNL     1      32.034  26.289  10.481  0.00  0.00    +0.019 A 
ATOM     10  C   UNL     1      31.236  26.649  11.567  0.00  0.00    +0.002 A 
ATOM     11  C   UNL     1      31.337  25.953  12.775  0.00  0.00    +0.005 A 
ATOM     12  C   UNL     1      32.240  24.886  12.928  0.00  0.00    -0.031 A 
ATOM     13  C   UNL     1      33.000  24.515  11.803  0.00  0.00    +0.023 A 
BRANCH   8  15
ATOM     14  N   UNL     1      34.439  24.557   8.602  0.00  0.00    -0.191 NA
ATOM     15  C   UNL     1      33.757  24.844   9.499  0.00  0.00    +0.099 C 
ENDBRANCH   8  15
ENDBRANCH   5  12
ENDBRANCH   1   5
BRANCH   3  16
ATOM     16  C   UNL     1      29.693  21.556  14.216  0.00  0.00    +0.159 C 
BRANCH  16  17
ATOM     17  C   UNL     1      28.976  21.219  15.505  0.00  0.00    +0.058 A 
ATOM     18  C   UNL     1      28.279  20.015  15.628  0.00  0.00    +0.028 A 
ATOM     19  C   UNL     1      27.604  19.739  16.817  0.00  0.00    +0.042 A 
ATOM     20  C   UNL     1      27.653  20.668  17.841  0.00  0.00    +0.141 A 
ATOM     21  F   UNL     1      27.012  20.440  18.994  0.00  0.00    -0.204 F 
ATOM     22  C   UNL     1      28.373  21.834  17.653  0.00  0.00    +0.149 A 
ATOM     23  N   UNL     1      29.041  22.131  16.512  0.00  0.00    -0.255 NA
ENDBRANCH  16  17
ENDBRANCH   3  16
TORSDOF 5
ENDMDL
MODEL 7
REMARK VINA RESULT:      -6.3      2.157      2.760
REMARK  Name = ZINC000435351830
REMARK  5 active torsions:
REMARK  status: ('A' for Active; 'I' for Inactive)
REMARK    1  A    between atoms: C_2  and  C_3
REMARK    2  A    between atoms: C_7  and  C_8
REMARK    3  A    between atoms: C_8  and  C_9
REMARK    4  A    between atoms: N_11  and  C_12
REMARK    5  A    between atoms: C_12  and  C_13
REMARK                            x       y       z     vdW  Elec       q    Type
REMARK                         _______ _______ _______ _____ _____    ______ ____
ROOT
ATOM      1  C   UNL     1      30.861  23.843  15.720  0.00  0.00    +0.224 C 
ATOM      2  O   UNL     1      30.097  24.646  16.244  0.00  0.00    -0.275 OA
ATOM      3  N   UNL     1      31.493  24.042  14.521  0.00  0.00    -0.309 N 
ATOM      4  H   UNL     1      32.137  23.347  14.170  0.00  0.00    +0.149 HD
ENDROOT
BRANCH   1   5
ATOM      5  C   UNL     1      31.120  22.501  16.357  0.00  0.00    +0.072 C 
ATOM      6  C   UNL     1      32.561  22.016  16.468  0.00  0.00    +0.022 C 
ATOM      7  C   UNL     1      31.866  22.501  17.697  0.00  0.00    +0.022 C 
BRANCH   5  12
ATOM      8  C   UNL     1      29.178  19.268  15.652  0.00  0.00    +0.052 A 
ATOM      9  C   UNL     1      27.867  19.635  15.956  0.00  0.00    +0.019 A 
ATOM     10  C   UNL     1      27.602  20.914  16.448  0.00  0.00    +0.002 A 
ATOM     11  C   UNL     1      28.641  21.834  16.611  0.00  0.00    +0.005 A 
ATOM     12  C   UNL     1      29.967  21.502  16.282  0.00  0.00    -0.031 A 
ATOM     13  C   UNL     1      30.213  20.191  15.830  0.00  0.00    +0.023 A 
BRANCH   8  15
ATOM     14  N   UNL     1      29.705  16.909  14.714  0.00  0.00    -0.191 NA
ATOM     15  C   UNL     1      29.466  17.969  15.127  0.00  0.00    +0.099 C 
ENDBRANCH   8  15
ENDBRANCH   5  12
ENDBRANCH   1   5
BRANCH   3  16
ATOM     16  C   UNL     1      31.232  25.212  13.711  0.00  0.00    +0.159 C 
BRANCH  16  17
ATOM     17  C   UNL     1      31.983  25.209  12.399  0.00  0.00    +0.058 A 
ATOM     18  C   UNL     1      31.789  26.240  11.475  0.00  0.00    +0.028 A 
ATOM     19  C   UNL     1      32.473  26.202  10.261  0.00  0.00    +0.042 A 
ATOM     20  C   UNL     1      33.330  25.144  10.013  0.00  0.00    +0.141 A 
ATOM     21  F   UNL     1      33.999  25.071   8.854  0.00  0.00    -0.204 F 
ATOM     22  C   UNL     1      33.483  24.165  10.978  0.00  0.00    +0.149 A 
ATOM     23  N   UNL     1      32.835  24.174  12.168  0.00  0.00    -0.255 NA
ENDBRANCH  16  17
ENDBRANCH   3  16
TORSDOF 5
ENDMDL
MODEL 8
REMARK VINA RESULT:      -6.3      4.810      6.641
REMARK  Name = ZINC000435351830
REMARK  5 active torsions:
REMARK  status: ('A' for Active; 'I' for Inactive)
REMARK    1  A    between atoms: C_2  and  C_3
REMARK    2  A    between atoms: C_7  and  C_8
REMARK    3  A    between atoms: C_8  and  C_9
REMARK    4  A    between atoms: N_11  and  C_12
REMARK    5  A    between atoms: C_12  and  C_13
REMARK                            x       y       z     vdW  Elec       q    Type
REMARK                         _______ _______ _______ _____ _____    ______ ____
ROOT
ATOM      1  C   UNL     1      29.112  21.805  16.597  0.00  0.00    +0.224 C 
ATOM      2  O   UNL     1      29.492  22.304  15.544  0.00  0.00    -0.275 OA
ATOM      3  N   UNL     1      29.033  22.475  17.790  0.00  0.00    -0.309 N 
ATOM      4  H   UNL     1      28.677  22.003  18.609  0.00  0.00    +0.149 HD
ENDROOT
BRANCH   1   5
ATOM      5  C   UNL     1      28.748  20.344  16.667  0.00  0.00    +0.072 C 
ATOM      6  C   UNL     1      27.688  19.906  17.671  0.00  0.00    +0.022 C 
ATOM      7  C   UNL     1      27.332  19.959  16.222  0.00  0.00    +0.022 C 
BRANCH   5  12
ATOM      8  C   UNL     1      30.477  17.480  14.788  0.00  0.00    +0.052 A 
ATOM      9  C   UNL     1      31.726  17.427  15.408  0.00  0.00    +0.019 A 
ATOM     10  C   UNL     1      32.046  18.353  16.401  0.00  0.00    +0.002 A 
ATOM     11  C   UNL     1      31.111  19.315  16.794  0.00  0.00    +0.005 A 
ATOM     12  C   UNL     1      29.834  19.371  16.209  0.00  0.00    -0.031 A 
ATOM     13  C   UNL     1      29.553  18.454  15.179  0.00  0.00    +0.023 A 
BRANCH   8  15
ATOM     14  N   UNL     1      29.826  15.743  12.976  0.00  0.00    -0.191 NA
ATOM     15  C   UNL     1      30.123  16.525  13.783  0.00  0.00    +0.099 C 
ENDBRANCH   8  15
ENDBRANCH   5  12
ENDBRANCH   1   5
BRANCH   3  16
ATOM     16  C   UNL     1      29.491  23.841  17.924  0.00  0.00    +0.159 C 
BRANCH  16  17
ATOM     17  C   UNL     1      30.379  24.057  19.130  0.00  0.00    +0.058 A 
ATOM     18  C   UNL     1      30.119  23.380  20.325  0.00  0.00    +0.028 A 
ATOM     19  C   UNL     1      30.936  23.616  21.430  0.00  0.00    +0.042 A 
ATOM     20  C   UNL     1      31.984  24.511  21.304  0.00  0.00    +0.141 A 
ATOM     21  F   UNL     1      32.785  24.766  22.347  0.00  0.00    -0.204 F 
ATOM     22  C   UNL     1      32.189  25.135  20.087  0.00  0.00    +0.149 A 
ATOM     23  N   UNL     1      31.416  24.926  18.994  0.00  0.00    -0.255 NA
ENDBRANCH  16  17
ENDBRANCH   3  16
TORSDOF 5
ENDMDL
MODEL 9
REMARK VINA RESULT:      -6.3      4.748      6.358
REMARK  Name = ZINC000435351830
REMARK  5 active torsions:
REMARK  status: ('A' for Active; 'I' for Inactive)
REMARK    1  A    between atoms: C_2  and  C_3
REMARK    2  A    between atoms: C_7  and  C_8
REMARK    3  A    between atoms: C_8  and  C_9
REMARK    4  A    between atoms: N_11  and  C_12
REMARK    5  A    between atoms: C_12  and  C_13
REMARK                            x       y       z     vdW  Elec       q    Type
REMARK                         _______ _______ _______ _____ _____    ______ ____
ROOT
ATOM      1  C   UNL     1      29.231  21.763  16.513  0.00  0.00    +0.224 C 
ATOM      2  O   UNL     1      29.624  22.192  15.433  0.00  0.00    -0.275 OA
ATOM      3  N   UNL     1      29.216  22.487  17.676  0.00  0.00    -0.309 N 
ATOM      4  H   UNL     1      28.845  22.075  18.520  0.00  0.00    +0.149 HD
ENDROOT
BRANCH   1   5
ATOM      5  C   UNL     1      28.776  20.333  16.652  0.00  0.00    +0.072 C 
ATOM      6  C   UNL     1      27.683  20.013  17.665  0.00  0.00    +0.022 C 
ATOM      7  C   UNL     1      27.342  20.014  16.211  0.00  0.00    +0.022 C 
BRANCH   5  12
ATOM      8  C   UNL     1      32.041  18.321  16.556  0.00  0.00    +0.052 A 
ATOM      9  C   UNL     1      31.826  17.453  15.485  0.00  0.00    +0.019 A 
ATOM     10  C   UNL     1      30.602  17.467  14.817  0.00  0.00    +0.002 A 
ATOM     11  C   UNL     1      29.601  18.365  15.201  0.00  0.00    +0.005 A 
ATOM     12  C   UNL     1      29.803  19.273  16.256  0.00  0.00    -0.031 A 
ATOM     13  C   UNL     1      31.031  19.207  16.941  0.00  0.00    +0.023 A 
BRANCH   8  15
ATOM     14  N   UNL     1      34.320  18.332  17.795  0.00  0.00    -0.191 NA
ATOM     15  C   UNL     1      33.299  18.335  17.239  0.00  0.00    +0.099 C 
ENDBRANCH   8  15
ENDBRANCH   5  12
ENDBRANCH   1   5
BRANCH   3  16
ATOM     16  C   UNL     1      29.762  23.825  17.744  0.00  0.00    +0.159 C 
BRANCH  16  17
ATOM     17  C   UNL     1      30.528  24.094  19.020  0.00  0.00    +0.058 A 
ATOM     18  C   UNL     1      30.202  23.409  20.193  0.00  0.00    +0.028 A 
ATOM     19  C   UNL     1      30.905  23.693  21.363  0.00  0.00    +0.042 A 
ATOM     20  C   UNL     1      31.911  24.642  21.322  0.00  0.00    +0.141 A 
ATOM     21  F   UNL     1      32.603  24.944  22.428  0.00  0.00    -0.204 F 
ATOM     22  C   UNL     1      32.188  25.271  20.122  0.00  0.00    +0.149 A 
ATOM     23  N   UNL     1      31.526  25.017  18.967  0.00  0.00    -0.255 NA
ENDBRANCH  16  17
ENDBRANCH   3  16
TORSDOF 5
ENDMDL
