MODEL 1
REMARK VINA RESULT:      -7.6      0.000      0.000
REMARK  Name = ZINC000329563636
REMARK  3 active torsions:
REMARK  status: ('A' for Active; 'I' for Inactive)
REMARK    1  A    between atoms: C_1  and  C_2
REMARK    2  A    between atoms: C_2  and  N_3
REMARK    3  A    between atoms: N_9  and  C_10
REMARK                            x       y       z     vdW  Elec       q    Type
REMARK                         _______ _______ _______ _____ _____    ______ ____
ROOT
ATOM      1  C   UNL     1      28.021  22.049  18.298  0.00  0.00    +0.112 C 
ATOM      2  C   UNL     1      27.826  20.696  17.606  0.00  0.00    +0.075 C 
ATOM      3  C   UNL     1      28.838  20.386  16.494  0.00  0.00    +0.113 C 
ATOM      4  C   UNL     1      30.179  19.781  16.985  0.00  0.00    +0.048 C 
ATOM      5  C   UNL     1      30.204  18.339  16.493  0.00  0.00    +0.004 C 
ATOM      6  C   UNL     1      29.394  18.376  15.212  0.00  0.00    +0.004 C 
ATOM      7  C   UNL     1      28.236  19.293  15.573  0.00  0.00    +0.048 C 
ATOM      8  O   UNL     1      29.097  21.537  15.666  0.00  0.00    -0.485 OA
ATOM      9  C   UNL     1      29.543  22.619  16.380  0.00  0.00    +0.126 A 
ATOM     10  C   UNL     1      30.486  23.444  15.769  0.00  0.00    +0.046 A 
ATOM     11  C   UNL     1      31.009  24.538  16.461  0.00  0.00    +0.004 A 
ATOM     12  C   UNL     1      30.571  24.818  17.753  0.00  0.00    +0.001 A 
ATOM     13  C   UNL     1      29.603  24.008  18.348  0.00  0.00    +0.009 A 
ATOM     14  C   UNL     1      29.082  22.899  17.664  0.00  0.00    +0.015 A 
ENDROOT
BRANCH   1  21
ATOM     15  N   UNL     1      23.392  26.277  19.081  0.00  0.00    -0.299 N 
ATOM     16  C   UNL     1      24.235  26.032  20.251  0.00  0.00    +0.127 C 
ATOM     17  C   UNL     1      24.417  24.540  20.509  0.00  0.00    +0.129 C 
ATOM     18  N   UNL     1      25.014  23.931  19.330  0.00  0.00    -0.275 N 
ATOM     19  C   UNL     1      26.241  23.315  19.446  0.00  0.00    +0.303 C 
ATOM     20  O   UNL     1      26.855  23.264  20.511  0.00  0.00    -0.253 OA
ATOM     21  N   UNL     1      26.757  22.789  18.300  0.00  0.00    -0.292 N 
ATOM     22  C   UNL     1      24.244  24.120  18.097  0.00  0.00    +0.205 C 
ATOM     23  C   UNL     1      23.424  25.422  17.981  0.00  0.00    +0.233 C 
ATOM     24  O   UNL     1      22.795  25.660  16.946  0.00  0.00    -0.274 OA
ATOM     25  H   UNL     1      26.117  22.531  17.566  0.00  0.00    +0.151 HD
BRANCH  15  27
ATOM     26  C   UNL     1      21.372  27.656  19.484  0.00  0.00    +0.024 C 
ATOM     27  C   UNL     1      22.789  27.597  18.933  0.00  0.00    +0.104 C 
ENDBRANCH  15  27
ENDBRANCH   1  21
TORSDOF 2
ENDMDL
MODEL 2
REMARK VINA RESULT:      -7.3      4.075      7.882
REMARK  Name = ZINC000329563636
REMARK  3 active torsions:
REMARK  status: ('A' for Active; 'I' for Inactive)
REMARK    1  A    between atoms: C_1  and  C_2
REMARK    2  A    between atoms: C_2  and  N_3
REMARK    3  A    between atoms: N_9  and  C_10
REMARK                            x       y       z     vdW  Elec       q    Type
REMARK                         _______ _______ _______ _____ _____    ______ ____
ROOT
ATOM      1  C   UNL     1      30.816  22.766  16.726  0.00  0.00    +0.112 C 
ATOM      2  C   UNL     1      29.840  23.346  17.755  0.00  0.00    +0.075 C 
ATOM      3  C   UNL     1      28.653  22.438  18.104  0.00  0.00    +0.113 C 
ATOM      4  C   UNL     1      28.947  21.373  19.193  0.00  0.00    +0.048 C 
ATOM      5  C   UNL     1      28.137  21.781  20.419  0.00  0.00    +0.004 C 
ATOM      6  C   UNL     1      26.928  22.488  19.840  0.00  0.00    +0.004 C 
ATOM      7  C   UNL     1      27.528  23.314  18.715  0.00  0.00    +0.048 C 
ATOM      8  O   UNL     1      28.102  21.800  16.935  0.00  0.00    -0.485 OA
ATOM      9  C   UNL     1      29.028  21.067  16.240  0.00  0.00    +0.126 A 
ATOM     10  C   UNL     1      28.589  19.891  15.634  0.00  0.00    +0.046 A 
ATOM     11  C   UNL     1      29.495  19.080  14.947  0.00  0.00    +0.004 A 
ATOM     12  C   UNL     1      30.831  19.460  14.846  0.00  0.00    +0.001 A 
ATOM     13  C   UNL     1      31.259  20.655  15.425  0.00  0.00    +0.009 A 
ATOM     14  C   UNL     1      30.357  21.469  16.130  0.00  0.00    +0.015 A 
ENDROOT
BRANCH   1  21
ATOM     15  N   UNL     1      32.706  25.872  11.559  0.00  0.00    -0.299 N 
ATOM     16  C   UNL     1      33.759  25.196  12.316  0.00  0.00    +0.127 C 
ATOM     17  C   UNL     1      33.661  25.498  13.807  0.00  0.00    +0.129 C 
ATOM     18  N   UNL     1      32.354  25.074  14.286  0.00  0.00    -0.275 N 
ATOM     19  C   UNL     1      32.285  24.107  15.264  0.00  0.00    +0.303 C 
ATOM     20  O   UNL     1      33.288  23.583  15.747  0.00  0.00    -0.253 OA
ATOM     21  N   UNL     1      31.031  23.735  15.649  0.00  0.00    -0.292 N 
ATOM     22  C   UNL     1      31.224  25.697  13.590  0.00  0.00    +0.205 C 
ATOM     23  C   UNL     1      31.438  26.065  12.106  0.00  0.00    +0.233 C 
ATOM     24  O   UNL     1      30.508  26.546  11.453  0.00  0.00    -0.274 OA
ATOM     25  H   UNL     1      30.280  24.394  15.519  0.00  0.00    +0.151 HD
BRANCH  15  27
ATOM     26  C   UNL     1      33.504  24.796   9.473  0.00  0.00    +0.024 C 
ATOM     27  C   UNL     1      32.885  26.027  10.120  0.00  0.00    +0.104 C 
ENDBRANCH  15  27
ENDBRANCH   1  21
TORSDOF 2
ENDMDL
MODEL 3
REMARK VINA RESULT:      -6.8      5.638      9.018
REMARK  Name = ZINC000329563636
REMARK  3 active torsions:
REMARK  status: ('A' for Active; 'I' for Inactive)
REMARK    1  A    between atoms: C_1  and  C_2
REMARK    2  A    between atoms: C_2  and  N_3
REMARK    3  A    between atoms: N_9  and  C_10
REMARK                            x       y       z     vdW  Elec       q    Type
REMARK                         _______ _______ _______ _____ _____    ______ ____
ROOT
ATOM      1  C   UNL     1      30.700  23.231  14.329  0.00  0.00    +0.112 C 
ATOM      2  C   UNL     1      29.975  21.907  14.064  0.00  0.00    +0.075 C 
ATOM      3  C   UNL     1      29.991  20.914  15.235  0.00  0.00    +0.113 C 
ATOM      4  C   UNL     1      28.885  21.143  16.298  0.00  0.00    +0.048 C 
ATOM      5  C   UNL     1      27.928  19.962  16.181  0.00  0.00    +0.004 C 
ATOM      6  C   UNL     1      28.810  18.823  15.708  0.00  0.00    +0.004 C 
ATOM      7  C   UNL     1      29.705  19.494  14.679  0.00  0.00    +0.048 C 
ATOM      8  O   UNL     1      31.281  20.862  15.877  0.00  0.00    -0.485 OA
ATOM      9  C   UNL     1      31.702  22.085  16.330  0.00  0.00    +0.126 A 
ATOM     10  C   UNL     1      32.429  22.112  17.519  0.00  0.00    +0.046 A 
ATOM     11  C   UNL     1      32.850  23.331  18.053  0.00  0.00    +0.004 A 
ATOM     12  C   UNL     1      32.564  24.519  17.384  0.00  0.00    +0.001 A 
ATOM     13  C   UNL     1      31.864  24.485  16.177  0.00  0.00    +0.009 A 
ATOM     14  C   UNL     1      31.426  23.263  15.641  0.00  0.00    +0.015 A 
ENDROOT
BRANCH   1  21
ATOM     15  N   UNL     1      34.959  25.725  10.387  0.00  0.00    -0.299 N 
ATOM     16  C   UNL     1      33.878  26.618  10.804  0.00  0.00    +0.127 C 
ATOM     17  C   UNL     1      32.514  25.950  10.670  0.00  0.00    +0.129 C 
ATOM     18  N   UNL     1      32.503  24.742  11.483  0.00  0.00    -0.275 N 
ATOM     19  C   UNL     1      31.593  24.640  12.511  0.00  0.00    +0.303 C 
ATOM     20  O   UNL     1      30.789  25.533  12.773  0.00  0.00    -0.253 OA
ATOM     21  N   UNL     1      31.653  23.496  13.251  0.00  0.00    -0.292 N 
ATOM     22  C   UNL     1      33.553  23.776  11.144  0.00  0.00    +0.205 C 
ATOM     23  C   UNL     1      34.880  24.351  10.604  0.00  0.00    +0.233 C 
ATOM     24  O   UNL     1      35.818  23.591  10.349  0.00  0.00    -0.274 OA
ATOM     25  H   UNL     1      32.042  22.672  12.820  0.00  0.00    +0.151 HD
BRANCH  15  27
ATOM     26  C   UNL     1      36.128  27.722   9.497  0.00  0.00    +0.024 C 
ATOM     27  C   UNL     1      36.253  26.316  10.066  0.00  0.00    +0.104 C 
ENDBRANCH  15  27
ENDBRANCH   1  21
TORSDOF 2
ENDMDL
MODEL 4
REMARK VINA RESULT:      -6.8      2.317      8.204
REMARK  Name = ZINC000329563636
REMARK  3 active torsions:
REMARK  status: ('A' for Active; 'I' for Inactive)
REMARK    1  A    between atoms: C_1  and  C_2
REMARK    2  A    between atoms: C_2  and  N_3
REMARK    3  A    between atoms: N_9  and  C_10
REMARK                            x       y       z     vdW  Elec       q    Type
REMARK                         _______ _______ _______ _____ _____    ______ ____
ROOT
ATOM      1  C   UNL     1      25.082  24.664  20.493  0.00  0.00    +0.112 C 
ATOM      2  C   UNL     1      25.073  25.473  21.794  0.00  0.00    +0.075 C 
ATOM      3  C   UNL     1      24.118  26.676  21.801  0.00  0.00    +0.113 C 
ATOM      4  C   UNL     1      22.649  26.338  22.168  0.00  0.00    +0.048 C 
ATOM      5  C   UNL     1      22.391  26.973  23.529  0.00  0.00    +0.004 C 
ATOM      6  C   UNL     1      23.300  28.186  23.545  0.00  0.00    +0.004 C 
ATOM      7  C   UNL     1      24.576  27.660  22.910  0.00  0.00    +0.048 C 
ATOM      8  O   UNL     1      24.156  27.399  20.555  0.00  0.00    -0.485 OA
ATOM      9  C   UNL     1      23.865  26.612  19.472  0.00  0.00    +0.126 A 
ATOM     10  C   UNL     1      23.153  27.199  18.427  0.00  0.00    +0.046 A 
ATOM     11  C   UNL     1      22.792  26.437  17.313  0.00  0.00    +0.004 A 
ATOM     12  C   UNL     1      23.164  25.097  17.237  0.00  0.00    +0.001 A 
ATOM     13  C   UNL     1      23.905  24.523  18.271  0.00  0.00    +0.009 A 
ATOM     14  C   UNL     1      24.261  25.279  19.399  0.00  0.00    +0.015 A 
ENDROOT
BRANCH   1  21
ATOM     15  N   UNL     1      30.344  23.214  17.311  0.00  0.00    -0.299 N 
ATOM     16  C   UNL     1      29.356  22.142  17.430  0.00  0.00    +0.127 C 
ATOM     17  C   UNL     1      28.861  21.991  18.864  0.00  0.00    +0.129 C 
ATOM     18  N   UNL     1      28.278  23.253  19.294  0.00  0.00    -0.275 N 
ATOM     19  C   UNL     1      26.950  23.285  19.655  0.00  0.00    +0.303 C 
ATOM     20  O   UNL     1      26.234  22.286  19.626  0.00  0.00    -0.253 OA
ATOM     21  N   UNL     1      26.459  24.503  20.022  0.00  0.00    -0.292 N 
ATOM     22  C   UNL     1      29.191  24.398  19.214  0.00  0.00    +0.205 C 
ATOM     23  C   UNL     1      30.257  24.362  18.098  0.00  0.00    +0.233 C 
ATOM     24  O   UNL     1      31.021  25.319  17.949  0.00  0.00    -0.274 OA
ATOM     25  H   UNL     1      27.107  25.190  20.373  0.00  0.00    +0.151 HD
BRANCH  15  27
ATOM     26  C   UNL     1      30.641  22.400  14.989  0.00  0.00    +0.024 C 
ATOM     27  C   UNL     1      31.204  23.229  16.134  0.00  0.00    +0.104 C 
ENDBRANCH  15  27
ENDBRANCH   1  21
TORSDOF 2
ENDMDL
MODEL 5
REMARK VINA RESULT:      -6.7      4.105      8.402
REMARK  Name = ZINC000329563636
REMARK  3 active torsions:
REMARK  status: ('A' for Active; 'I' for Inactive)
REMARK    1  A    between atoms: C_1  and  C_2
REMARK    2  A    between atoms: C_2  and  N_3
REMARK    3  A    between atoms: N_9  and  C_10
REMARK                            x       y       z     vdW  Elec       q    Type
REMARK                         _______ _______ _______ _____ _____    ______ ____
ROOT
ATOM      1  C   UNL     1      31.021  21.942  16.919  0.00  0.00    +0.112 C 
ATOM      2  C   UNL     1      30.128  22.802  17.820  0.00  0.00    +0.075 C 
ATOM      3  C   UNL     1      28.758  22.191  18.145  0.00  0.00    +0.113 C 
ATOM      4  C   UNL     1      28.755  21.194  19.334  0.00  0.00    +0.048 C 
ATOM      5  C   UNL     1      27.977  21.870  20.457  0.00  0.00    +0.004 C 
ATOM      6  C   UNL     1      26.980  22.752  19.732  0.00  0.00    +0.004 C 
ATOM      7  C   UNL     1      27.807  23.331  18.595  0.00  0.00    +0.048 C 
ATOM      8  O   UNL     1      28.157  21.573  16.990  0.00  0.00    -0.485 OA
ATOM      9  C   UNL     1      28.948  20.606  16.429  0.00  0.00    +0.126 A 
ATOM     10  C   UNL     1      28.310  19.492  15.885  0.00  0.00    +0.046 A 
ATOM     11  C   UNL     1      29.065  18.454  15.335  0.00  0.00    +0.004 A 
ATOM     12  C   UNL     1      30.455  18.542  15.310  0.00  0.00    +0.001 A 
ATOM     13  C   UNL     1      31.088  19.674  15.826  0.00  0.00    +0.009 A 
ATOM     14  C   UNL     1      30.336  20.716  16.392  0.00  0.00    +0.015 A 
ENDROOT
BRANCH   1  21
ATOM     15  N   UNL     1      33.705  24.065  11.609  0.00  0.00    -0.299 N 
ATOM     16  C   UNL     1      34.526  23.169  12.423  0.00  0.00    +0.127 C 
ATOM     17  C   UNL     1      34.518  23.579  13.891  0.00  0.00    +0.129 C 
ATOM     18  N   UNL     1      33.144  23.569  14.372  0.00  0.00    -0.275 N 
ATOM     19  C   UNL     1      32.806  22.723  15.405  0.00  0.00    +0.303 C 
ATOM     20  O   UNL     1      33.622  21.971  15.935  0.00  0.00    -0.253 OA
ATOM     21  N   UNL     1      31.499  22.742  15.790  0.00  0.00    -0.292 N 
ATOM     22  C   UNL     1      32.235  24.439  13.620  0.00  0.00    +0.205 C 
ATOM     23  C   UNL     1      32.543  24.639  12.121  0.00  0.00    +0.233 C 
ATOM     24  O   UNL     1      31.785  25.319  11.425  0.00  0.00    -0.274 OA
ATOM     25  H   UNL     1      30.963  23.576  15.607  0.00  0.00    +0.151 HD
BRANCH  15  27
ATOM     26  C   UNL     1      33.947  22.672   9.572  0.00  0.00    +0.024 C 
ATOM     27  C   UNL     1      33.920  24.073  10.166  0.00  0.00    +0.104 C 
ENDBRANCH  15  27
ENDBRANCH   1  21
TORSDOF 2
ENDMDL
MODEL 6
REMARK VINA RESULT:      -6.6      4.334      7.087
REMARK  Name = ZINC000329563636
REMARK  3 active torsions:
REMARK  status: ('A' for Active; 'I' for Inactive)
REMARK    1  A    between atoms: C_1  and  C_2
REMARK    2  A    between atoms: C_2  and  N_3
REMARK    3  A    between atoms: N_9  and  C_10
REMARK                            x       y       z     vdW  Elec       q    Type
REMARK                         _______ _______ _______ _____ _____    ______ ____
ROOT
ATOM      1  C   UNL     1      32.336  17.645  15.496  0.00  0.00    +0.112 C 
ATOM      2  C   UNL     1      32.522  17.390  13.996  0.00  0.00    +0.075 C 
ATOM      3  C   UNL     1      33.982  17.340  13.525  0.00  0.00    +0.113 C 
ATOM      4  C   UNL     1      34.676  15.964  13.701  0.00  0.00    +0.048 C 
ATOM      5  C   UNL     1      34.903  15.417  12.296  0.00  0.00    +0.004 C 
ATOM      6  C   UNL     1      35.075  16.659  11.443  0.00  0.00    +0.004 C 
ATOM      7  C   UNL     1      34.014  17.596  11.995  0.00  0.00    +0.048 C 
ATOM      8  O   UNL     1      34.781  18.371  14.140  0.00  0.00    -0.485 OA
ATOM      9  C   UNL     1      34.758  18.319  15.509  0.00  0.00    +0.126 A 
ATOM     10  C   UNL     1      35.930  18.659  16.183  0.00  0.00    +0.046 A 
ATOM     11  C   UNL     1      35.981  18.585  17.576  0.00  0.00    +0.004 A 
ATOM     12  C   UNL     1      34.852  18.197  18.294  0.00  0.00    +0.001 A 
ATOM     13  C   UNL     1      33.671  17.889  17.617  0.00  0.00    +0.009 A 
ATOM     14  C   UNL     1      33.616  17.948  16.215  0.00  0.00    +0.015 A 
ENDROOT
BRANCH   1  21
ATOM     15  N   UNL     1      27.888  21.617  17.580  0.00  0.00    -0.299 N 
ATOM     16  C   UNL     1      27.536  20.198  17.606  0.00  0.00    +0.127 C 
ATOM     17  C   UNL     1      27.868  19.513  16.284  0.00  0.00    +0.129 C 
ATOM     18  N   UNL     1      29.291  19.668  16.021  0.00  0.00    -0.275 N 
ATOM     19  C   UNL     1      30.075  18.541  15.915  0.00  0.00    +0.303 C 
ATOM     20  O   UNL     1      29.619  17.405  16.038  0.00  0.00    -0.253 OA
ATOM     21  N   UNL     1      31.403  18.756  15.695  0.00  0.00    -0.292 N 
ATOM     22  C   UNL     1      29.748  21.060  15.974  0.00  0.00    +0.205 C 
ATOM     23  C   UNL     1      28.998  22.070  16.869  0.00  0.00    +0.233 C 
ATOM     24  O   UNL     1      29.369  23.246  16.910  0.00  0.00    -0.274 OA
ATOM     25  H   UNL     1      31.678  19.620  15.257  0.00  0.00    +0.151 HD
BRANCH  15  27
ATOM     26  C   UNL     1      27.448  21.969  19.994  0.00  0.00    +0.024 C 
ATOM     27  C   UNL     1      27.282  22.494  18.575  0.00  0.00    +0.104 C 
ENDBRANCH  15  27
ENDBRANCH   1  21
TORSDOF 2
ENDMDL
MODEL 7
REMARK VINA RESULT:      -6.5      4.866      9.811
REMARK  Name = ZINC000329563636
REMARK  3 active torsions:
REMARK  status: ('A' for Active; 'I' for Inactive)
REMARK    1  A    between atoms: C_1  and  C_2
REMARK    2  A    between atoms: C_2  and  N_3
REMARK    3  A    between atoms: N_9  and  C_10
REMARK                            x       y       z     vdW  Elec       q    Type
REMARK                         _______ _______ _______ _____ _____    ______ ____
ROOT
ATOM      1  C   UNL     1      31.516  20.796  16.912  0.00  0.00    +0.112 C 
ATOM      2  C   UNL     1      31.667  22.206  17.495  0.00  0.00    +0.075 C 
ATOM      3  C   UNL     1      30.346  22.917  17.818  0.00  0.00    +0.113 C 
ATOM      4  C   UNL     1      29.738  22.564  19.201  0.00  0.00    +0.048 C 
ATOM      5  C   UNL     1      29.853  23.823  20.053  0.00  0.00    +0.004 C 
ATOM      6  C   UNL     1      29.768  24.954  19.047  0.00  0.00    +0.004 C 
ATOM      7  C   UNL     1      30.616  24.443  17.893  0.00  0.00    +0.048 C 
ATOM      8  O   UNL     1      29.360  22.715  16.786  0.00  0.00    -0.485 OA
ATOM      9  C   UNL     1      29.100  21.391  16.547  0.00  0.00    +0.126 A 
ATOM     10  C   UNL     1      27.791  21.044  16.219  0.00  0.00    +0.046 A 
ATOM     11  C   UNL     1      27.455  19.706  16.005  0.00  0.00    +0.004 A 
ATOM     12  C   UNL     1      28.435  18.720  16.096  0.00  0.00    +0.001 A 
ATOM     13  C   UNL     1      29.752  19.076  16.392  0.00  0.00    +0.009 A 
ATOM     14  C   UNL     1      30.094  20.418  16.622  0.00  0.00    +0.015 A 
ENDROOT
BRANCH   1  21
ATOM     15  N   UNL     1      34.751  18.816  11.860  0.00  0.00    -0.299 N 
ATOM     16  C   UNL     1      35.035  18.116  13.112  0.00  0.00    +0.127 C 
ATOM     17  C   UNL     1      35.275  19.092  14.259  0.00  0.00    +0.129 C 
ATOM     18  N   UNL     1      34.096  19.930  14.415  0.00  0.00    -0.275 N 
ATOM     19  C   UNL     1      33.409  19.898  15.608  0.00  0.00    +0.303 C 
ATOM     20  O   UNL     1      33.752  19.183  16.548  0.00  0.00    -0.253 OA
ATOM     21  N   UNL     1      32.298  20.686  15.679  0.00  0.00    -0.292 N 
ATOM     22  C   UNL     1      33.724  20.679  13.211  0.00  0.00    +0.205 C 
ATOM     23  C   UNL     1      34.048  20.020  11.853  0.00  0.00    +0.233 C 
ATOM     24  O   UNL     1      33.714  20.579  10.805  0.00  0.00    -0.274 OA
ATOM     25  H   UNL     1      32.248  21.490  15.074  0.00  0.00    +0.151 HD
BRANCH  15  27
ATOM     26  C   UNL     1      36.320  18.132  10.067  0.00  0.00    +0.024 C 
ATOM     27  C   UNL     1      34.900  18.079  10.610  0.00  0.00    +0.104 C 
ENDBRANCH  15  27
ENDBRANCH   1  21
TORSDOF 2
ENDMDL
MODEL 8
REMARK VINA RESULT:      -6.5      4.407      7.252
REMARK  Name = ZINC000329563636
REMARK  3 active torsions:
REMARK  status: ('A' for Active; 'I' for Inactive)
REMARK    1  A    between atoms: C_1  and  C_2
REMARK    2  A    between atoms: C_2  and  N_3
REMARK    3  A    between atoms: N_9  and  C_10
REMARK                            x       y       z     vdW  Elec       q    Type
REMARK                         _______ _______ _______ _____ _____    ______ ____
ROOT
ATOM      1  C   UNL     1      30.513  23.429  17.925  0.00  0.00    +0.112 C 
ATOM      2  C   UNL     1      31.099  22.472  16.881  0.00  0.00    +0.075 C 
ATOM      3  C   UNL     1      30.204  21.276  16.525  0.00  0.00    +0.113 C 
ATOM      4  C   UNL     1      29.128  21.568  15.446  0.00  0.00    +0.048 C 
ATOM      5  C   UNL     1      29.538  20.777  14.209  0.00  0.00    +0.004 C 
ATOM      6  C   UNL     1      30.265  19.571  14.770  0.00  0.00    +0.004 C 
ATOM      7  C   UNL     1      31.091  20.169  15.897  0.00  0.00    +0.048 C 
ATOM      8  O   UNL     1      29.581  20.704  17.692  0.00  0.00    -0.485 OA
ATOM      9  C   UNL     1      28.841  21.613  18.402  0.00  0.00    +0.126 A 
ATOM     10  C   UNL     1      27.674  21.153  19.011  0.00  0.00    +0.046 A 
ATOM     11  C   UNL     1      26.856  22.040  19.713  0.00  0.00    +0.004 A 
ATOM     12  C   UNL     1      27.220  23.380  19.827  0.00  0.00    +0.001 A 
ATOM     13  C   UNL     1      28.405  23.829  19.244  0.00  0.00    +0.009 A 
ATOM     14  C   UNL     1      29.226  22.946  18.524  0.00  0.00    +0.015 A 
ENDROOT
BRANCH   1  21
ATOM     15  N   UNL     1      33.844  25.591  22.839  0.00  0.00    -0.299 N 
ATOM     16  C   UNL     1      33.406  26.599  21.874  0.00  0.00    +0.127 C 
ATOM     17  C   UNL     1      33.709  26.173  20.441  0.00  0.00    +0.129 C 
ATOM     18  N   UNL     1      33.040  24.908  20.177  0.00  0.00    -0.275 N 
ATOM     19  C   UNL     1      32.095  24.850  19.176  0.00  0.00    +0.303 C 
ATOM     20  O   UNL     1      31.792  25.830  18.497  0.00  0.00    -0.253 OA
ATOM     21  N   UNL     1      31.486  23.644  18.998  0.00  0.00    -0.292 N 
ATOM     22  C   UNL     1      33.410  23.826  21.094  0.00  0.00    +0.205 C 
ATOM     23  C   UNL     1      33.787  24.232  22.535  0.00  0.00    +0.233 C 
ATOM     24  O   UNL     1      34.060  23.361  23.365  0.00  0.00    -0.274 OA
ATOM     25  H   UNL     1      31.978  22.816  19.293  0.00  0.00    +0.151 HD
BRANCH  15  27
ATOM     26  C   UNL     1      34.982  27.152  24.392  0.00  0.00    +0.024 C 
ATOM     27  C   UNL     1      34.005  25.996  24.231  0.00  0.00    +0.104 C 
ENDBRANCH  15  27
ENDBRANCH   1  21
TORSDOF 2
ENDMDL
MODEL 9
REMARK VINA RESULT:      -6.4      5.608     10.369
REMARK  Name = ZINC000329563636
REMARK  3 active torsions:
REMARK  status: ('A' for Active; 'I' for Inactive)
REMARK    1  A    between atoms: C_1  and  C_2
REMARK    2  A    between atoms: C_2  and  N_3
REMARK    3  A    between atoms: N_9  and  C_10
REMARK                            x       y       z     vdW  Elec       q    Type
REMARK                         _______ _______ _______ _____ _____    ______ ____
ROOT
ATOM      1  C   UNL     1      31.842  20.000  16.857  0.00  0.00    +0.112 C 
ATOM      2  C   UNL     1      32.597  21.311  17.105  0.00  0.00    +0.075 C 
ATOM      3  C   UNL     1      31.718  22.570  17.127  0.00  0.00    +0.113 C 
ATOM      4  C   UNL     1      31.041  22.867  18.491  0.00  0.00    +0.048 C 
ATOM      5  C   UNL     1      31.703  24.130  19.031  0.00  0.00    +0.004 C 
ATOM      6  C   UNL     1      32.098  24.897  17.784  0.00  0.00    +0.004 C 
ATOM      7  C   UNL     1      32.622  23.804  16.868  0.00  0.00    +0.048 C 
ATOM      8  O   UNL     1      30.725  22.549  16.083  0.00  0.00    -0.485 OA
ATOM      9  C   UNL     1      29.914  21.446  16.138  0.00  0.00    +0.126 A 
ATOM     10  C   UNL     1      28.578  21.613  15.778  0.00  0.00    +0.046 A 
ATOM     11  C   UNL     1      27.694  20.535  15.853  0.00  0.00    +0.004 A 
ATOM     12  C   UNL     1      28.154  19.286  16.264  0.00  0.00    +0.001 A 
ATOM     13  C   UNL     1      29.499  19.115  16.592  0.00  0.00    +0.009 A 
ATOM     14  C   UNL     1      30.392  20.198  16.532  0.00  0.00    +0.015 A 
ENDROOT
BRANCH   1  21
ATOM     15  N   UNL     1      34.282  15.609  13.027  0.00  0.00    -0.299 N 
ATOM     16  C   UNL     1      34.594  15.459  14.448  0.00  0.00    +0.127 C 
ATOM     17  C   UNL     1      35.070  16.771  15.060  0.00  0.00    +0.129 C 
ATOM     18  N   UNL     1      34.031  17.775  14.883  0.00  0.00    -0.275 N 
ATOM     19  C   UNL     1      33.465  18.352  15.998  0.00  0.00    +0.303 C 
ATOM     20  O   UNL     1      33.803  18.049  17.141  0.00  0.00    -0.253 OA
ATOM     21  N   UNL     1      32.479  19.264  15.764  0.00  0.00    -0.292 N 
ATOM     22  C   UNL     1      33.643  18.003  13.488  0.00  0.00    +0.205 C 
ATOM     23  C   UNL     1      33.744  16.796  12.530  0.00  0.00    +0.233 C 
ATOM     24  O   UNL     1      33.385  16.913  11.356  0.00  0.00    -0.274 OA
ATOM     25  H   UNL     1      32.474  19.740  14.876  0.00  0.00    +0.151 HD
BRANCH  15  27
ATOM     26  C   UNL     1      35.583  13.822  11.905  0.00  0.00    +0.024 C 
ATOM     27  C   UNL     1      34.210  14.405  12.207  0.00  0.00    +0.104 C 
ENDBRANCH  15  27
ENDBRANCH   1  21
TORSDOF 2
ENDMDL
