MODEL 1
REMARK VINA RESULT:      -6.3      0.000      0.000
REMARK  Name = ZINC000543478179
REMARK  8 active torsions:
REMARK  status: ('A' for Active; 'I' for Inactive)
REMARK    1  A    between atoms: C_1  and  C_2
REMARK    2  A    between atoms: C_2  and  N_3
REMARK    3  A    between atoms: N_9  and  C_10
REMARK    4  A    between atoms: C_10  and  C_11
REMARK    5  A    between atoms: C_10  and  C_12
REMARK    6  A    between atoms: C_15  and  O_16
REMARK    7  A    between atoms: O_16  and  C_17
REMARK    8  A    between atoms: C_17  and  C_18
REMARK                            x       y       z     vdW  Elec       q    Type
REMARK                         _______ _______ _______ _____ _____    ______ ____
ROOT
ATOM      1  C   UNL     1      27.718  23.486  19.066  0.00  0.00    +0.102 C 
ATOM      2  C   UNL     1      26.435  23.304  19.890  0.00  0.00    +0.033 C 
ENDROOT
BRANCH   1   9
ATOM      3  N   UNL     1      32.969  24.673  22.512  0.00  0.00    -0.299 N 
ATOM      4  C   UNL     1      32.699  25.671  21.477  0.00  0.00    +0.127 C 
ATOM      5  C   UNL     1      32.315  25.023  20.143  0.00  0.00    +0.129 C 
ATOM      6  N   UNL     1      31.136  24.184  20.338  0.00  0.00    -0.275 N 
ATOM      7  C   UNL     1      30.026  24.346  19.522  0.00  0.00    +0.303 C 
ATOM      8  O   UNL     1      29.988  25.144  18.595  0.00  0.00    -0.253 OA
ATOM      9  N   UNL     1      28.949  23.562  19.857  0.00  0.00    -0.293 N 
ATOM     10  C   UNL     1      31.239  23.225  21.440  0.00  0.00    +0.205 C 
ATOM     11  C   UNL     1      32.379  23.413  22.459  0.00  0.00    +0.233 C 
ATOM     12  O   UNL     1      32.641  22.524  23.270  0.00  0.00    -0.274 OA
ATOM     13  H   UNL     1      29.192  22.692  20.298  0.00  0.00    +0.151 HD
BRANCH   3  15
ATOM     14  C   UNL     1      35.083  25.167  23.692  0.00  0.00    +0.024 C 
ATOM     15  C   UNL     1      33.563  25.109  23.775  0.00  0.00    +0.104 C 
ENDBRANCH   3  15
ENDBRANCH   1   9
BRANCH   1  16
ATOM     16  C   UNL     1      27.868  22.326  18.089  0.00  0.00    -0.024 A 
ATOM     17  C   UNL     1      27.615  21.012  18.523  0.00  0.00    +0.009 A 
ATOM     18  C   UNL     1      27.824  19.921  17.684  0.00  0.00    +0.049 A 
ATOM     19  C   UNL     1      28.338  20.114  16.402  0.00  0.00    +0.156 A 
ATOM     20  C   UNL     1      28.531  21.418  15.939  0.00  0.00    +0.165 A 
ATOM     21  F   UNL     1      28.979  21.637  14.694  0.00  0.00    -0.202 F 
ATOM     22  C   UNL     1      28.304  22.520  16.771  0.00  0.00    +0.047 A 
BRANCH  19  23
ATOM     23  O   UNL     1      28.690  19.087  15.566  0.00  0.00    -0.489 OA
BRANCH  23  24
ATOM     24  C   UNL     1      29.622  18.158  16.129  0.00  0.00    +0.232 C 
BRANCH  24  25
ATOM     25  C   UNL     1      31.010  18.649  15.874  0.00  0.00    +0.027 C 
ATOM     26  C   UNL     1      32.183  17.993  16.554  0.00  0.00    +0.007 C 
ATOM     27  C   UNL     1      31.776  19.388  16.944  0.00  0.00    +0.007 C 
ENDBRANCH  24  25
ENDBRANCH  23  24
ENDBRANCH  19  23
ENDBRANCH   1  16
TORSDOF 6
ENDMDL
MODEL 2
REMARK VINA RESULT:      -6.2      2.946      4.218
REMARK  Name = ZINC000543478179
REMARK  8 active torsions:
REMARK  status: ('A' for Active; 'I' for Inactive)
REMARK    1  A    between atoms: C_1  and  C_2
REMARK    2  A    between atoms: C_2  and  N_3
REMARK    3  A    between atoms: N_9  and  C_10
REMARK    4  A    between atoms: C_10  and  C_11
REMARK    5  A    between atoms: C_10  and  C_12
REMARK    6  A    between atoms: C_15  and  O_16
REMARK    7  A    between atoms: O_16  and  C_17
REMARK    8  A    between atoms: C_17  and  C_18
REMARK                            x       y       z     vdW  Elec       q    Type
REMARK                         _______ _______ _______ _____ _____    ______ ____
ROOT
ATOM      1  C   UNL     1      28.762  20.256  16.471  0.00  0.00    +0.102 C 
ATOM      2  C   UNL     1      27.623  19.619  17.281  0.00  0.00    +0.033 C 
ENDROOT
BRANCH   1   9
ATOM      3  N   UNL     1      31.921  24.157  20.429  0.00  0.00    -0.299 N 
ATOM      4  C   UNL     1      30.465  24.221  20.568  0.00  0.00    +0.127 C 
ATOM      5  C   UNL     1      29.763  24.277  19.207  0.00  0.00    +0.129 C 
ATOM      6  N   UNL     1      30.133  23.100  18.426  0.00  0.00    -0.275 N 
ATOM      7  C   UNL     1      29.146  22.301  17.866  0.00  0.00    +0.303 C 
ATOM      8  O   UNL     1      27.952  22.552  17.954  0.00  0.00    -0.253 OA
ATOM      9  N   UNL     1      29.613  21.177  17.229  0.00  0.00    -0.293 N 
ATOM     10  C   UNL     1      31.573  22.858  18.324  0.00  0.00    +0.205 C 
ATOM     11  C   UNL     1      32.505  23.620  19.285  0.00  0.00    +0.233 C 
ATOM     12  O   UNL     1      33.723  23.619  19.101  0.00  0.00    -0.274 OA
ATOM     13  H   UNL     1      30.536  21.274  16.843  0.00  0.00    +0.151 HD
BRANCH   3  15
ATOM     14  C   UNL     1      32.363  23.343  22.719  0.00  0.00    +0.024 C 
ATOM     15  C   UNL     1      32.752  24.323  21.620  0.00  0.00    +0.104 C 
ENDBRANCH   3  15
ENDBRANCH   1   9
BRANCH   1  16
ATOM     16  C   UNL     1      29.658  19.164  15.900  0.00  0.00    -0.024 A 
ATOM     17  C   UNL     1      31.053  19.244  16.076  0.00  0.00    +0.009 A 
ATOM     18  C   UNL     1      31.908  18.312  15.496  0.00  0.00    +0.049 A 
ATOM     19  C   UNL     1      31.394  17.300  14.685  0.00  0.00    +0.156 A 
ATOM     20  C   UNL     1      30.008  17.173  14.558  0.00  0.00    +0.165 A 
ATOM     21  F   UNL     1      29.483  16.182  13.823  0.00  0.00    -0.202 F 
ATOM     22  C   UNL     1      29.141  18.096  15.154  0.00  0.00    +0.047 A 
BRANCH  19  23
ATOM     23  O   UNL     1      32.178  16.426  13.979  0.00  0.00    -0.489 OA
BRANCH  23  24
ATOM     24  C   UNL     1      33.437  16.963  13.562  0.00  0.00    +0.232 C 
BRANCH  24  25
ATOM     25  C   UNL     1      33.662  16.613  12.128  0.00  0.00    +0.027 C 
ATOM     26  C   UNL     1      35.056  16.615  11.556  0.00  0.00    +0.007 C 
ATOM     27  C   UNL     1      34.071  17.670  11.131  0.00  0.00    +0.007 C 
ENDBRANCH  24  25
ENDBRANCH  23  24
ENDBRANCH  19  23
ENDBRANCH   1  16
TORSDOF 6
ENDMDL
MODEL 3
REMARK VINA RESULT:      -6.2      6.846      8.686
REMARK  Name = ZINC000543478179
REMARK  8 active torsions:
REMARK  status: ('A' for Active; 'I' for Inactive)
REMARK    1  A    between atoms: C_1  and  C_2
REMARK    2  A    between atoms: C_2  and  N_3
REMARK    3  A    between atoms: N_9  and  C_10
REMARK    4  A    between atoms: C_10  and  C_11
REMARK    5  A    between atoms: C_10  and  C_12
REMARK    6  A    between atoms: C_15  and  O_16
REMARK    7  A    between atoms: O_16  and  C_17
REMARK    8  A    between atoms: C_17  and  C_18
REMARK                            x       y       z     vdW  Elec       q    Type
REMARK                         _______ _______ _______ _____ _____    ______ ____
ROOT
ATOM      1  C   UNL     1      31.379  25.819  13.003  0.00  0.00    +0.102 C 
ATOM      2  C   UNL     1      30.205  26.716  12.582  0.00  0.00    +0.033 C 
ENDROOT
BRANCH   1   9
ATOM      3  N   UNL     1      29.409  20.834  16.486  0.00  0.00    -0.299 N 
ATOM      4  C   UNL     1      29.994  21.918  17.277  0.00  0.00    +0.127 C 
ATOM      5  C   UNL     1      31.286  22.451  16.650  0.00  0.00    +0.129 C 
ATOM      6  N   UNL     1      31.006  22.923  15.297  0.00  0.00    -0.275 N 
ATOM      7  C   UNL     1      31.385  24.203  14.916  0.00  0.00    +0.303 C 
ATOM      8  O   UNL     1      31.994  24.967  15.653  0.00  0.00    -0.253 OA
ATOM      9  N   UNL     1      30.990  24.564  13.651  0.00  0.00    -0.293 N 
ATOM     10  C   UNL     1      30.302  21.964  14.445  0.00  0.00    +0.205 C 
ATOM     11  C   UNL     1      29.646  20.743  15.117  0.00  0.00    +0.233 C 
ATOM     12  O   UNL     1      29.234  19.804  14.435  0.00  0.00    -0.274 OA
ATOM     13  H   UNL     1      30.905  23.795  13.009  0.00  0.00    +0.151 HD
BRANCH   3  15
ATOM     14  C   UNL     1      27.723  20.739  18.289  0.00  0.00    +0.024 C 
ATOM     15  C   UNL     1      28.303  20.065  17.053  0.00  0.00    +0.104 C 
ENDBRANCH   3  15
ENDBRANCH   1   9
BRANCH   1  16
ATOM     16  C   UNL     1      32.218  25.466  11.781  0.00  0.00    -0.024 A 
ATOM     17  C   UNL     1      32.287  26.365  10.700  0.00  0.00    +0.009 A 
ATOM     18  C   UNL     1      32.974  26.040   9.534  0.00  0.00    +0.049 A 
ATOM     19  C   UNL     1      33.571  24.787   9.399  0.00  0.00    +0.156 A 
ATOM     20  C   UNL     1      33.564  23.914  10.491  0.00  0.00    +0.165 A 
ATOM     21  F   UNL     1      34.170  22.720  10.408  0.00  0.00    -0.202 F 
ATOM     22  C   UNL     1      32.892  24.242  11.673  0.00  0.00    +0.047 A 
BRANCH  19  23
ATOM     23  O   UNL     1      34.152  24.346   8.240  0.00  0.00    -0.489 OA
BRANCH  23  24
ATOM     24  C   UNL     1      35.487  24.818   8.031  0.00  0.00    +0.232 C 
BRANCH  24  25
ATOM     25  C   UNL     1      36.283  23.744   7.365  0.00  0.00    +0.027 C 
ATOM     26  C   UNL     1      35.875  22.300   7.504  0.00  0.00    +0.007 C 
ATOM     27  C   UNL     1      37.127  22.793   8.178  0.00  0.00    +0.007 C 
ENDBRANCH  24  25
ENDBRANCH  23  24
ENDBRANCH  19  23
ENDBRANCH   1  16
TORSDOF 6
ENDMDL
MODEL 4
REMARK VINA RESULT:      -6.2      4.870      7.893
REMARK  Name = ZINC000543478179
REMARK  8 active torsions:
REMARK  status: ('A' for Active; 'I' for Inactive)
REMARK    1  A    between atoms: C_1  and  C_2
REMARK    2  A    between atoms: C_2  and  N_3
REMARK    3  A    between atoms: N_9  and  C_10
REMARK    4  A    between atoms: C_10  and  C_11
REMARK    5  A    between atoms: C_10  and  C_12
REMARK    6  A    between atoms: C_15  and  O_16
REMARK    7  A    between atoms: O_16  and  C_17
REMARK    8  A    between atoms: C_17  and  C_18
REMARK                            x       y       z     vdW  Elec       q    Type
REMARK                         _______ _______ _______ _____ _____    ______ ____
ROOT
ATOM      1  C   UNL     1      30.220  20.941  15.589  0.00  0.00    +0.102 C 
ATOM      2  C   UNL     1      29.485  19.884  14.753  0.00  0.00    +0.033 C 
ENDROOT
BRANCH   1   9
ATOM      3  N   UNL     1      32.458  25.586  11.809  0.00  0.00    -0.299 N 
ATOM      4  C   UNL     1      33.392  24.476  12.004  0.00  0.00    +0.127 C 
ATOM      5  C   UNL     1      33.469  24.044  13.472  0.00  0.00    +0.129 C 
ATOM      6  N   UNL     1      32.138  23.654  13.929  0.00  0.00    -0.275 N 
ATOM      7  C   UNL     1      31.946  22.421  14.536  0.00  0.00    +0.303 C 
ATOM      8  O   UNL     1      32.857  21.635  14.757  0.00  0.00    -0.253 OA
ATOM      9  N   UNL     1      30.639  22.131  14.843  0.00  0.00    -0.293 N 
ATOM     10  C   UNL     1      31.086  24.639  13.669  0.00  0.00    +0.205 C 
ATOM     11  C   UNL     1      31.391  25.782  12.683  0.00  0.00    +0.233 C 
ATOM     12  O   UNL     1      30.631  26.747  12.594  0.00  0.00    -0.274 OA
ATOM     13  H   UNL     1      30.069  22.938  15.030  0.00  0.00    +0.151 HD
BRANCH   3  15
ATOM     14  C   UNL     1      33.616  27.208  10.349  0.00  0.00    +0.024 C 
ATOM     15  C   UNL     1      32.430  26.267  10.516  0.00  0.00    +0.104 C 
ENDBRANCH   3  15
ENDBRANCH   1   9
BRANCH   1  16
ATOM     16  C   UNL     1      29.325  21.405  16.732  0.00  0.00    -0.024 A 
ATOM     17  C   UNL     1      28.044  21.916  16.451  0.00  0.00    +0.009 A 
ATOM     18  C   UNL     1      27.234  22.427  17.460  0.00  0.00    +0.049 A 
ATOM     19  C   UNL     1      27.702  22.484  18.773  0.00  0.00    +0.156 A 
ATOM     20  C   UNL     1      28.945  21.920  19.072  0.00  0.00    +0.165 A 
ATOM     21  F   UNL     1      29.402  21.917  20.333  0.00  0.00    -0.202 F 
ATOM     22  C   UNL     1      29.757  21.387  18.065  0.00  0.00    +0.047 A 
BRANCH  19  23
ATOM     23  O   UNL     1      27.018  23.086  19.795  0.00  0.00    -0.489 OA
BRANCH  23  24
ATOM     24  C   UNL     1      25.694  23.509  19.453  0.00  0.00    +0.232 C 
BRANCH  24  25
ATOM     25  C   UNL     1      25.423  24.828  20.098  0.00  0.00    +0.027 C 
ATOM     26  C   UNL     1      24.294  24.973  21.085  0.00  0.00    +0.007 C 
ATOM     27  C   UNL     1      24.196  25.628  19.733  0.00  0.00    +0.007 C 
ENDBRANCH  24  25
ENDBRANCH  23  24
ENDBRANCH  19  23
ENDBRANCH   1  16
TORSDOF 6
ENDMDL
MODEL 5
REMARK VINA RESULT:      -6.2      3.698      6.578
REMARK  Name = ZINC000543478179
REMARK  8 active torsions:
REMARK  status: ('A' for Active; 'I' for Inactive)
REMARK    1  A    between atoms: C_1  and  C_2
REMARK    2  A    between atoms: C_2  and  N_3
REMARK    3  A    between atoms: N_9  and  C_10
REMARK    4  A    between atoms: C_10  and  C_11
REMARK    5  A    between atoms: C_10  and  C_12
REMARK    6  A    between atoms: C_15  and  O_16
REMARK    7  A    between atoms: O_16  and  C_17
REMARK    8  A    between atoms: C_17  and  C_18
REMARK                            x       y       z     vdW  Elec       q    Type
REMARK                         _______ _______ _______ _____ _____    ______ ____
ROOT
ATOM      1  C   UNL     1      27.607  22.614  19.045  0.00  0.00    +0.102 C 
ATOM      2  C   UNL     1      28.834  23.448  19.440  0.00  0.00    +0.033 C 
ENDROOT
BRANCH   1   9
ATOM      3  N   UNL     1      22.687  26.622  18.279  0.00  0.00    -0.299 N 
ATOM      4  C   UNL     1      23.243  26.615  19.632  0.00  0.00    +0.127 C 
ATOM      5  C   UNL     1      23.506  25.192  20.135  0.00  0.00    +0.129 C 
ATOM      6  N   UNL     1      24.426  24.521  19.221  0.00  0.00    -0.275 N 
ATOM      7  C   UNL     1      25.574  23.916  19.712  0.00  0.00    +0.303 C 
ATOM      8  O   UNL     1      25.851  23.874  20.904  0.00  0.00    -0.253 OA
ATOM      9  N   UNL     1      26.403  23.395  18.749  0.00  0.00    -0.293 N 
ATOM     10  C   UNL     1      24.038  24.574  17.811  0.00  0.00    +0.205 C 
ATOM     11  C   UNL     1      22.941  25.574  17.398  0.00  0.00    +0.233 C 
ATOM     12  O   UNL     1      22.429  25.509  16.280  0.00  0.00    -0.274 OA
ATOM     13  H   UNL     1      25.930  23.095  17.914  0.00  0.00    +0.151 HD
BRANCH   3  15
ATOM     14  C   UNL     1      23.090  29.049  18.049  0.00  0.00    +0.024 C 
ATOM     15  C   UNL     1      22.170  27.877  17.734  0.00  0.00    +0.104 C 
ENDBRANCH   3  15
ENDBRANCH   1   9
BRANCH   1  16
ATOM     16  C   UNL     1      27.930  21.780  17.810  0.00  0.00    -0.024 A 
ATOM     17  C   UNL     1      27.671  20.396  17.818  0.00  0.00    +0.009 A 
ATOM     18  C   UNL     1      28.031  19.589  16.743  0.00  0.00    +0.049 A 
ATOM     19  C   UNL     1      28.703  20.137  15.650  0.00  0.00    +0.156 A 
ATOM     20  C   UNL     1      28.906  21.519  15.605  0.00  0.00    +0.165 A 
ATOM     21  F   UNL     1      29.506  22.082  14.546  0.00  0.00    -0.202 F 
ATOM     22  C   UNL     1      28.529  22.340  16.674  0.00  0.00    +0.047 A 
BRANCH  19  23
ATOM     23  O   UNL     1      29.201  19.390  14.616  0.00  0.00    -0.489 OA
BRANCH  23  24
ATOM     24  C   UNL     1      29.997  18.272  15.023  0.00  0.00    +0.232 C 
BRANCH  24  25
ATOM     25  C   UNL     1      31.360  18.757  15.395  0.00  0.00    +0.027 C 
ATOM     26  C   UNL     1      32.448  17.773  15.738  0.00  0.00    +0.007 C 
ATOM     27  C   UNL     1      31.858  18.642  16.816  0.00  0.00    +0.007 C 
ENDBRANCH  24  25
ENDBRANCH  23  24
ENDBRANCH  19  23
ENDBRANCH   1  16
TORSDOF 6
ENDMDL
MODEL 6
REMARK VINA RESULT:      -6.2      2.866      4.136
REMARK  Name = ZINC000543478179
REMARK  8 active torsions:
REMARK  status: ('A' for Active; 'I' for Inactive)
REMARK    1  A    between atoms: C_1  and  C_2
REMARK    2  A    between atoms: C_2  and  N_3
REMARK    3  A    between atoms: N_9  and  C_10
REMARK    4  A    between atoms: C_10  and  C_11
REMARK    5  A    between atoms: C_10  and  C_12
REMARK    6  A    between atoms: C_15  and  O_16
REMARK    7  A    between atoms: O_16  and  C_17
REMARK    8  A    between atoms: C_17  and  C_18
REMARK                            x       y       z     vdW  Elec       q    Type
REMARK                         _______ _______ _______ _____ _____    ______ ____
ROOT
ATOM      1  C   UNL     1      28.710  20.374  16.222  0.00  0.00    +0.102 C 
ATOM      2  C   UNL     1      27.627  19.625  17.011  0.00  0.00    +0.033 C 
ENDROOT
BRANCH   1   9
ATOM      3  N   UNL     1      31.771  24.161  20.363  0.00  0.00    -0.299 N 
ATOM      4  C   UNL     1      30.313  24.194  20.492  0.00  0.00    +0.127 C 
ATOM      5  C   UNL     1      29.621  24.295  19.129  0.00  0.00    +0.129 C 
ATOM      6  N   UNL     1      30.017  23.158  18.303  0.00  0.00    -0.275 N 
ATOM      7  C   UNL     1      29.048  22.366  17.702  0.00  0.00    +0.303 C 
ATOM      8  O   UNL     1      27.849  22.593  17.791  0.00  0.00    -0.253 OA
ATOM      9  N   UNL     1      29.539  21.277  17.024  0.00  0.00    -0.293 N 
ATOM     10  C   UNL     1      31.461  22.943  18.204  0.00  0.00    +0.205 C 
ATOM     11  C   UNL     1      32.373  23.681  19.203  0.00  0.00    +0.233 C 
ATOM     12  O   UNL     1      33.592  23.708  19.030  0.00  0.00    -0.274 OA
ATOM     13  H   UNL     1      30.463  21.405  16.650  0.00  0.00    +0.151 HD
BRANCH   3  15
ATOM     14  C   UNL     1      32.215  23.255  22.618  0.00  0.00    +0.024 C 
ATOM     15  C   UNL     1      32.589  24.292  21.568  0.00  0.00    +0.104 C 
ENDBRANCH   3  15
ENDBRANCH   1   9
BRANCH   1  16
ATOM     16  C   UNL     1      29.639  19.372  15.547  0.00  0.00    -0.024 A 
ATOM     17  C   UNL     1      29.167  18.082  15.239  0.00  0.00    +0.009 A 
ATOM     18  C   UNL     1      30.010  17.114  14.701  0.00  0.00    +0.049 A 
ATOM     19  C   UNL     1      31.361  17.397  14.501  0.00  0.00    +0.156 A 
ATOM     20  C   UNL     1      31.824  18.693  14.742  0.00  0.00    +0.165 A 
ATOM     21  F   UNL     1      33.108  19.008  14.514  0.00  0.00    -0.202 F 
ATOM     22  C   UNL     1      30.977  19.677  15.264  0.00  0.00    +0.047 A 
BRANCH  19  23
ATOM     23  O   UNL     1      32.278  16.462  14.097  0.00  0.00    -0.489 OA
BRANCH  23  24
ATOM     24  C   UNL     1      32.197  16.114  12.711  0.00  0.00    +0.232 C 
BRANCH  24  25
ATOM     25  C   UNL     1      33.576  16.073  12.140  0.00  0.00    +0.027 C 
ATOM     26  C   UNL     1      34.669  16.924  12.733  0.00  0.00    +0.007 C 
ATOM     27  C   UNL     1      34.126  17.247  11.367  0.00  0.00    +0.007 C 
ENDBRANCH  24  25
ENDBRANCH  23  24
ENDBRANCH  19  23
ENDBRANCH   1  16
TORSDOF 6
ENDMDL
MODEL 7
REMARK VINA RESULT:      -6.1      4.362      6.697
REMARK  Name = ZINC000543478179
REMARK  8 active torsions:
REMARK  status: ('A' for Active; 'I' for Inactive)
REMARK    1  A    between atoms: C_1  and  C_2
REMARK    2  A    between atoms: C_2  and  N_3
REMARK    3  A    between atoms: N_9  and  C_10
REMARK    4  A    between atoms: C_10  and  C_11
REMARK    5  A    between atoms: C_10  and  C_12
REMARK    6  A    between atoms: C_15  and  O_16
REMARK    7  A    between atoms: O_16  and  C_17
REMARK    8  A    between atoms: C_17  and  C_18
REMARK                            x       y       z     vdW  Elec       q    Type
REMARK                         _______ _______ _______ _____ _____    ______ ____
ROOT
ATOM      1  C   UNL     1      27.670  22.744  19.339  0.00  0.00    +0.102 C 
ATOM      2  C   UNL     1      28.389  21.817  20.329  0.00  0.00    +0.033 C 
ENDROOT
BRANCH   1   9
ATOM      3  N   UNL     1      24.246  27.244  22.321  0.00  0.00    -0.299 N 
ATOM      4  C   UNL     1      23.441  26.161  21.754  0.00  0.00    +0.127 C 
ATOM      5  C   UNL     1      23.885  25.801  20.334  0.00  0.00    +0.129 C 
ATOM      6  N   UNL     1      25.291  25.409  20.354  0.00  0.00    -0.275 N 
ATOM      7  C   UNL     1      25.685  24.203  19.791  0.00  0.00    +0.303 C 
ATOM      8  O   UNL     1      24.909  23.445  19.225  0.00  0.00    -0.253 OA
ATOM      9  N   UNL     1      27.016  23.905  19.949  0.00  0.00    -0.293 N 
ATOM     10  C   UNL     1      26.185  26.361  21.016  0.00  0.00    +0.205 C 
ATOM     11  C   UNL     1      25.552  27.461  21.889  0.00  0.00    +0.233 C 
ATOM     12  O   UNL     1      26.233  28.407  22.288  0.00  0.00    -0.274 OA
ATOM     13  H   UNL     1      27.616  24.709  20.015  0.00  0.00    +0.151 HD
BRANCH   3  15
ATOM     14  C   UNL     1      22.839  29.004  23.333  0.00  0.00    +0.024 C 
ATOM     15  C   UNL     1      23.817  27.862  23.574  0.00  0.00    +0.104 C 
ENDBRANCH   3  15
ENDBRANCH   1   9
BRANCH   1  16
ATOM     16  C   UNL     1      28.665  23.264  18.308  0.00  0.00    -0.024 A 
ATOM     17  C   UNL     1      28.693  22.699  17.020  0.00  0.00    +0.009 A 
ATOM     18  C   UNL     1      29.644  23.090  16.081  0.00  0.00    +0.049 A 
ATOM     19  C   UNL     1      30.622  24.023  16.422  0.00  0.00    +0.156 A 
ATOM     20  C   UNL     1      30.562  24.638  17.676  0.00  0.00    +0.165 A 
ATOM     21  F   UNL     1      31.460  25.574  18.015  0.00  0.00    -0.202 F 
ATOM     22  C   UNL     1      29.597  24.264  18.618  0.00  0.00    +0.047 A 
BRANCH  19  23
ATOM     23  O   UNL     1      31.663  24.363  15.599  0.00  0.00    -0.489 OA
BRANCH  23  24
ATOM     24  C   UNL     1      31.361  24.294  14.203  0.00  0.00    +0.232 C 
BRANCH  24  25
ATOM     25  C   UNL     1      31.671  25.612  13.573  0.00  0.00    +0.027 C 
ATOM     26  C   UNL     1      30.611  26.351  12.797  0.00  0.00    +0.007 C 
ATOM     27  C   UNL     1      31.783  25.744  12.073  0.00  0.00    +0.007 C 
ENDBRANCH  24  25
ENDBRANCH  23  24
ENDBRANCH  19  23
ENDBRANCH   1  16
TORSDOF 6
ENDMDL
MODEL 8
REMARK VINA RESULT:      -6.1      2.117      2.688
REMARK  Name = ZINC000543478179
REMARK  8 active torsions:
REMARK  status: ('A' for Active; 'I' for Inactive)
REMARK    1  A    between atoms: C_1  and  C_2
REMARK    2  A    between atoms: C_2  and  N_3
REMARK    3  A    between atoms: N_9  and  C_10
REMARK    4  A    between atoms: C_10  and  C_11
REMARK    5  A    between atoms: C_10  and  C_12
REMARK    6  A    between atoms: C_15  and  O_16
REMARK    7  A    between atoms: O_16  and  C_17
REMARK    8  A    between atoms: C_17  and  C_18
REMARK                            x       y       z     vdW  Elec       q    Type
REMARK                         _______ _______ _______ _____ _____    ______ ____
ROOT
ATOM      1  C   UNL     1      28.545  22.513  17.574  0.00  0.00    +0.102 C 
ATOM      2  C   UNL     1      27.305  22.291  18.451  0.00  0.00    +0.033 C 
ENDROOT
BRANCH   1   9
ATOM      3  N   UNL     1      33.166  25.969  20.325  0.00  0.00    -0.299 N 
ATOM      4  C   UNL     1      32.696  26.512  19.051  0.00  0.00    +0.127 C 
ATOM      5  C   UNL     1      32.548  25.423  17.984  0.00  0.00    +0.129 C 
ATOM      6  N   UNL     1      31.614  24.407  18.460  0.00  0.00    -0.275 N 
ATOM      7  C   UNL     1      30.536  24.030  17.672  0.00  0.00    +0.303 C 
ATOM      8  O   UNL     1      30.336  24.482  16.552  0.00  0.00    -0.253 OA
ATOM      9  N   UNL     1      29.681  23.132  18.262  0.00  0.00    -0.293 N 
ATOM     10  C   UNL     1      31.911  23.876  19.792  0.00  0.00    +0.205 C 
ATOM     11  C   UNL     1      32.920  24.641  20.668  0.00  0.00    +0.233 C 
ATOM     12  O   UNL     1      33.364  24.130  21.696  0.00  0.00    -0.274 OA
ATOM     13  H   UNL     1      30.119  22.524  18.932  0.00  0.00    +0.151 HD
BRANCH   3  15
ATOM     14  C   UNL     1      33.694  28.321  20.862  0.00  0.00    +0.024 C 
ATOM     15  C   UNL     1      33.574  26.894  21.380  0.00  0.00    +0.104 C 
ENDBRANCH   3  15
ENDBRANCH   1   9
BRANCH   1  16
ATOM     16  C   UNL     1      29.020  21.179  17.009  0.00  0.00    -0.024 A 
ATOM     17  C   UNL     1      28.134  20.388  16.253  0.00  0.00    +0.009 A 
ATOM     18  C   UNL     1      28.505  19.128  15.794  0.00  0.00    +0.049 A 
ATOM     19  C   UNL     1      29.756  18.605  16.119  0.00  0.00    +0.156 A 
ATOM     20  C   UNL     1      30.666  19.408  16.812  0.00  0.00    +0.165 A 
ATOM     21  F   UNL     1      31.894  18.951  17.098  0.00  0.00    -0.202 F 
ATOM     22  C   UNL     1      30.306  20.684  17.260  0.00  0.00    +0.047 A 
BRANCH  19  23
ATOM     23  O   UNL     1      30.145  17.327  15.814  0.00  0.00    -0.489 OA
BRANCH  23  24
ATOM     24  C   UNL     1      30.599  17.152  14.469  0.00  0.00    +0.232 C 
BRANCH  24  25
ATOM     25  C   UNL     1      32.077  16.934  14.480  0.00  0.00    +0.027 C 
ATOM     26  C   UNL     1      33.001  17.962  13.882  0.00  0.00    +0.007 C 
ATOM     27  C   UNL     1      32.822  16.631  13.203  0.00  0.00    +0.007 C 
ENDBRANCH  24  25
ENDBRANCH  23  24
ENDBRANCH  19  23
ENDBRANCH   1  16
TORSDOF 6
ENDMDL
MODEL 9
REMARK VINA RESULT:      -6.0      5.300      9.011
REMARK  Name = ZINC000543478179
REMARK  8 active torsions:
REMARK  status: ('A' for Active; 'I' for Inactive)
REMARK    1  A    between atoms: C_1  and  C_2
REMARK    2  A    between atoms: C_2  and  N_3
REMARK    3  A    between atoms: N_9  and  C_10
REMARK    4  A    between atoms: C_10  and  C_11
REMARK    5  A    between atoms: C_10  and  C_12
REMARK    6  A    between atoms: C_15  and  O_16
REMARK    7  A    between atoms: O_16  and  C_17
REMARK    8  A    between atoms: C_17  and  C_18
REMARK                            x       y       z     vdW  Elec       q    Type
REMARK                         _______ _______ _______ _____ _____    ______ ____
ROOT
ATOM      1  C   UNL     1      30.962  17.510  14.786  0.00  0.00    +0.102 C 
ATOM      2  C   UNL     1      30.083  16.550  13.971  0.00  0.00    +0.033 C 
ENDROOT
BRANCH   1   9
ATOM      3  N   UNL     1      36.148  18.808  11.282  0.00  0.00    -0.299 N 
ATOM      4  C   UNL     1      35.937  17.381  11.525  0.00  0.00    +0.127 C 
ATOM      5  C   UNL     1      35.571  17.097  12.985  0.00  0.00    +0.129 C 
ATOM      6  N   UNL     1      34.363  17.840  13.331  0.00  0.00    -0.275 N 
ATOM      7  C   UNL     1      33.281  17.181  13.898  0.00  0.00    +0.303 C 
ATOM      8  O   UNL     1      33.293  15.988  14.171  0.00  0.00    -0.253 OA
ATOM      9  N   UNL     1      32.172  17.967  14.098  0.00  0.00    -0.293 N 
ATOM     10  C   UNL     1      34.407  19.268  13.013  0.00  0.00    +0.205 C 
ATOM     11  C   UNL     1      35.523  19.767  12.076  0.00  0.00    +0.233 C 
ATOM     12  O   UNL     1      35.736  20.973  11.949  0.00  0.00    -0.274 OA
ATOM     13  H   UNL     1      32.377  18.938  14.258  0.00  0.00    +0.151 HD
BRANCH   3  15
ATOM     14  C   UNL     1      37.079  18.038   9.127  0.00  0.00    +0.024 C 
ATOM     15  C   UNL     1      36.720  19.230  10.004  0.00  0.00    +0.104 C 
ENDBRANCH   3  15
ENDBRANCH   1   9
BRANCH   1  16
ATOM     16  C   UNL     1      30.154  18.745  15.168  0.00  0.00    -0.024 A 
ATOM     17  C   UNL     1      30.793  19.997  15.247  0.00  0.00    +0.009 A 
ATOM     18  C   UNL     1      30.107  21.130  15.675  0.00  0.00    +0.049 A 
ATOM     19  C   UNL     1      28.776  21.031  16.081  0.00  0.00    +0.156 A 
ATOM     20  C   UNL     1      28.116  19.807  15.944  0.00  0.00    +0.165 A 
ATOM     21  F   UNL     1      26.823  19.693  16.280  0.00  0.00    -0.202 F 
ATOM     22  C   UNL     1      28.794  18.668  15.495  0.00  0.00    +0.047 A 
BRANCH  19  23
ATOM     23  O   UNL     1      28.075  22.071  16.632  0.00  0.00    -0.489 OA
BRANCH  23  24
ATOM     24  C   UNL     1      28.625  22.575  17.853  0.00  0.00    +0.232 C 
BRANCH  24  25
ATOM     25  C   UNL     1      28.345  21.600  18.950  0.00  0.00    +0.027 C 
ATOM     26  C   UNL     1      27.339  21.932  20.021  0.00  0.00    +0.007 C 
ATOM     27  C   UNL     1      28.803  21.875  20.362  0.00  0.00    +0.007 C 
ENDBRANCH  24  25
ENDBRANCH  23  24
ENDBRANCH  19  23
ENDBRANCH   1  16
TORSDOF 6
ENDMDL
