MODEL 1
REMARK VINA RESULT:      -6.6      0.000      0.000
REMARK  Name = ZINC000329563636
REMARK  3 active torsions:
REMARK  status: ('A' for Active; 'I' for Inactive)
REMARK    1  A    between atoms: C_1  and  C_2
REMARK    2  A    between atoms: C_2  and  N_3
REMARK    3  A    between atoms: N_9  and  C_10
REMARK                            x       y       z     vdW  Elec       q    Type
REMARK                         _______ _______ _______ _____ _____    ______ ____
ROOT
ATOM      1  C   UNL     1      34.068  22.171  14.401  0.00  0.00    +0.112 C 
ATOM      2  C   UNL     1      34.601  23.312  15.274  0.00  0.00    +0.075 C 
ATOM      3  C   UNL     1      33.753  23.627  16.515  0.00  0.00    +0.113 C 
ATOM      4  C   UNL     1      34.050  22.735  17.749  0.00  0.00    +0.048 C 
ATOM      5  C   UNL     1      34.702  23.642  18.786  0.00  0.00    +0.004 C 
ATOM      6  C   UNL     1      34.103  25.006  18.507  0.00  0.00    +0.004 C 
ATOM      7  C   UNL     1      34.091  25.065  16.989  0.00  0.00    +0.048 C 
ATOM      8  O   UNL     1      32.342  23.602  16.223  0.00  0.00    -0.485 OA
ATOM      9  C   UNL     1      31.927  22.406  15.697  0.00  0.00    +0.126 A 
ATOM     10  C   UNL     1      30.657  21.957  16.054  0.00  0.00    +0.046 A 
ATOM     11  C   UNL     1      30.194  20.726  15.584  0.00  0.00    +0.004 A 
ATOM     12  C   UNL     1      30.992  19.960  14.738  0.00  0.00    +0.001 A 
ATOM     13  C   UNL     1      32.250  20.429  14.358  0.00  0.00    +0.009 A 
ATOM     14  C   UNL     1      32.728  21.659  14.837  0.00  0.00    +0.015 A 
ENDROOT
BRANCH   1  21
ATOM     15  N   UNL     1      34.067  22.636   8.101  0.00  0.00    -0.299 N 
ATOM     16  C   UNL     1      35.182  21.890   8.684  0.00  0.00    +0.127 C 
ATOM     17  C   UNL     1      35.820  22.648   9.843  0.00  0.00    +0.129 C 
ATOM     18  N   UNL     1      34.805  22.896  10.855  0.00  0.00    -0.275 N 
ATOM     19  C   UNL     1      34.978  22.369  12.116  0.00  0.00    +0.303 C 
ATOM     20  O   UNL     1      35.959  21.692  12.419  0.00  0.00    -0.253 OA
ATOM     21  N   UNL     1      33.978  22.616  13.009  0.00  0.00    -0.292 N 
ATOM     22  C   UNL     1      33.639  23.642  10.371  0.00  0.00    +0.205 C 
ATOM     23  C   UNL     1      33.244  23.433   8.893  0.00  0.00    +0.233 C 
ATOM     24  O   UNL     1      32.242  23.995   8.442  0.00  0.00    -0.274 OA
ATOM     25  H   UNL     1      33.401  23.429  12.863  0.00  0.00    +0.151 HD
BRANCH  15  27
ATOM     26  C   UNL     1      34.765  21.851   5.855  0.00  0.00    +0.024 C 
ATOM     27  C   UNL     1      33.617  22.267   6.764  0.00  0.00    +0.104 C 
ENDBRANCH  15  27
ENDBRANCH   1  21
TORSDOF 2
ENDMDL
MODEL 2
REMARK VINA RESULT:      -6.2      1.018      1.120
REMARK  Name = ZINC000329563636
REMARK  3 active torsions:
REMARK  status: ('A' for Active; 'I' for Inactive)
REMARK    1  A    between atoms: C_1  and  C_2
REMARK    2  A    between atoms: C_2  and  N_3
REMARK    3  A    between atoms: N_9  and  C_10
REMARK                            x       y       z     vdW  Elec       q    Type
REMARK                         _______ _______ _______ _____ _____    ______ ____
ROOT
ATOM      1  C   UNL     1      34.266  22.090  13.717  0.00  0.00    +0.112 C 
ATOM      2  C   UNL     1      34.473  23.206  14.747  0.00  0.00    +0.075 C 
ATOM      3  C   UNL     1      33.583  23.109  15.994  0.00  0.00    +0.113 C 
ATOM      4  C   UNL     1      34.123  22.174  17.108  0.00  0.00    +0.048 C 
ATOM      5  C   UNL     1      34.511  23.077  18.273  0.00  0.00    +0.004 C 
ATOM      6  C   UNL     1      33.559  24.251  18.159  0.00  0.00    +0.004 C 
ATOM      7  C   UNL     1      33.519  24.508  16.662  0.00  0.00    +0.048 C 
ATOM      8  O   UNL     1      32.230  22.740  15.661  0.00  0.00    -0.485 OA
ATOM      9  C   UNL     1      32.153  21.558  14.972  0.00  0.00    +0.126 A 
ATOM     10  C   UNL     1      31.057  20.736  15.230  0.00  0.00    +0.046 A 
ATOM     11  C   UNL     1      30.944  19.501  14.590  0.00  0.00    +0.004 A 
ATOM     12  C   UNL     1      31.915  19.101  13.674  0.00  0.00    +0.001 A 
ATOM     13  C   UNL     1      32.993  19.941  13.394  0.00  0.00    +0.009 A 
ATOM     14  C   UNL     1      33.120  21.179  14.044  0.00  0.00    +0.015 A 
ENDROOT
BRANCH   1  21
ATOM     15  N   UNL     1      34.406  23.624   7.591  0.00  0.00    -0.299 N 
ATOM     16  C   UNL     1      35.708  23.433   8.228  0.00  0.00    +0.127 C 
ATOM     17  C   UNL     1      35.800  24.183   9.553  0.00  0.00    +0.129 C 
ATOM     18  N   UNL     1      34.741  23.711  10.433  0.00  0.00    -0.275 N 
ATOM     19  C   UNL     1      35.082  23.120  11.629  0.00  0.00    +0.303 C 
ATOM     20  O   UNL     1      36.251  22.972  11.981  0.00  0.00    -0.253 OA
ATOM     21  N   UNL     1      34.045  22.676  12.394  0.00  0.00    -0.292 N 
ATOM     22  C   UNL     1      33.389  23.859   9.884  0.00  0.00    +0.205 C 
ATOM     23  C   UNL     1      33.245  23.754   8.351  0.00  0.00    +0.233 C 
ATOM     24  O   UNL     1      32.126  23.821   7.835  0.00  0.00    -0.274 OA
ATOM     25  H   UNL     1      33.144  23.110  12.270  0.00  0.00    +0.151 HD
BRANCH  15  27
ATOM     26  C   UNL     1      35.516  22.621   5.614  0.00  0.00    +0.024 C 
ATOM     27  C   UNL     1      34.287  23.330   6.167  0.00  0.00    +0.104 C 
ENDBRANCH  15  27
ENDBRANCH   1  21
TORSDOF 2
ENDMDL
MODEL 3
REMARK VINA RESULT:      -6.1      3.458      5.785
REMARK  Name = ZINC000329563636
REMARK  3 active torsions:
REMARK  status: ('A' for Active; 'I' for Inactive)
REMARK    1  A    between atoms: C_1  and  C_2
REMARK    2  A    between atoms: C_2  and  N_3
REMARK    3  A    between atoms: N_9  and  C_10
REMARK                            x       y       z     vdW  Elec       q    Type
REMARK                         _______ _______ _______ _____ _____    ______ ____
ROOT
ATOM      1  C   UNL     1      32.875  21.601  14.790  0.00  0.00    +0.112 C 
ATOM      2  C   UNL     1      32.984  21.851  16.298  0.00  0.00    +0.075 C 
ATOM      3  C   UNL     1      33.946  22.979  16.698  0.00  0.00    +0.113 C 
ATOM      4  C   UNL     1      33.334  24.404  16.650  0.00  0.00    +0.048 C 
ATOM      5  C   UNL     1      33.237  24.877  18.096  0.00  0.00    +0.004 C 
ATOM      6  C   UNL     1      34.389  24.174  18.788  0.00  0.00    +0.004 C 
ATOM      7  C   UNL     1      34.345  22.780  18.184  0.00  0.00    +0.048 C 
ATOM      8  O   UNL     1      35.164  22.946  15.928  0.00  0.00    -0.485 OA
ATOM      9  C   UNL     1      34.944  23.013  14.577  0.00  0.00    +0.126 A 
ATOM     10  C   UNL     1      35.874  23.713  13.811  0.00  0.00    +0.046 A 
ATOM     11  C   UNL     1      35.682  23.852  12.435  0.00  0.00    +0.004 A 
ATOM     12  C   UNL     1      34.574  23.269  11.825  0.00  0.00    +0.001 A 
ATOM     13  C   UNL     1      33.663  22.541  12.591  0.00  0.00    +0.009 A 
ATOM     14  C   UNL     1      33.842  22.409  13.977  0.00  0.00    +0.015 A 
ENDROOT
BRANCH   1  21
ATOM     15  N   UNL     1      32.632  15.681  12.600  0.00  0.00    -0.299 N 
ATOM     16  C   UNL     1      31.341  16.305  12.891  0.00  0.00    +0.127 C 
ATOM     17  C   UNL     1      31.337  16.971  14.262  0.00  0.00    +0.129 C 
ATOM     18  N   UNL     1      32.393  17.972  14.300  0.00  0.00    -0.275 N 
ATOM     19  C   UNL     1      32.055  19.290  14.513  0.00  0.00    +0.303 C 
ATOM     20  O   UNL     1      30.891  19.656  14.669  0.00  0.00    -0.253 OA
ATOM     21  N   UNL     1      33.088  20.180  14.509  0.00  0.00    -0.292 N 
ATOM     22  C   UNL     1      33.733  17.447  14.020  0.00  0.00    +0.205 C 
ATOM     23  C   UNL     1      33.822  16.243  13.058  0.00  0.00    +0.233 C 
ATOM     24  O   UNL     1      34.925  15.788  12.745  0.00  0.00    -0.274 OA
ATOM     25  H   UNL     1      34.008  19.839  14.735  0.00  0.00    +0.151 HD
BRANCH  15  27
ATOM     26  C   UNL     1      31.443  14.680  10.668  0.00  0.00    +0.024 C 
ATOM     27  C   UNL     1      32.686  14.674  11.545  0.00  0.00    +0.104 C 
ENDBRANCH  15  27
ENDBRANCH   1  21
TORSDOF 2
ENDMDL
MODEL 4
REMARK VINA RESULT:      -6.1      2.324      8.035
REMARK  Name = ZINC000329563636
REMARK  3 active torsions:
REMARK  status: ('A' for Active; 'I' for Inactive)
REMARK    1  A    between atoms: C_1  and  C_2
REMARK    2  A    between atoms: C_2  and  N_3
REMARK    3  A    between atoms: N_9  and  C_10
REMARK                            x       y       z     vdW  Elec       q    Type
REMARK                         _______ _______ _______ _____ _____    ______ ____
ROOT
ATOM      1  C   UNL     1      35.366  22.232  10.133  0.00  0.00    +0.112 C 
ATOM      2  C   UNL     1      35.262  21.539   8.769  0.00  0.00    +0.075 C 
ATOM      3  C   UNL     1      35.191  22.489   7.565  0.00  0.00    +0.113 C 
ATOM      4  C   UNL     1      36.566  22.988   7.048  0.00  0.00    +0.048 C 
ATOM      5  C   UNL     1      36.768  22.343   5.681  0.00  0.00    +0.004 C 
ATOM      6  C   UNL     1      35.360  22.179   5.143  0.00  0.00    +0.004 C 
ATOM      7  C   UNL     1      34.584  21.716   6.365  0.00  0.00    +0.048 C 
ATOM      8  O   UNL     1      34.328  23.615   7.819  0.00  0.00    -0.485 OA
ATOM      9  C   UNL     1      34.698  24.334   8.925  0.00  0.00    +0.126 A 
ATOM     10  C   UNL     1      34.519  25.715   8.882  0.00  0.00    +0.046 A 
ATOM     11  C   UNL     1      34.915  26.506   9.962  0.00  0.00    +0.004 A 
ATOM     12  C   UNL     1      35.468  25.911  11.093  0.00  0.00    +0.001 A 
ATOM     13  C   UNL     1      35.616  24.524  11.146  0.00  0.00    +0.009 A 
ATOM     14  C   UNL     1      35.231  23.724  10.058  0.00  0.00    +0.015 A 
ENDROOT
BRANCH   1  21
ATOM     15  N   UNL     1      31.528  20.984  14.993  0.00  0.00    -0.299 N 
ATOM     16  C   UNL     1      32.941  21.158  15.326  0.00  0.00    +0.127 C 
ATOM     17  C   UNL     1      33.841  20.349  14.399  0.00  0.00    +0.129 C 
ATOM     18  N   UNL     1      33.598  20.769  13.027  0.00  0.00    -0.275 N 
ATOM     19  C   UNL     1      34.638  21.307  12.302  0.00  0.00    +0.303 C 
ATOM     20  O   UNL     1      35.766  21.450  12.771  0.00  0.00    -0.253 OA
ATOM     21  N   UNL     1      34.338  21.706  11.033  0.00  0.00    -0.292 N 
ATOM     22  C   UNL     1      32.205  20.634  12.591  0.00  0.00    +0.205 C 
ATOM     23  C   UNL     1      31.117  20.808  13.673  0.00  0.00    +0.233 C 
ATOM     24  O   UNL     1      29.926  20.755  13.357  0.00  0.00    -0.274 OA
ATOM     25  H   UNL     1      33.556  21.269  10.571  0.00  0.00    +0.151 HD
BRANCH  15  27
ATOM     26  C   UNL     1      31.074  22.327  17.026  0.00  0.00    +0.024 C 
ATOM     27  C   UNL     1      30.535  21.343  15.999  0.00  0.00    +0.104 C 
ENDBRANCH  15  27
ENDBRANCH   1  21
TORSDOF 2
ENDMDL
MODEL 5
REMARK VINA RESULT:      -5.9      2.807      4.182
REMARK  Name = ZINC000329563636
REMARK  3 active torsions:
REMARK  status: ('A' for Active; 'I' for Inactive)
REMARK    1  A    between atoms: C_1  and  C_2
REMARK    2  A    between atoms: C_2  and  N_3
REMARK    3  A    between atoms: N_9  and  C_10
REMARK                            x       y       z     vdW  Elec       q    Type
REMARK                         _______ _______ _______ _____ _____    ______ ____
ROOT
ATOM      1  C   UNL     1      33.885  21.241  12.096  0.00  0.00    +0.112 C 
ATOM      2  C   UNL     1      32.645  21.825  12.781  0.00  0.00    +0.075 C 
ATOM      3  C   UNL     1      31.797  20.808  13.559  0.00  0.00    +0.113 C 
ATOM      4  C   UNL     1      32.285  20.523  15.003  0.00  0.00    +0.048 C 
ATOM      5  C   UNL     1      31.232  21.111  15.935  0.00  0.00    +0.004 C 
ATOM      6  C   UNL     1      29.943  21.001  15.145  0.00  0.00    +0.004 C 
ATOM      7  C   UNL     1      30.372  21.395  13.742  0.00  0.00    +0.048 C 
ATOM      8  O   UNL     1      31.651  19.568  12.839  0.00  0.00    -0.485 OA
ATOM      9  C   UNL     1      32.852  18.989  12.523  0.00  0.00    +0.126 A 
ATOM     10  C   UNL     1      32.918  17.597  12.547  0.00  0.00    +0.046 A 
ATOM     11  C   UNL     1      34.125  16.950  12.274  0.00  0.00    +0.004 A 
ATOM     12  C   UNL     1      35.257  17.697  11.954  0.00  0.00    +0.001 A 
ATOM     13  C   UNL     1      35.178  19.089  11.899  0.00  0.00    +0.009 A 
ATOM     14  C   UNL     1      33.971  19.747  12.185  0.00  0.00    +0.015 A 
ENDROOT
BRANCH   1  21
ATOM     15  N   UNL     1      35.311  23.551   6.392  0.00  0.00    -0.299 N 
ATOM     16  C   UNL     1      35.592  24.433   7.524  0.00  0.00    +0.127 C 
ATOM     17  C   UNL     1      34.406  24.515   8.479  0.00  0.00    +0.129 C 
ATOM     18  N   UNL     1      34.096  23.176   8.957  0.00  0.00    -0.275 N 
ATOM     19  C   UNL     1      34.177  22.916  10.307  0.00  0.00    +0.303 C 
ATOM     20  O   UNL     1      34.506  23.772  11.126  0.00  0.00    -0.253 OA
ATOM     21  N   UNL     1      33.902  21.635  10.686  0.00  0.00    -0.292 N 
ATOM     22  C   UNL     1      33.798  22.210   7.896  0.00  0.00    +0.205 C 
ATOM     23  C   UNL     1      34.514  22.418   6.543  0.00  0.00    +0.233 C 
ATOM     24  O   UNL     1      34.341  21.609   5.628  0.00  0.00    -0.274 OA
ATOM     25  H   UNL     1      33.313  21.080  10.086  0.00  0.00    +0.151 HD
BRANCH  15  27
ATOM     26  C   UNL     1      36.728  25.068   5.036  0.00  0.00    +0.024 C 
ATOM     27  C   UNL     1      36.147  23.671   5.202  0.00  0.00    +0.104 C 
ENDBRANCH  15  27
ENDBRANCH   1  21
TORSDOF 2
ENDMDL
MODEL 6
REMARK VINA RESULT:      -5.9      3.448      5.393
REMARK  Name = ZINC000329563636
REMARK  3 active torsions:
REMARK  status: ('A' for Active; 'I' for Inactive)
REMARK    1  A    between atoms: C_1  and  C_2
REMARK    2  A    between atoms: C_2  and  N_3
REMARK    3  A    between atoms: N_9  and  C_10
REMARK                            x       y       z     vdW  Elec       q    Type
REMARK                         _______ _______ _______ _____ _____    ______ ____
ROOT
ATOM      1  C   UNL     1      32.963  20.032  11.557  0.00  0.00    +0.112 C 
ATOM      2  C   UNL     1      33.869  18.797  11.500  0.00  0.00    +0.075 C 
ATOM      3  C   UNL     1      33.677  17.800  12.651  0.00  0.00    +0.113 C 
ATOM      4  C   UNL     1      32.521  16.785  12.446  0.00  0.00    +0.048 C 
ATOM      5  C   UNL     1      33.177  15.422  12.260  0.00  0.00    +0.004 C 
ATOM      6  C   UNL     1      34.455  15.517  13.071  0.00  0.00    +0.004 C 
ATOM      7  C   UNL     1      34.949  16.919  12.756  0.00  0.00    +0.048 C 
ATOM      8  O   UNL     1      33.521  18.466  13.920  0.00  0.00    -0.485 OA
ATOM      9  C   UNL     1      32.480  19.358  13.930  0.00  0.00    +0.126 A 
ATOM     10  C   UNL     1      31.757  19.484  15.115  0.00  0.00    +0.046 A 
ATOM     11  C   UNL     1      30.660  20.346  15.176  0.00  0.00    +0.004 A 
ATOM     12  C   UNL     1      30.304  21.098  14.059  0.00  0.00    +0.001 A 
ATOM     13  C   UNL     1      31.051  20.993  12.884  0.00  0.00    +0.009 A 
ATOM     14  C   UNL     1      32.147  20.118  12.812  0.00  0.00    +0.015 A 
ENDROOT
BRANCH   1  21
ATOM     15  N   UNL     1      35.190  25.820  10.357  0.00  0.00    -0.299 N 
ATOM     16  C   UNL     1      34.415  25.201   9.282  0.00  0.00    +0.127 C 
ATOM     17  C   UNL     1      34.870  23.770   9.015  0.00  0.00    +0.129 C 
ATOM     18  N   UNL     1      34.727  22.997  10.240  0.00  0.00    -0.275 N 
ATOM     19  C   UNL     1      33.883  21.909  10.246  0.00  0.00    +0.303 C 
ATOM     20  O   UNL     1      33.241  21.566   9.254  0.00  0.00    -0.253 OA
ATOM     21  N   UNL     1      33.773  21.245  11.431  0.00  0.00    -0.292 N 
ATOM     22  C   UNL     1      35.468  23.537  11.384  0.00  0.00    +0.205 C 
ATOM     23  C   UNL     1      35.651  25.069  11.436  0.00  0.00    +0.233 C 
ATOM     24  O   UNL     1      36.222  25.585  12.400  0.00  0.00    -0.274 OA
ATOM     25  H   UNL     1      34.537  21.311  12.085  0.00  0.00    +0.151 HD
BRANCH  15  27
ATOM     26  C   UNL     1      36.362  27.925   9.771  0.00  0.00    +0.024 C 
ATOM     27  C   UNL     1      35.174  27.275  10.466  0.00  0.00    +0.104 C 
ENDBRANCH  15  27
ENDBRANCH   1  21
TORSDOF 2
ENDMDL
MODEL 7
REMARK VINA RESULT:      -5.9      3.948      7.914
REMARK  Name = ZINC000329563636
REMARK  3 active torsions:
REMARK  status: ('A' for Active; 'I' for Inactive)
REMARK    1  A    between atoms: C_1  and  C_2
REMARK    2  A    between atoms: C_2  and  N_3
REMARK    3  A    between atoms: N_9  and  C_10
REMARK                            x       y       z     vdW  Elec       q    Type
REMARK                         _______ _______ _______ _____ _____    ______ ____
ROOT
ATOM      1  C   UNL     1      33.094  18.318  13.941  0.00  0.00    +0.112 C 
ATOM      2  C   UNL     1      32.838  18.109  12.444  0.00  0.00    +0.075 C 
ATOM      3  C   UNL     1      33.713  17.034  11.782  0.00  0.00    +0.113 C 
ATOM      4  C   UNL     1      33.185  15.583  11.931  0.00  0.00    +0.048 C 
ATOM      5  C   UNL     1      32.753  15.140  10.538  0.00  0.00    +0.004 C 
ATOM      6  C   UNL     1      33.671  15.909   9.609  0.00  0.00    +0.004 C 
ATOM      7  C   UNL     1      33.725  17.285  10.252  0.00  0.00    +0.048 C 
ATOM      8  O   UNL     1      35.081  17.104  12.231  0.00  0.00    -0.485 OA
ATOM      9  C   UNL     1      35.204  16.995  13.591  0.00  0.00    +0.126 A 
ATOM     10  C   UNL     1      36.320  16.320  14.082  0.00  0.00    +0.046 A 
ATOM     11  C   UNL     1      36.479  16.141  15.458  0.00  0.00    +0.004 A 
ATOM     12  C   UNL     1      35.534  16.659  16.340  0.00  0.00    +0.001 A 
ATOM     13  C   UNL     1      34.435  17.363  15.846  0.00  0.00    +0.009 A 
ATOM     14  C   UNL     1      34.262  17.536  14.464  0.00  0.00    +0.015 A 
ENDROOT
BRANCH   1  21
ATOM     15  N   UNL     1      33.560  24.076  16.498  0.00  0.00    -0.299 N 
ATOM     16  C   UNL     1      32.348  23.328  16.831  0.00  0.00    +0.127 C 
ATOM     17  C   UNL     1      31.701  22.725  15.588  0.00  0.00    +0.129 C 
ATOM     18  N   UNL     1      32.664  21.848  14.938  0.00  0.00    -0.275 N 
ATOM     19  C   UNL     1      32.361  20.512  14.801  0.00  0.00    +0.303 C 
ATOM     20  O   UNL     1      31.307  20.029  15.211  0.00  0.00    -0.253 OA
ATOM     21  N   UNL     1      33.316  19.740  14.208  0.00  0.00    -0.292 N 
ATOM     22  C   UNL     1      33.920  22.504  14.562  0.00  0.00    +0.205 C 
ATOM     23  C   UNL     1      34.394  23.668  15.459  0.00  0.00    +0.233 C 
ATOM     24  O   UNL     1      35.469  24.225  15.222  0.00  0.00    -0.274 OA
ATOM     25  H   UNL     1      33.970  20.189  13.587  0.00  0.00    +0.151 HD
BRANCH  15  27
ATOM     26  C   UNL     1      33.156  25.168  18.686  0.00  0.00    +0.024 C 
ATOM     27  C   UNL     1      34.065  25.035  17.473  0.00  0.00    +0.104 C 
ENDBRANCH  15  27
ENDBRANCH   1  21
TORSDOF 2
ENDMDL
MODEL 8
REMARK VINA RESULT:      -5.9      1.522      1.793
REMARK  Name = ZINC000329563636
REMARK  3 active torsions:
REMARK  status: ('A' for Active; 'I' for Inactive)
REMARK    1  A    between atoms: C_1  and  C_2
REMARK    2  A    between atoms: C_2  and  N_3
REMARK    3  A    between atoms: N_9  and  C_10
REMARK                            x       y       z     vdW  Elec       q    Type
REMARK                         _______ _______ _______ _____ _____    ______ ____
ROOT
ATOM      1  C   UNL     1      35.106  23.335  15.197  0.00  0.00    +0.112 C 
ATOM      2  C   UNL     1      35.328  24.448  16.226  0.00  0.00    +0.075 C 
ATOM      3  C   UNL     1      34.233  24.569  17.295  0.00  0.00    +0.113 C 
ATOM      4  C   UNL     1      34.397  23.612  18.505  0.00  0.00    +0.048 C 
ATOM      5  C   UNL     1      34.734  24.492  19.704  0.00  0.00    +0.004 C 
ATOM      6  C   UNL     1      34.041  25.806  19.399  0.00  0.00    +0.004 C 
ATOM      7  C   UNL     1      34.306  25.990  17.914  0.00  0.00    +0.048 C 
ATOM      8  O   UNL     1      32.914  24.422  16.733  0.00  0.00    -0.485 OA
ATOM      9  C   UNL     1      32.748  23.238  16.064  0.00  0.00    +0.126 A 
ATOM     10  C   UNL     1      31.495  22.631  16.138  0.00  0.00    +0.046 A 
ATOM     11  C   UNL     1      31.275  21.403  15.511  0.00  0.00    +0.004 A 
ATOM     12  C   UNL     1      32.302  20.797  14.791  0.00  0.00    +0.001 A 
ATOM     13  C   UNL     1      33.545  21.424  14.692  0.00  0.00    +0.009 A 
ATOM     14  C   UNL     1      33.777  22.652  15.331  0.00  0.00    +0.015 A 
ENDROOT
BRANCH   1  21
ATOM     15  N   UNL     1      35.373  24.241   8.950  0.00  0.00    -0.299 N 
ATOM     16  C   UNL     1      36.070  23.057   9.452  0.00  0.00    +0.127 C 
ATOM     17  C   UNL     1      36.951  23.391  10.651  0.00  0.00    +0.129 C 
ATOM     18  N   UNL     1      36.119  23.960  11.700  0.00  0.00    -0.275 N 
ATOM     19  C   UNL     1      36.043  23.313  12.914  0.00  0.00    +0.303 C 
ATOM     20  O   UNL     1      36.650  22.269  13.145  0.00  0.00    -0.253 OA
ATOM     21  N   UNL     1      35.224  23.882  13.844  0.00  0.00    -0.292 N 
ATOM     22  C   UNL     1      35.373  25.156  11.298  0.00  0.00    +0.205 C 
ATOM     23  C   UNL     1      34.944  25.245   9.817  0.00  0.00    +0.233 C 
ATOM     24  O   UNL     1      34.272  26.203   9.430  0.00  0.00    -0.274 OA
ATOM     25  H   UNL     1      35.038  24.870  13.771  0.00  0.00    +0.151 HD
BRANCH  15  27
ATOM     26  C   UNL     1      33.617  23.277   7.489  0.00  0.00    +0.024 C 
ATOM     27  C   UNL     1      34.826  24.195   7.599  0.00  0.00    +0.104 C 
ENDBRANCH  15  27
ENDBRANCH   1  21
TORSDOF 2
ENDMDL
MODEL 9
REMARK VINA RESULT:      -5.8      2.290      8.194
REMARK  Name = ZINC000329563636
REMARK  3 active torsions:
REMARK  status: ('A' for Active; 'I' for Inactive)
REMARK    1  A    between atoms: C_1  and  C_2
REMARK    2  A    between atoms: C_2  and  N_3
REMARK    3  A    between atoms: N_9  and  C_10
REMARK                            x       y       z     vdW  Elec       q    Type
REMARK                         _______ _______ _______ _____ _____    ______ ____
ROOT
ATOM      1  C   UNL     1      34.975  21.761  10.070  0.00  0.00    +0.112 C 
ATOM      2  C   UNL     1      35.700  20.607   9.370  0.00  0.00    +0.075 C 
ATOM      3  C   UNL     1      35.383  20.455   7.875  0.00  0.00    +0.113 C 
ATOM      4  C   UNL     1      36.221  21.363   6.937  0.00  0.00    +0.048 C 
ATOM      5  C   UNL     1      37.142  20.435   6.154  0.00  0.00    +0.004 C 
ATOM      6  C   UNL     1      36.359  19.141   6.055  0.00  0.00    +0.004 C 
ATOM      7  C   UNL     1      35.747  19.011   7.440  0.00  0.00    +0.048 C 
ATOM      8  O   UNL     1      33.980  20.636   7.603  0.00  0.00    -0.485 OA
ATOM      9  C   UNL     1      33.503  21.846   8.033  0.00  0.00    +0.126 A 
ATOM     10  C   UNL     1      32.521  22.461   7.258  0.00  0.00    +0.046 A 
ATOM     11  C   UNL     1      32.026  23.714   7.623  0.00  0.00    +0.004 A 
ATOM     12  C   UNL     1      32.495  24.338   8.776  0.00  0.00    +0.001 A 
ATOM     13  C   UNL     1      33.454  23.704   9.568  0.00  0.00    +0.009 A 
ATOM     14  C   UNL     1      33.966  22.450   9.200  0.00  0.00    +0.015 A 
ENDROOT
BRANCH   1  21
ATOM     15  N   UNL     1      31.691  21.092  15.425  0.00  0.00    -0.299 N 
ATOM     16  C   UNL     1      32.582  22.250  15.365  0.00  0.00    +0.127 C 
ATOM     17  C   UNL     1      33.972  21.864  14.872  0.00  0.00    +0.129 C 
ATOM     18  N   UNL     1      33.850  21.262  13.553  0.00  0.00    -0.275 N 
ATOM     19  C   UNL     1      34.481  21.863  12.486  0.00  0.00    +0.303 C 
ATOM     20  O   UNL     1      35.143  22.892  12.605  0.00  0.00    -0.253 OA
ATOM     21  N   UNL     1      34.304  21.265  11.273  0.00  0.00    -0.292 N 
ATOM     22  C   UNL     1      32.974  20.088  13.503  0.00  0.00    +0.205 C 
ATOM     23  C   UNL     1      31.791  20.060  14.495  0.00  0.00    +0.233 C 
ATOM     24  O   UNL     1      30.990  19.121  14.467  0.00  0.00    -0.274 OA
ATOM     25  H   UNL     1      34.082  20.282  11.257  0.00  0.00    +0.151 HD
BRANCH  15  27
ATOM     26  C   UNL     1      30.616  22.226  17.351  0.00  0.00    +0.024 C 
ATOM     27  C   UNL     1      30.485  21.194  16.240  0.00  0.00    +0.104 C 
ENDBRANCH  15  27
ENDBRANCH   1  21
TORSDOF 2
ENDMDL
