MODEL 1
REMARK VINA RESULT:      -6.9      0.000      0.000
REMARK  Name = ZINC000329563636
REMARK  3 active torsions:
REMARK  status: ('A' for Active; 'I' for Inactive)
REMARK    1  A    between atoms: C_1  and  C_2
REMARK    2  A    between atoms: C_2  and  N_3
REMARK    3  A    between atoms: N_9  and  C_10
REMARK                            x       y       z     vdW  Elec       q    Type
REMARK                         _______ _______ _______ _____ _____    ______ ____
ROOT
ATOM      1  C   UNL     1      32.145  21.386  16.049  0.00  0.00    +0.112 C 
ATOM      2  C   UNL     1      32.583  19.920  15.972  0.00  0.00    +0.075 C 
ATOM      3  C   UNL     1      31.463  18.896  16.204  0.00  0.00    +0.113 C 
ATOM      4  C   UNL     1      30.617  18.561  14.948  0.00  0.00    +0.048 C 
ATOM      5  C   UNL     1      30.948  17.119  14.581  0.00  0.00    +0.004 C 
ATOM      6  C   UNL     1      31.286  16.473  15.910  0.00  0.00    +0.004 C 
ATOM      7  C   UNL     1      32.108  17.545  16.607  0.00  0.00    +0.048 C 
ATOM      8  O   UNL     1      30.595  19.286  17.287  0.00  0.00    -0.485 OA
ATOM      9  C   UNL     1      30.031  20.522  17.101  0.00  0.00    +0.126 A 
ATOM     10  C   UNL     1      28.728  20.707  17.560  0.00  0.00    +0.046 A 
ATOM     11  C   UNL     1      28.086  21.931  17.363  0.00  0.00    +0.004 A 
ATOM     12  C   UNL     1      28.757  22.975  16.730  0.00  0.00    +0.001 A 
ATOM     13  C   UNL     1      30.073  22.795  16.302  0.00  0.00    +0.009 A 
ATOM     14  C   UNL     1      30.721  21.563  16.485  0.00  0.00    +0.015 A 
ENDROOT
BRANCH   1  21
ATOM     15  N   UNL     1      35.114  25.741  19.531  0.00  0.00    -0.299 N 
ATOM     16  C   UNL     1      34.848  26.111  18.142  0.00  0.00    +0.127 C 
ATOM     17  C   UNL     1      35.262  25.004  17.178  0.00  0.00    +0.129 C 
ATOM     18  N   UNL     1      34.533  23.791  17.517  0.00  0.00    -0.275 N 
ATOM     19  C   UNL     1      33.692  23.234  16.580  0.00  0.00    +0.303 C 
ATOM     20  O   UNL     1      33.529  23.726  15.464  0.00  0.00    -0.253 OA
ATOM     21  N   UNL     1      33.018  22.115  16.970  0.00  0.00    -0.292 N 
ATOM     22  C   UNL     1      34.732  23.333  18.896  0.00  0.00    +0.205 C 
ATOM     23  C   UNL     1      34.991  24.421  19.960  0.00  0.00    +0.233 C 
ATOM     24  O   UNL     1      35.117  24.101  21.145  0.00  0.00    -0.274 OA
ATOM     25  H   UNL     1      33.418  21.553  17.705  0.00  0.00    +0.151 HD
BRANCH  15  27
ATOM     26  C   UNL     1      35.994  27.996  20.069  0.00  0.00    +0.024 C 
ATOM     27  C   UNL     1      35.165  26.805  20.528  0.00  0.00    +0.104 C 
ENDBRANCH  15  27
ENDBRANCH   1  21
TORSDOF 2
ENDMDL
MODEL 2
REMARK VINA RESULT:      -6.9      4.286      6.795
REMARK  Name = ZINC000329563636
REMARK  3 active torsions:
REMARK  status: ('A' for Active; 'I' for Inactive)
REMARK    1  A    between atoms: C_1  and  C_2
REMARK    2  A    between atoms: C_2  and  N_3
REMARK    3  A    between atoms: N_9  and  C_10
REMARK                            x       y       z     vdW  Elec       q    Type
REMARK                         _______ _______ _______ _____ _____    ______ ____
ROOT
ATOM      1  C   UNL     1      29.735  21.460  17.191  0.00  0.00    +0.112 C 
ATOM      2  C   UNL     1      29.685  19.938  17.361  0.00  0.00    +0.075 C 
ATOM      3  C   UNL     1      30.394  19.140  16.258  0.00  0.00    +0.113 C 
ATOM      4  C   UNL     1      31.923  18.971  16.457  0.00  0.00    +0.048 C 
ATOM      5  C   UNL     1      32.155  17.493  16.751  0.00  0.00    +0.004 C 
ATOM      6  C   UNL     1      31.038  16.792  16.003  0.00  0.00    +0.004 C 
ATOM      7  C   UNL     1      29.841  17.691  16.266  0.00  0.00    +0.048 C 
ATOM      8  O   UNL     1      30.131  19.683  14.949  0.00  0.00    -0.485 OA
ATOM      9  C   UNL     1      30.485  21.002  14.836  0.00  0.00    +0.126 A 
ATOM     10  C   UNL     1      30.996  21.425  13.610  0.00  0.00    +0.046 A 
ATOM     11  C   UNL     1      31.413  22.748  13.446  0.00  0.00    +0.004 A 
ATOM     12  C   UNL     1      31.295  23.650  14.501  0.00  0.00    +0.001 A 
ATOM     13  C   UNL     1      30.753  23.230  15.716  0.00  0.00    +0.009 A 
ATOM     14  C   UNL     1      30.344  21.898  15.893  0.00  0.00    +0.015 A 
ENDROOT
BRANCH   1  21
ATOM     15  N   UNL     1      24.651  25.118  18.019  0.00  0.00    -0.299 N 
ATOM     16  C   UNL     1      25.699  25.246  19.032  0.00  0.00    +0.127 C 
ATOM     17  C   UNL     1      26.166  23.883  19.530  0.00  0.00    +0.129 C 
ATOM     18  N   UNL     1      26.660  23.114  18.398  0.00  0.00    -0.275 N 
ATOM     19  C   UNL     1      27.975  22.704  18.394  0.00  0.00    +0.303 C 
ATOM     20  O   UNL     1      28.751  22.966  19.312  0.00  0.00    -0.253 OA
ATOM     21  N   UNL     1      28.382  22.012  17.292  0.00  0.00    -0.292 N 
ATOM     22  C   UNL     1      25.683  22.928  17.321  0.00  0.00    +0.205 C 
ATOM     23  C   UNL     1      24.649  24.056  17.117  0.00  0.00    +0.233 C 
ATOM     24  O   UNL     1      23.832  23.979  16.195  0.00  0.00    -0.274 OA
ATOM     25  H   UNL     1      27.685  21.519  16.757  0.00  0.00    +0.151 HD
BRANCH  15  27
ATOM     26  C   UNL     1      23.491  27.081  18.992  0.00  0.00    +0.024 C 
ATOM     27  C   UNL     1      23.821  26.284  17.738  0.00  0.00    +0.104 C 
ENDBRANCH  15  27
ENDBRANCH   1  21
TORSDOF 2
ENDMDL
MODEL 3
REMARK VINA RESULT:      -6.6      5.275      8.608
REMARK  Name = ZINC000329563636
REMARK  3 active torsions:
REMARK  status: ('A' for Active; 'I' for Inactive)
REMARK    1  A    between atoms: C_1  and  C_2
REMARK    2  A    between atoms: C_2  and  N_3
REMARK    3  A    between atoms: N_9  and  C_10
REMARK                            x       y       z     vdW  Elec       q    Type
REMARK                         _______ _______ _______ _____ _____    ______ ____
ROOT
ATOM      1  C   UNL     1      26.257  24.365  19.985  0.00  0.00    +0.112 C 
ATOM      2  C   UNL     1      26.476  25.336  21.151  0.00  0.00    +0.075 C 
ATOM      3  C   UNL     1      25.565  26.572  21.143  0.00  0.00    +0.113 C 
ATOM      4  C   UNL     1      24.165  26.352  21.776  0.00  0.00    +0.048 C 
ATOM      5  C   UNL     1      24.144  27.169  23.062  0.00  0.00    +0.004 C 
ATOM      6  C   UNL     1      25.073  28.332  22.772  0.00  0.00    +0.004 C 
ATOM      7  C   UNL     1      26.218  27.669  22.024  0.00  0.00    +0.048 C 
ATOM      8  O   UNL     1      25.420  27.125  19.820  0.00  0.00    -0.485 OA
ATOM      9  C   UNL     1      24.941  26.219  18.911  0.00  0.00    +0.126 A 
ATOM     10  C   UNL     1      24.086  26.697  17.920  0.00  0.00    +0.046 A 
ATOM     11  C   UNL     1      23.532  25.815  16.990  0.00  0.00    +0.004 A 
ATOM     12  C   UNL     1      23.854  24.461  17.038  0.00  0.00    +0.001 A 
ATOM     13  C   UNL     1      24.737  23.992  18.013  0.00  0.00    +0.009 A 
ATOM     14  C   UNL     1      25.287  24.870  18.959  0.00  0.00    +0.015 A 
ENDROOT
BRANCH   1  21
ATOM     15  N   UNL     1      30.877  22.793  15.975  0.00  0.00    -0.299 N 
ATOM     16  C   UNL     1      29.714  21.907  15.984  0.00  0.00    +0.127 C 
ATOM     17  C   UNL     1      29.312  21.523  17.403  0.00  0.00    +0.129 C 
ATOM     18  N   UNL     1      29.018  22.737  18.151  0.00  0.00    -0.275 N 
ATOM     19  C   UNL     1      27.753  22.913  18.666  0.00  0.00    +0.303 C 
ATOM     20  O   UNL     1      26.858  22.083  18.515  0.00  0.00    -0.253 OA
ATOM     21  N   UNL     1      27.536  24.082  19.332  0.00  0.00    -0.292 N 
ATOM     22  C   UNL     1      30.125  23.696  18.203  0.00  0.00    +0.205 C 
ATOM     23  C   UNL     1      31.075  23.731  16.986  0.00  0.00    +0.233 C 
ATOM     24  O   UNL     1      31.995  24.551  16.950  0.00  0.00    -0.274 OA
ATOM     25  H   UNL     1      28.330  24.551  19.739  0.00  0.00    +0.151 HD
BRANCH  15  27
ATOM     26  C   UNL     1      31.105  22.017  13.631  0.00  0.00    +0.024 C 
ATOM     27  C   UNL     1      31.631  22.925  14.733  0.00  0.00    +0.104 C 
ENDBRANCH  15  27
ENDBRANCH   1  21
TORSDOF 2
ENDMDL
MODEL 4
REMARK VINA RESULT:      -6.5      3.232      8.472
REMARK  Name = ZINC000329563636
REMARK  3 active torsions:
REMARK  status: ('A' for Active; 'I' for Inactive)
REMARK    1  A    between atoms: C_1  and  C_2
REMARK    2  A    between atoms: C_2  and  N_3
REMARK    3  A    between atoms: N_9  and  C_10
REMARK                            x       y       z     vdW  Elec       q    Type
REMARK                         _______ _______ _______ _____ _____    ______ ____
ROOT
ATOM      1  C   UNL     1      31.461  21.048  15.599  0.00  0.00    +0.112 C 
ATOM      2  C   UNL     1      32.226  21.245  16.912  0.00  0.00    +0.075 C 
ATOM      3  C   UNL     1      33.115  22.495  16.962  0.00  0.00    +0.113 C 
ATOM      4  C   UNL     1      32.379  23.801  17.361  0.00  0.00    +0.048 C 
ATOM      5  C   UNL     1      32.906  24.186  18.738  0.00  0.00    +0.004 C 
ATOM      6  C   UNL     1      34.325  23.651  18.749  0.00  0.00    +0.004 C 
ATOM      7  C   UNL     1      34.179  22.297  18.074  0.00  0.00    +0.048 C 
ATOM      8  O   UNL     1      33.830  22.696  15.727  0.00  0.00    -0.485 OA
ATOM      9  C   UNL     1      33.002  22.788  14.639  0.00  0.00    +0.126 A 
ATOM     10  C   UNL     1      33.376  23.664  13.622  0.00  0.00    +0.046 A 
ATOM     11  C   UNL     1      32.552  23.832  12.506  0.00  0.00    +0.004 A 
ATOM     12  C   UNL     1      31.369  23.104  12.400  0.00  0.00    +0.001 A 
ATOM     13  C   UNL     1      31.016  22.203  13.405  0.00  0.00    +0.009 A 
ATOM     14  C   UNL     1      31.832  22.039  14.536  0.00  0.00    +0.015 A 
ENDROOT
BRANCH   1  21
ATOM     15  N   UNL     1      30.954  15.247  13.150  0.00  0.00    -0.299 N 
ATOM     16  C   UNL     1      29.913  15.628  14.104  0.00  0.00    +0.127 C 
ATOM     17  C   UNL     1      30.506  16.241  15.368  0.00  0.00    +0.129 C 
ATOM     18  N   UNL     1      31.293  17.408  14.998  0.00  0.00    -0.275 N 
ATOM     19  C   UNL     1      30.933  18.640  15.497  0.00  0.00    +0.303 C 
ATOM     20  O   UNL     1      29.967  18.793  16.243  0.00  0.00    -0.253 OA
ATOM     21  N   UNL     1      31.694  19.695  15.090  0.00  0.00    -0.292 N 
ATOM     22  C   UNL     1      32.369  17.132  14.040  0.00  0.00    +0.205 C 
ATOM     23  C   UNL     1      32.124  15.992  13.028  0.00  0.00    +0.233 C 
ATOM     24  O   UNL     1      32.972  15.746  12.166  0.00  0.00    -0.274 OA
ATOM     25  H   UNL     1      32.640  19.512  14.796  0.00  0.00    +0.151 HD
BRANCH  15  27
ATOM     26  C   UNL     1      29.112  14.022  12.030  0.00  0.00    +0.024 C 
ATOM     27  C   UNL     1      30.607  14.299  12.097  0.00  0.00    +0.104 C 
ENDBRANCH  15  27
ENDBRANCH   1  21
TORSDOF 2
ENDMDL
MODEL 5
REMARK VINA RESULT:      -6.4      5.266      7.437
REMARK  Name = ZINC000329563636
REMARK  3 active torsions:
REMARK  status: ('A' for Active; 'I' for Inactive)
REMARK    1  A    between atoms: C_1  and  C_2
REMARK    2  A    between atoms: C_2  and  N_3
REMARK    3  A    between atoms: N_9  and  C_10
REMARK                            x       y       z     vdW  Elec       q    Type
REMARK                         _______ _______ _______ _____ _____    ______ ____
ROOT
ATOM      1  C   UNL     1      31.685  22.392  13.567  0.00  0.00    +0.112 C 
ATOM      2  C   UNL     1      30.807  21.182  13.907  0.00  0.00    +0.075 C 
ATOM      3  C   UNL     1      31.146  20.489  15.234  0.00  0.00    +0.113 C 
ATOM      4  C   UNL     1      30.498  21.132  16.488  0.00  0.00    +0.048 C 
ATOM      5  C   UNL     1      29.466  20.131  16.996  0.00  0.00    +0.004 C 
ATOM      6  C   UNL     1      30.034  18.784  16.594  0.00  0.00    +0.004 C 
ATOM      7  C   UNL     1      30.570  19.049  15.196  0.00  0.00    +0.048 C 
ATOM      8  O   UNL     1      32.569  20.368  15.429  0.00  0.00    -0.485 OA
ATOM      9  C   UNL     1      33.220  21.573  15.383  0.00  0.00    +0.126 A 
ATOM     10  C   UNL     1      34.312  21.744  16.231  0.00  0.00    +0.046 A 
ATOM     11  C   UNL     1      34.990  22.964  16.259  0.00  0.00    +0.004 A 
ATOM     12  C   UNL     1      34.589  24.003  15.422  0.00  0.00    +0.001 A 
ATOM     13  C   UNL     1      33.515  23.816  14.551  0.00  0.00    +0.009 A 
ATOM     14  C   UNL     1      32.820  22.596  14.526  0.00  0.00    +0.015 A 
ENDROOT
BRANCH   1  21
ATOM     15  N   UNL     1      34.612  23.144   8.020  0.00  0.00    -0.299 N 
ATOM     16  C   UNL     1      33.902  24.317   8.529  0.00  0.00    +0.127 C 
ATOM     17  C   UNL     1      32.492  23.963   8.990  0.00  0.00    +0.129 C 
ATOM     18  N   UNL     1      32.580  22.946  10.027  0.00  0.00    -0.275 N 
ATOM     19  C   UNL     1      32.088  23.230  11.281  0.00  0.00    +0.303 C 
ATOM     20  O   UNL     1      31.578  24.314  11.561  0.00  0.00    -0.253 OA
ATOM     21  N   UNL     1      32.225  22.246  12.215  0.00  0.00    -0.292 N 
ATOM     22  C   UNL     1      33.278  21.724   9.617  0.00  0.00    +0.205 C 
ATOM     23  C   UNL     1      34.402  21.881   8.571  0.00  0.00    +0.233 C 
ATOM     24  O   UNL     1      35.058  20.896   8.223  0.00  0.00    -0.274 OA
ATOM     25  H   UNL     1      32.303  21.294  11.893  0.00  0.00    +0.151 HD
BRANCH  15  27
ATOM     26  C   UNL     1      36.543  24.627   7.553  0.00  0.00    +0.024 C 
ATOM     27  C   UNL     1      35.785  23.361   7.180  0.00  0.00    +0.104 C 
ENDBRANCH  15  27
ENDBRANCH   1  21
TORSDOF 2
ENDMDL
MODEL 6
REMARK VINA RESULT:      -6.4      5.714      8.377
REMARK  Name = ZINC000329563636
REMARK  3 active torsions:
REMARK  status: ('A' for Active; 'I' for Inactive)
REMARK    1  A    between atoms: C_1  and  C_2
REMARK    2  A    between atoms: C_2  and  N_3
REMARK    3  A    between atoms: N_9  and  C_10
REMARK                            x       y       z     vdW  Elec       q    Type
REMARK                         _______ _______ _______ _____ _____    ______ ____
ROOT
ATOM      1  C   UNL     1      31.933  23.027  12.880  0.00  0.00    +0.112 C 
ATOM      2  C   UNL     1      30.773  22.234  13.490  0.00  0.00    +0.075 C 
ATOM      3  C   UNL     1      30.921  21.916  14.985  0.00  0.00    +0.113 C 
ATOM      4  C   UNL     1      30.462  23.049  15.939  0.00  0.00    +0.048 C 
ATOM      5  C   UNL     1      29.207  22.537  16.637  0.00  0.00    +0.004 C 
ATOM      6  C   UNL     1      29.407  21.036  16.694  0.00  0.00    +0.004 C 
ATOM      7  C   UNL     1      29.992  20.722  15.327  0.00  0.00    +0.048 C 
ATOM      8  O   UNL     1      32.264  21.513  15.318  0.00  0.00    -0.485 OA
ATOM      9  C   UNL     1      33.204  22.448  14.970  0.00  0.00    +0.126 A 
ATOM     10  C   UNL     1      34.305  22.593  15.814  0.00  0.00    +0.046 A 
ATOM     11  C   UNL     1      35.275  23.558  15.535  0.00  0.00    +0.004 A 
ATOM     12  C   UNL     1      35.156  24.357  14.401  0.00  0.00    +0.001 A 
ATOM     13  C   UNL     1      34.070  24.185  13.542  0.00  0.00    +0.009 A 
ATOM     14  C   UNL     1      33.083  23.227  13.822  0.00  0.00    +0.015 A 
ENDROOT
BRANCH   1  21
ATOM     15  N   UNL     1      34.850  21.374   7.526  0.00  0.00    -0.299 N 
ATOM     16  C   UNL     1      34.361  22.751   7.585  0.00  0.00    +0.127 C 
ATOM     17  C   UNL     1      32.919  22.814   8.078  0.00  0.00    +0.129 C 
ATOM     18  N   UNL     1      32.849  22.205   9.398  0.00  0.00    -0.275 N 
ATOM     19  C   UNL     1      32.435  22.971  10.464  0.00  0.00    +0.303 C 
ATOM     20  O   UNL     1      32.124  24.155  10.345  0.00  0.00    -0.253 OA
ATOM     21  N   UNL     1      32.417  22.348  11.677  0.00  0.00    -0.292 N 
ATOM     22  C   UNL     1      33.319  20.817   9.447  0.00  0.00    +0.205 C 
ATOM     23  C   UNL     1      34.435  20.423   8.456  0.00  0.00    +0.233 C 
ATOM     24  O   UNL     1      34.906  19.284   8.484  0.00  0.00    -0.274 OA
ATOM     25  H   UNL     1      32.324  21.345  11.693  0.00  0.00    +0.151 HD
BRANCH  15  27
ATOM     26  C   UNL     1      35.672  20.700   5.286  0.00  0.00    +0.024 C 
ATOM     27  C   UNL     1      36.028  21.098   6.711  0.00  0.00    +0.104 C 
ENDBRANCH  15  27
ENDBRANCH   1  21
TORSDOF 2
ENDMDL
MODEL 7
REMARK VINA RESULT:      -6.3      3.398      5.262
REMARK  Name = ZINC000329563636
REMARK  3 active torsions:
REMARK  status: ('A' for Active; 'I' for Inactive)
REMARK    1  A    between atoms: C_1  and  C_2
REMARK    2  A    between atoms: C_2  and  N_3
REMARK    3  A    between atoms: N_9  and  C_10
REMARK                            x       y       z     vdW  Elec       q    Type
REMARK                         _______ _______ _______ _____ _____    ______ ____
ROOT
ATOM      1  C   UNL     1      31.423  18.530  16.032  0.00  0.00    +0.112 C 
ATOM      2  C   UNL     1      30.434  17.805  15.112  0.00  0.00    +0.075 C 
ATOM      3  C   UNL     1      30.613  16.282  15.043  0.00  0.00    +0.113 C 
ATOM      4  C   UNL     1      29.916  15.492  16.181  0.00  0.00    +0.048 C 
ATOM      5  C   UNL     1      28.776  14.718  15.528  0.00  0.00    +0.004 C 
ATOM      6  C   UNL     1      29.273  14.453  14.121  0.00  0.00    +0.004 C 
ATOM      7  C   UNL     1      29.937  15.767  13.745  0.00  0.00    +0.048 C 
ATOM      8  O   UNL     1      32.003  15.907  14.970  0.00  0.00    -0.485 OA
ATOM      9  C   UNL     1      32.742  16.390  16.018  0.00  0.00    +0.126 A 
ATOM     10  C   UNL     1      33.773  15.585  16.499  0.00  0.00    +0.046 A 
ATOM     11  C   UNL     1      34.535  16.005  17.592  0.00  0.00    +0.004 A 
ATOM     12  C   UNL     1      34.280  17.239  18.185  0.00  0.00    +0.001 A 
ATOM     13  C   UNL     1      33.268  18.056  17.679  0.00  0.00    +0.009 A 
ATOM     14  C   UNL     1      32.489  17.635  16.589  0.00  0.00    +0.015 A 
ENDROOT
BRANCH   1  21
ATOM     15  N   UNL     1      34.794  23.568  14.254  0.00  0.00    -0.299 N 
ATOM     16  C   UNL     1      34.100  23.687  15.536  0.00  0.00    +0.127 C 
ATOM     17  C   UNL     1      32.645  23.244  15.429  0.00  0.00    +0.129 C 
ATOM     18  N   UNL     1      32.609  21.863  14.970  0.00  0.00    -0.275 N 
ATOM     19  C   UNL     1      32.035  20.907  15.779  0.00  0.00    +0.303 C 
ATOM     20  O   UNL     1      31.554  21.176  16.879  0.00  0.00    -0.253 OA
ATOM     21  N   UNL     1      32.058  19.630  15.303  0.00  0.00    -0.292 N 
ATOM     22  C   UNL     1      33.281  21.635  13.687  0.00  0.00    +0.205 C 
ATOM     23  C   UNL     1      34.487  22.542  13.363  0.00  0.00    +0.233 C 
ATOM     24  O   UNL     1      35.124  22.365  12.321  0.00  0.00    -0.274 OA
ATOM     25  H   UNL     1      32.118  19.496  14.306  0.00  0.00    +0.151 HD
BRANCH  15  27
ATOM     26  C   UNL     1      36.898  24.322  15.328  0.00  0.00    +0.024 C 
ATOM     27  C   UNL     1      36.036  24.312  14.074  0.00  0.00    +0.104 C 
ENDBRANCH  15  27
ENDBRANCH   1  21
TORSDOF 2
ENDMDL
MODEL 8
REMARK VINA RESULT:      -6.3      3.052      8.245
REMARK  Name = ZINC000329563636
REMARK  3 active torsions:
REMARK  status: ('A' for Active; 'I' for Inactive)
REMARK    1  A    between atoms: C_1  and  C_2
REMARK    2  A    between atoms: C_2  and  N_3
REMARK    3  A    between atoms: N_9  and  C_10
REMARK                            x       y       z     vdW  Elec       q    Type
REMARK                         _______ _______ _______ _____ _____    ______ ____
ROOT
ATOM      1  C   UNL     1      32.823  20.084  16.591  0.00  0.00    +0.112 C 
ATOM      2  C   UNL     1      33.892  21.145  16.308  0.00  0.00    +0.075 C 
ATOM      3  C   UNL     1      33.369  22.587  16.236  0.00  0.00    +0.113 C 
ATOM      4  C   UNL     1      33.229  23.297  17.608  0.00  0.00    +0.048 C 
ATOM      5  C   UNL     1      34.291  24.391  17.634  0.00  0.00    +0.004 C 
ATOM      6  C   UNL     1      34.446  24.784  16.178  0.00  0.00    +0.004 C 
ATOM      7  C   UNL     1      34.403  23.445  15.460  0.00  0.00    +0.048 C 
ATOM      8  O   UNL     1      32.125  22.672  15.514  0.00  0.00    -0.485 OA
ATOM      9  C   UNL     1      31.145  21.873  16.042  0.00  0.00    +0.126 A 
ATOM     10  C   UNL     1      29.836  22.352  15.999  0.00  0.00    +0.046 A 
ATOM     11  C   UNL     1      28.799  21.603  16.558  0.00  0.00    +0.004 A 
ATOM     12  C   UNL     1      29.070  20.366  17.138  0.00  0.00    +0.001 A 
ATOM     13  C   UNL     1      30.376  19.875  17.150  0.00  0.00    +0.009 A 
ATOM     14  C   UNL     1      31.426  20.629  16.601  0.00  0.00    +0.015 A 
ENDROOT
BRANCH   1  21
ATOM     15  N   UNL     1      31.971  14.943  13.019  0.00  0.00    -0.299 N 
ATOM     16  C   UNL     1      31.832  14.746  14.462  0.00  0.00    +0.127 C 
ATOM     17  C   UNL     1      32.991  15.373  15.228  0.00  0.00    +0.129 C 
ATOM     18  N   UNL     1      33.039  16.795  14.923  0.00  0.00    -0.275 N 
ATOM     19  C   UNL     1      32.882  17.702  15.948  0.00  0.00    +0.303 C 
ATOM     20  O   UNL     1      32.699  17.355  17.114  0.00  0.00    -0.253 OA
ATOM     21  N   UNL     1      32.910  19.017  15.591  0.00  0.00    -0.292 N 
ATOM     22  C   UNL     1      33.178  17.102  13.497  0.00  0.00    +0.205 C 
ATOM     23  C   UNL     1      32.543  16.105  12.504  0.00  0.00    +0.233 C 
ATOM     24  O   UNL     1      32.584  16.335  11.293  0.00  0.00    -0.274 OA
ATOM     25  H   UNL     1      33.400  19.270  14.747  0.00  0.00    +0.151 HD
BRANCH  15  27
ATOM     26  C   UNL     1      29.703  14.359  12.206  0.00  0.00    +0.024 C 
ATOM     27  C   UNL     1      31.197  14.083  12.130  0.00  0.00    +0.104 C 
ENDBRANCH  15  27
ENDBRANCH   1  21
TORSDOF 2
ENDMDL
MODEL 9
REMARK VINA RESULT:      -6.2      5.945      8.929
REMARK  Name = ZINC000329563636
REMARK  3 active torsions:
REMARK  status: ('A' for Active; 'I' for Inactive)
REMARK    1  A    between atoms: C_1  and  C_2
REMARK    2  A    between atoms: C_2  and  N_3
REMARK    3  A    between atoms: N_9  and  C_10
REMARK                            x       y       z     vdW  Elec       q    Type
REMARK                         _______ _______ _______ _____ _____    ______ ____
ROOT
ATOM      1  C   UNL     1      26.209  25.270  20.471  0.00  0.00    +0.112 C 
ATOM      2  C   UNL     1      26.053  24.598  21.840  0.00  0.00    +0.075 C 
ATOM      3  C   UNL     1      25.820  25.563  23.011  0.00  0.00    +0.113 C 
ATOM      4  C   UNL     1      24.345  25.997  23.213  0.00  0.00    +0.048 C 
ATOM      5  C   UNL     1      23.886  25.357  24.519  0.00  0.00    +0.004 C 
ATOM      6  C   UNL     1      25.153  25.270  25.348  0.00  0.00    +0.004 C 
ATOM      7  C   UNL     1      26.193  24.834  24.329  0.00  0.00    +0.048 C 
ATOM      8  O   UNL     1      26.663  26.729  22.923  0.00  0.00    -0.485 OA
ATOM      9  C   UNL     1      26.504  27.416  21.748  0.00  0.00    +0.126 A 
ATOM     10  C   UNL     1      26.605  28.805  21.799  0.00  0.00    +0.046 A 
ATOM     11  C   UNL     1      26.411  29.563  20.643  0.00  0.00    +0.004 A 
ATOM     12  C   UNL     1      26.141  28.928  19.433  0.00  0.00    +0.001 A 
ATOM     13  C   UNL     1      26.074  27.535  19.379  0.00  0.00    +0.009 A 
ATOM     14  C   UNL     1      26.254  26.767  20.541  0.00  0.00    +0.015 A 
ENDROOT
BRANCH   1  21
ATOM     15  N   UNL     1      30.568  23.126  16.432  0.00  0.00    -0.299 N 
ATOM     16  C   UNL     1      29.250  22.499  16.338  0.00  0.00    +0.127 C 
ATOM     17  C   UNL     1      28.725  22.089  17.710  0.00  0.00    +0.129 C 
ATOM     18  N   UNL     1      28.654  23.270  18.556  0.00  0.00    -0.275 N 
ATOM     19  C   UNL     1      27.432  23.657  19.059  0.00  0.00    +0.303 C 
ATOM     20  O   UNL     1      26.394  23.043  18.816  0.00  0.00    -0.253 OA
ATOM     21  N   UNL     1      27.429  24.787  19.821  0.00  0.00    -0.292 N 
ATOM     22  C   UNL     1      29.929  23.976  18.716  0.00  0.00    +0.205 C 
ATOM     23  C   UNL     1      30.912  23.917  17.527  0.00  0.00    +0.233 C 
ATOM     24  O   UNL     1      31.979  24.533  17.583  0.00  0.00    -0.274 OA
ATOM     25  H   UNL     1      28.285  25.048  20.285  0.00  0.00    +0.151 HD
BRANCH  15  27
ATOM     26  C   UNL     1      30.994  22.154  14.192  0.00  0.00    +0.024 C 
ATOM     27  C   UNL     1      31.380  23.205  15.222  0.00  0.00    +0.104 C 
ENDBRANCH  15  27
ENDBRANCH   1  21
TORSDOF 2
ENDMDL
