MODEL 1
REMARK VINA RESULT:      -7.8      0.000      0.000
REMARK  Name = ZINC001228612316
REMARK  5 active torsions:
REMARK  status: ('A' for Active; 'I' for Inactive)
REMARK    1  A    between atoms: C_2  and  C_4
REMARK    2  A    between atoms: C_8  and  O_9
REMARK    3  A    between atoms: O_9  and  C_10
REMARK    4  A    between atoms: C_10  and  C_11
REMARK    5  A    between atoms: C_10  and  C_17
REMARK                            x       y       z     vdW  Elec       q    Type
REMARK                         _______ _______ _______ _____ _____    ______ ____
ROOT
ATOM      1  C   UNL     1      28.989  22.187  16.996  0.00  0.00    +0.040 A 
ATOM      2  C   UNL     1      27.634  22.261  17.336  0.00  0.00    +0.013 A 
ATOM      3  C   UNL     1      26.797  21.167  17.116  0.00  0.00    +0.004 A 
ATOM      4  C   UNL     1      27.307  19.992  16.558  0.00  0.00    +0.046 A 
ATOM      5  C   UNL     1      28.655  19.907  16.212  0.00  0.00    +0.122 A 
ATOM      6  C   UNL     1      29.494  21.007  16.435  0.00  0.00    +0.058 A 
ENDROOT
BRANCH   1   8
ATOM      7  N   UNL     1      30.558  23.891  16.219  0.00  0.00    -0.325 N 
ATOM      8  C   UNL     1      29.844  23.374  17.266  0.00  0.00    +0.242 C 
ATOM      9  O   UNL     1      29.885  23.901  18.372  0.00  0.00    -0.270 OA
ATOM     10  H   UNL     1      31.047  24.758  16.399  0.00  0.00    +0.145 HD
ATOM     11  H   UNL     1      30.373  23.646  15.258  0.00  0.00    +0.145 HD
ENDBRANCH   1   8
BRANCH   5  12
ATOM     12  O   UNL     1      29.254  18.843  15.594  0.00  0.00    -0.484 OA
BRANCH  12  13
ATOM     13  C   UNL     1      28.725  17.525  15.816  0.00  0.00    +0.208 C 
BRANCH  13  14
ATOM     14  C   UNL     1      28.882  16.607  14.620  0.00  0.00    +0.011 A 
ATOM     15  C   UNL     1      27.801  16.051  13.931  0.00  0.00    +0.010 A 
ATOM     16  C   UNL     1      28.030  15.289  12.787  0.00  0.00    +0.020 A 
ATOM     17  C   UNL     1      29.337  15.107  12.366  0.00  0.00    +0.111 A 
ATOM     18  N   UNL     1      30.408  15.616  13.008  0.00  0.00    -0.263 NA
ATOM     19  C   UNL     1      30.157  16.353  14.112  0.00  0.00    +0.118 A 
ENDBRANCH  13  14
BRANCH  13  20
ATOM     20  C   UNL     1      29.459  16.877  16.985  0.00  0.00    +0.034 C 
ATOM     21  C   UNL     1      28.703  16.066  18.010  0.00  0.00    +0.008 C 
ATOM     22  C   UNL     1      29.340  17.368  18.411  0.00  0.00    +0.008 C 
ENDBRANCH  13  20
ENDBRANCH  12  13
ENDBRANCH   5  12
TORSDOF 5
ENDMDL
MODEL 2
REMARK VINA RESULT:      -7.4      2.356      6.366
REMARK  Name = ZINC001228612316
REMARK  5 active torsions:
REMARK  status: ('A' for Active; 'I' for Inactive)
REMARK    1  A    between atoms: C_2  and  C_4
REMARK    2  A    between atoms: C_8  and  O_9
REMARK    3  A    between atoms: O_9  and  C_10
REMARK    4  A    between atoms: C_10  and  C_11
REMARK    5  A    between atoms: C_10  and  C_17
REMARK                            x       y       z     vdW  Elec       q    Type
REMARK                         _______ _______ _______ _____ _____    ______ ____
ROOT
ATOM      1  C   UNL     1      30.632  15.558  12.912  0.00  0.00    +0.040 A 
ATOM      2  C   UNL     1      29.956  14.915  11.869  0.00  0.00    +0.013 A 
ATOM      3  C   UNL     1      28.562  14.938  11.820  0.00  0.00    +0.004 A 
ATOM      4  C   UNL     1      27.834  15.602  12.811  0.00  0.00    +0.046 A 
ATOM      5  C   UNL     1      28.497  16.243  13.858  0.00  0.00    +0.122 A 
ATOM      6  C   UNL     1      29.897  16.221  13.902  0.00  0.00    +0.058 A 
ENDROOT
BRANCH   1   8
ATOM      7  N   UNL     1      32.721  14.301  13.065  0.00  0.00    -0.325 N 
ATOM      8  C   UNL     1      32.120  15.521  12.909  0.00  0.00    +0.242 C 
ATOM      9  O   UNL     1      32.790  16.532  12.738  0.00  0.00    -0.270 OA
ATOM     10  H   UNL     1      33.727  14.284  12.954  0.00  0.00    +0.145 HD
ATOM     11  H   UNL     1      32.224  13.430  12.968  0.00  0.00    +0.145 HD
ENDBRANCH   1   8
BRANCH   5  12
ATOM     12  O   UNL     1      27.896  16.862  14.920  0.00  0.00    -0.484 OA
BRANCH  12  13
ATOM     13  C   UNL     1      28.710  17.617  15.833  0.00  0.00    +0.208 C 
BRANCH  13  14
ATOM     14  C   UNL     1      28.120  18.969  16.185  0.00  0.00    +0.011 A 
ATOM     15  C   UNL     1      26.830  19.133  16.697  0.00  0.00    +0.010 A 
ATOM     16  C   UNL     1      26.396  20.401  17.078  0.00  0.00    +0.020 A 
ATOM     17  C   UNL     1      27.269  21.467  16.938  0.00  0.00    +0.111 A 
ATOM     18  N   UNL     1      28.517  21.353  16.439  0.00  0.00    -0.263 NA
ATOM     19  C   UNL     1      28.912  20.112  16.080  0.00  0.00    +0.118 A 
ENDBRANCH  13  14
BRANCH  13  20
ATOM     20  C   UNL     1      28.865  16.837  17.134  0.00  0.00    +0.034 C 
ATOM     21  C   UNL     1      29.443  17.500  18.362  0.00  0.00    +0.008 C 
ATOM     22  C   UNL     1      30.206  16.398  17.680  0.00  0.00    +0.008 C 
ENDBRANCH  13  20
ENDBRANCH  12  13
ENDBRANCH   5  12
TORSDOF 5
ENDMDL
MODEL 3
REMARK VINA RESULT:      -7.3      1.664      2.072
REMARK  Name = ZINC001228612316
REMARK  5 active torsions:
REMARK  status: ('A' for Active; 'I' for Inactive)
REMARK    1  A    between atoms: C_2  and  C_4
REMARK    2  A    between atoms: C_8  and  O_9
REMARK    3  A    between atoms: O_9  and  C_10
REMARK    4  A    between atoms: C_10  and  C_11
REMARK    5  A    between atoms: C_10  and  C_17
REMARK                            x       y       z     vdW  Elec       q    Type
REMARK                         _______ _______ _______ _____ _____    ______ ____
ROOT
ATOM      1  C   UNL     1      27.813  21.050  16.611  0.00  0.00    +0.040 A 
ATOM      2  C   UNL     1      26.696  20.310  17.013  0.00  0.00    +0.013 A 
ATOM      3  C   UNL     1      26.621  18.947  16.727  0.00  0.00    +0.004 A 
ATOM      4  C   UNL     1      27.660  18.313  16.039  0.00  0.00    +0.046 A 
ATOM      5  C   UNL     1      28.776  19.042  15.630  0.00  0.00    +0.122 A 
ATOM      6  C   UNL     1      28.850  20.410  15.921  0.00  0.00    +0.058 A 
ENDROOT
BRANCH   1   8
ATOM      7  N   UNL     1      29.070  23.124  16.906  0.00  0.00    -0.325 N 
ATOM      8  C   UNL     1      27.855  22.497  16.956  0.00  0.00    +0.242 C 
ATOM      9  O   UNL     1      26.839  23.122  17.238  0.00  0.00    -0.270 OA
ATOM     10  H   UNL     1      29.059  24.128  17.039  0.00  0.00    +0.145 HD
ATOM     11  H   UNL     1      29.876  22.720  16.455  0.00  0.00    +0.145 HD
ENDBRANCH   1   8
BRANCH   5  12
ATOM     12  O   UNL     1      29.819  18.553  14.890  0.00  0.00    -0.484 OA
BRANCH  12  13
ATOM     13  C   UNL     1      30.245  17.198  15.104  0.00  0.00    +0.208 C 
BRANCH  13  14
ATOM     14  C   UNL     1      29.960  16.286  13.926  0.00  0.00    +0.011 A 
ATOM     15  C   UNL     1      28.668  15.947  13.514  0.00  0.00    +0.010 A 
ATOM     16  C   UNL     1      28.491  15.175  12.368  0.00  0.00    +0.020 A 
ATOM     17  C   UNL     1      29.614  14.768  11.666  0.00  0.00    +0.111 A 
ATOM     18  N   UNL     1      30.876  15.066  12.035  0.00  0.00    -0.263 NA
ATOM     19  C   UNL     1      31.018  15.816  13.149  0.00  0.00    +0.118 A 
ENDBRANCH  13  14
BRANCH  13  20
ATOM     20  C   UNL     1      31.752  17.174  15.340  0.00  0.00    +0.034 C 
ATOM     21  C   UNL     1      32.324  16.528  16.579  0.00  0.00    +0.008 C 
ATOM     22  C   UNL     1      32.436  18.016  16.394  0.00  0.00    +0.008 C 
ENDBRANCH  13  20
ENDBRANCH  12  13
ENDBRANCH   5  12
TORSDOF 5
ENDMDL
MODEL 4
REMARK VINA RESULT:      -7.3      1.981      6.836
REMARK  Name = ZINC001228612316
REMARK  5 active torsions:
REMARK  status: ('A' for Active; 'I' for Inactive)
REMARK    1  A    between atoms: C_2  and  C_4
REMARK    2  A    between atoms: C_8  and  O_9
REMARK    3  A    between atoms: O_9  and  C_10
REMARK    4  A    between atoms: C_10  and  C_11
REMARK    5  A    between atoms: C_10  and  C_17
REMARK                            x       y       z     vdW  Elec       q    Type
REMARK                         _______ _______ _______ _____ _____    ______ ____
ROOT
ATOM      1  C   UNL     1      29.732  15.393  12.773  0.00  0.00    +0.040 A 
ATOM      2  C   UNL     1      31.120  15.378  12.950  0.00  0.00    +0.013 A 
ATOM      3  C   UNL     1      31.711  16.203  13.907  0.00  0.00    +0.004 A 
ATOM      4  C   UNL     1      30.922  17.047  14.694  0.00  0.00    +0.046 A 
ATOM      5  C   UNL     1      29.538  17.074  14.523  0.00  0.00    +0.122 A 
ATOM      6  C   UNL     1      28.947  16.242  13.563  0.00  0.00    +0.058 A 
ENDROOT
BRANCH   1   8
ATOM      7  N   UNL     1      28.957  13.174  12.107  0.00  0.00    -0.325 N 
ATOM      8  C   UNL     1      29.147  14.482  11.752  0.00  0.00    +0.242 C 
ATOM      9  O   UNL     1      28.810  14.886  10.646  0.00  0.00    -0.270 OA
ATOM     10  H   UNL     1      28.462  12.599  11.437  0.00  0.00    +0.145 HD
ATOM     11  H   UNL     1      28.993  12.856  13.063  0.00  0.00    +0.145 HD
ENDBRANCH   1   8
BRANCH   5  12
ATOM     12  O   UNL     1      28.670  17.905  15.178  0.00  0.00    -0.484 OA
BRANCH  12  13
ATOM     13  C   UNL     1      29.063  18.457  16.445  0.00  0.00    +0.208 C 
BRANCH  13  14
ATOM     14  C   UNL     1      28.611  19.892  16.640  0.00  0.00    +0.011 A 
ATOM     15  C   UNL     1      27.277  20.255  16.845  0.00  0.00    +0.010 A 
ATOM     16  C   UNL     1      26.957  21.586  17.104  0.00  0.00    +0.020 A 
ATOM     17  C   UNL     1      27.984  22.514  17.153  0.00  0.00    +0.111 A 
ATOM     18  N   UNL     1      29.281  22.207  16.952  0.00  0.00    -0.263 NA
ATOM     19  C   UNL     1      29.563  20.909  16.704  0.00  0.00    +0.118 A 
ENDBRANCH  13  14
BRANCH  13  20
ATOM     20  C   UNL     1      28.445  17.631  17.569  0.00  0.00    +0.034 C 
ATOM     21  C   UNL     1      29.155  17.487  18.894  0.00  0.00    +0.008 C 
ATOM     22  C   UNL     1      28.990  16.288  18.002  0.00  0.00    +0.008 C 
ENDBRANCH  13  20
ENDBRANCH  12  13
ENDBRANCH   5  12
TORSDOF 5
ENDMDL
MODEL 5
REMARK VINA RESULT:      -7.2      1.487      2.140
REMARK  Name = ZINC001228612316
REMARK  5 active torsions:
REMARK  status: ('A' for Active; 'I' for Inactive)
REMARK    1  A    between atoms: C_2  and  C_4
REMARK    2  A    between atoms: C_8  and  O_9
REMARK    3  A    between atoms: O_9  and  C_10
REMARK    4  A    between atoms: C_10  and  C_11
REMARK    5  A    between atoms: C_10  and  C_17
REMARK                            x       y       z     vdW  Elec       q    Type
REMARK                         _______ _______ _______ _____ _____    ______ ____
ROOT
ATOM      1  C   UNL     1      28.825  21.600  16.558  0.00  0.00    +0.040 A 
ATOM      2  C   UNL     1      29.811  22.582  16.409  0.00  0.00    +0.013 A 
ATOM      3  C   UNL     1      31.072  22.238  15.922  0.00  0.00    +0.004 A 
ATOM      4  C   UNL     1      31.357  20.913  15.580  0.00  0.00    +0.046 A 
ATOM      5  C   UNL     1      30.384  19.925  15.728  0.00  0.00    +0.122 A 
ATOM      6  C   UNL     1      29.118  20.274  16.215  0.00  0.00    +0.058 A 
ENDROOT
BRANCH   1   8
ATOM      7  N   UNL     1      27.287  23.357  17.278  0.00  0.00    -0.325 N 
ATOM      8  C   UNL     1      27.490  22.020  17.065  0.00  0.00    +0.242 C 
ATOM      9  O   UNL     1      26.588  21.213  17.251  0.00  0.00    -0.270 OA
ATOM     10  H   UNL     1      26.343  23.631  17.520  0.00  0.00    +0.145 HD
ATOM     11  H   UNL     1      27.904  24.068  16.917  0.00  0.00    +0.145 HD
ENDBRANCH   1   8
BRANCH   5  12
ATOM     12  O   UNL     1      30.564  18.589  15.498  0.00  0.00    -0.484 OA
BRANCH  12  13
ATOM     13  C   UNL     1      29.478  17.687  15.766  0.00  0.00    +0.208 C 
BRANCH  13  14
ATOM     14  C   UNL     1      29.229  16.697  14.645  0.00  0.00    +0.011 A 
ATOM     15  C   UNL     1      27.951  16.325  14.219  0.00  0.00    +0.010 A 
ATOM     16  C   UNL     1      27.808  15.477  13.123  0.00  0.00    +0.020 A 
ATOM     17  C   UNL     1      28.952  15.029  12.483  0.00  0.00    +0.111 A 
ATOM     18  N   UNL     1      30.203  15.356  12.867  0.00  0.00    -0.263 NA
ATOM     19  C   UNL     1      30.311  16.180  13.932  0.00  0.00    +0.118 A 
ENDBRANCH  13  14
BRANCH  13  20
ATOM     20  C   UNL     1      29.792  16.879  17.022  0.00  0.00    +0.034 C 
ATOM     21  C   UNL     1      28.681  16.244  17.823  0.00  0.00    +0.008 C 
ATOM     22  C   UNL     1      29.482  17.369  18.419  0.00  0.00    +0.008 C 
ENDBRANCH  13  20
ENDBRANCH  12  13
ENDBRANCH   5  12
TORSDOF 5
ENDMDL
MODEL 6
REMARK VINA RESULT:      -7.0      2.308      6.684
REMARK  Name = ZINC001228612316
REMARK  5 active torsions:
REMARK  status: ('A' for Active; 'I' for Inactive)
REMARK    1  A    between atoms: C_2  and  C_4
REMARK    2  A    between atoms: C_8  and  O_9
REMARK    3  A    between atoms: O_9  and  C_10
REMARK    4  A    between atoms: C_10  and  C_11
REMARK    5  A    between atoms: C_10  and  C_17
REMARK                            x       y       z     vdW  Elec       q    Type
REMARK                         _______ _______ _______ _____ _____    ______ ____
ROOT
ATOM      1  C   UNL     1      29.809  15.362  12.724  0.00  0.00    +0.040 A 
ATOM      2  C   UNL     1      28.464  15.102  12.439  0.00  0.00    +0.013 A 
ATOM      3  C   UNL     1      27.463  15.612  13.267  0.00  0.00    +0.004 A 
ATOM      4  C   UNL     1      27.797  16.383  14.383  0.00  0.00    +0.046 A 
ATOM      5  C   UNL     1      29.135  16.644  14.680  0.00  0.00    +0.122 A 
ATOM      6  C   UNL     1      30.138  16.133  13.845  0.00  0.00    +0.058 A 
ENDROOT
BRANCH   1   8
ATOM      7  N   UNL     1      31.030  13.456  11.804  0.00  0.00    -0.325 N 
ATOM      8  C   UNL     1      30.838  14.811  11.801  0.00  0.00    +0.242 C 
ATOM      9  O   UNL     1      31.468  15.531  11.035  0.00  0.00    -0.270 OA
ATOM     10  H   UNL     1      31.656  13.094  11.096  0.00  0.00    +0.145 HD
ATOM     11  H   UNL     1      30.381  12.813  12.231  0.00  0.00    +0.145 HD
ENDBRANCH   1   8
BRANCH   5  12
ATOM     12  O   UNL     1      29.590  17.321  15.778  0.00  0.00    -0.484 OA
BRANCH  12  13
ATOM     13  C   UNL     1      30.123  18.645  15.605  0.00  0.00    +0.208 C 
BRANCH  13  14
ATOM     14  C   UNL     1      29.164  19.738  16.034  0.00  0.00    +0.011 A 
ATOM     15  C   UNL     1      27.855  19.489  16.457  0.00  0.00    +0.010 A 
ATOM     16  C   UNL     1      27.067  20.541  16.918  0.00  0.00    +0.020 A 
ATOM     17  C   UNL     1      27.616  21.813  16.945  0.00  0.00    +0.111 A 
ATOM     18  N   UNL     1      28.869  22.097  16.538  0.00  0.00    -0.263 NA
ATOM     19  C   UNL     1      29.611  21.058  16.097  0.00  0.00    +0.118 A 
ENDBRANCH  13  14
BRANCH  13  20
ATOM     20  C   UNL     1      31.386  18.794  16.448  0.00  0.00    +0.034 C 
ATOM     21  C   UNL     1      32.720  19.050  15.790  0.00  0.00    +0.008 C 
ATOM     22  C   UNL     1      32.475  17.745  16.497  0.00  0.00    +0.008 C 
ENDBRANCH  13  20
ENDBRANCH  12  13
ENDBRANCH   5  12
TORSDOF 5
ENDMDL
MODEL 7
REMARK VINA RESULT:      -7.0      2.383      6.891
REMARK  Name = ZINC001228612316
REMARK  5 active torsions:
REMARK  status: ('A' for Active; 'I' for Inactive)
REMARK    1  A    between atoms: C_2  and  C_4
REMARK    2  A    between atoms: C_8  and  O_9
REMARK    3  A    between atoms: O_9  and  C_10
REMARK    4  A    between atoms: C_10  and  C_11
REMARK    5  A    between atoms: C_10  and  C_17
REMARK                            x       y       z     vdW  Elec       q    Type
REMARK                         _______ _______ _______ _____ _____    ______ ____
ROOT
ATOM      1  C   UNL     1      29.659  15.370  12.933  0.00  0.00    +0.040 A 
ATOM      2  C   UNL     1      28.283  15.114  12.951  0.00  0.00    +0.013 A 
ATOM      3  C   UNL     1      27.471  15.723  13.907  0.00  0.00    +0.004 A 
ATOM      4  C   UNL     1      28.025  16.592  14.852  0.00  0.00    +0.046 A 
ATOM      5  C   UNL     1      29.395  16.852  14.847  0.00  0.00    +0.122 A 
ATOM      6  C   UNL     1      30.208  16.240  13.884  0.00  0.00    +0.058 A 
ENDROOT
BRANCH   1   8
ATOM      7  N   UNL     1      30.655  13.356  11.975  0.00  0.00    -0.325 N 
ATOM      8  C   UNL     1      30.480  14.711  11.883  0.00  0.00    +0.242 C 
ATOM      9  O   UNL     1      30.955  15.341  10.945  0.00  0.00    -0.270 OA
ATOM     10  H   UNL     1      31.125  12.914  11.195  0.00  0.00    +0.145 HD
ATOM     11  H   UNL     1      30.096  12.772  12.578  0.00  0.00    +0.145 HD
ENDBRANCH   1   8
BRANCH   5  12
ATOM     12  O   UNL     1      30.063  17.622  15.759  0.00  0.00    -0.484 OA
BRANCH  12  13
ATOM     13  C   UNL     1      30.394  18.977  15.413  0.00  0.00    +0.208 C 
BRANCH  13  14
ATOM     14  C   UNL     1      29.692  20.005  16.278  0.00  0.00    +0.011 A 
ATOM     15  C   UNL     1      28.793  20.948  15.773  0.00  0.00    +0.010 A 
ATOM     16  C   UNL     1      28.123  21.801  16.649  0.00  0.00    +0.020 A 
ATOM     17  C   UNL     1      28.372  21.681  18.006  0.00  0.00    +0.111 A 
ATOM     18  N   UNL     1      29.238  20.792  18.533  0.00  0.00    -0.263 NA
ATOM     19  C   UNL     1      29.872  19.977  17.662  0.00  0.00    +0.118 A 
ENDBRANCH  13  14
BRANCH  13  20
ATOM     20  C   UNL     1      31.894  19.189  15.584  0.00  0.00    +0.034 C 
ATOM     21  C   UNL     1      32.557  20.438  15.052  0.00  0.00    +0.008 C 
ATOM     22  C   UNL     1      32.877  19.103  14.437  0.00  0.00    +0.008 C 
ENDBRANCH  13  20
ENDBRANCH  12  13
ENDBRANCH   5  12
TORSDOF 5
ENDMDL
MODEL 8
REMARK VINA RESULT:      -6.8      1.849      3.015
REMARK  Name = ZINC001228612316
REMARK  5 active torsions:
REMARK  status: ('A' for Active; 'I' for Inactive)
REMARK    1  A    between atoms: C_2  and  C_4
REMARK    2  A    between atoms: C_8  and  O_9
REMARK    3  A    between atoms: O_9  and  C_10
REMARK    4  A    between atoms: C_10  and  C_11
REMARK    5  A    between atoms: C_10  and  C_17
REMARK                            x       y       z     vdW  Elec       q    Type
REMARK                         _______ _______ _______ _____ _____    ______ ____
ROOT
ATOM      1  C   UNL     1      28.468  20.973  16.591  0.00  0.00    +0.040 A 
ATOM      2  C   UNL     1      27.096  20.919  16.859  0.00  0.00    +0.013 A 
ATOM      3  C   UNL     1      26.428  19.694  16.849  0.00  0.00    +0.004 A 
ATOM      4  C   UNL     1      27.125  18.515  16.572  0.00  0.00    +0.046 A 
ATOM      5  C   UNL     1      28.493  18.556  16.300  0.00  0.00    +0.122 A 
ATOM      6  C   UNL     1      29.160  19.788  16.313  0.00  0.00    +0.058 A 
ENDROOT
BRANCH   1   8
ATOM      7  N   UNL     1      28.441  23.343  17.181  0.00  0.00    -0.325 N 
ATOM      8  C   UNL     1      29.137  22.300  16.631  0.00  0.00    +0.242 C 
ATOM      9  O   UNL     1      30.282  22.458  16.225  0.00  0.00    -0.270 OA
ATOM     10  H   UNL     1      28.953  24.209  17.295  0.00  0.00    +0.145 HD
ATOM     11  H   UNL     1      27.610  23.213  17.736  0.00  0.00    +0.145 HD
ENDBRANCH   1   8
BRANCH   5  12
ATOM     12  O   UNL     1      29.267  17.485  15.945  0.00  0.00    -0.484 OA
BRANCH  12  13
ATOM     13  C   UNL     1      29.506  17.233  14.551  0.00  0.00    +0.208 C 
BRANCH  13  14
ATOM     14  C   UNL     1      30.976  17.090  14.210  0.00  0.00    +0.011 A 
ATOM     15  C   UNL     1      31.556  15.887  13.799  0.00  0.00    +0.010 A 
ATOM     16  C   UNL     1      32.896  15.861  13.419  0.00  0.00    +0.020 A 
ATOM     17  C   UNL     1      33.617  17.043  13.461  0.00  0.00    +0.111 A 
ATOM     18  N   UNL     1      33.098  18.222  13.860  0.00  0.00    -0.263 NA
ATOM     19  C   UNL     1      31.797  18.219  14.221  0.00  0.00    +0.118 A 
ENDBRANCH  13  14
BRANCH  13  20
ATOM     20  C   UNL     1      28.819  15.932  14.148  0.00  0.00    +0.034 C 
ATOM     21  C   UNL     1      28.205  15.782  12.777  0.00  0.00    +0.008 C 
ATOM     22  C   UNL     1      27.320  15.803  13.993  0.00  0.00    +0.008 C 
ENDBRANCH  13  20
ENDBRANCH  12  13
ENDBRANCH   5  12
TORSDOF 5
ENDMDL
MODEL 9
REMARK VINA RESULT:      -6.5      1.811      2.093
REMARK  Name = ZINC001228612316
REMARK  5 active torsions:
REMARK  status: ('A' for Active; 'I' for Inactive)
REMARK    1  A    between atoms: C_2  and  C_4
REMARK    2  A    between atoms: C_8  and  O_9
REMARK    3  A    between atoms: O_9  and  C_10
REMARK    4  A    between atoms: C_10  and  C_11
REMARK    5  A    between atoms: C_10  and  C_17
REMARK                            x       y       z     vdW  Elec       q    Type
REMARK                         _______ _______ _______ _____ _____    ______ ____
ROOT
ATOM      1  C   UNL     1      30.932  22.143  15.135  0.00  0.00    +0.040 A 
ATOM      2  C   UNL     1      30.144  22.693  16.152  0.00  0.00    +0.013 A 
ATOM      3  C   UNL     1      29.510  21.858  17.073  0.00  0.00    +0.004 A 
ATOM      4  C   UNL     1      29.659  20.471  16.986  0.00  0.00    +0.046 A 
ATOM      5  C   UNL     1      30.439  19.912  15.974  0.00  0.00    +0.122 A 
ATOM      6  C   UNL     1      31.077  20.753  15.052  0.00  0.00    +0.058 A 
ENDROOT
BRANCH   1   8
ATOM      7  N   UNL     1      30.837  23.625  13.195  0.00  0.00    -0.325 N 
ATOM      8  C   UNL     1      31.602  23.076  14.189  0.00  0.00    +0.242 C 
ATOM      9  O   UNL     1      32.783  23.377  14.308  0.00  0.00    -0.270 OA
ATOM     10  H   UNL     1      31.285  24.335  12.630  0.00  0.00    +0.145 HD
ATOM     11  H   UNL     1      29.829  23.597  13.202  0.00  0.00    +0.145 HD
ENDBRANCH   1   8
BRANCH   5  12
ATOM     12  O   UNL     1      30.603  18.574  15.741  0.00  0.00    -0.484 OA
BRANCH  12  13
ATOM     13  C   UNL     1      29.488  17.692  15.954  0.00  0.00    +0.208 C 
BRANCH  13  14
ATOM     14  C   UNL     1      29.241  16.746  14.795  0.00  0.00    +0.011 A 
ATOM     15  C   UNL     1      27.964  16.400  14.346  0.00  0.00    +0.010 A 
ATOM     16  C   UNL     1      27.825  15.594  13.218  0.00  0.00    +0.020 A 
ATOM     17  C   UNL     1      28.971  15.160  12.571  0.00  0.00    +0.111 A 
ATOM     18  N   UNL     1      30.220  15.463  12.978  0.00  0.00    -0.263 NA
ATOM     19  C   UNL     1      30.326  16.247  14.073  0.00  0.00    +0.118 A 
ENDBRANCH  13  14
BRANCH  13  20
ATOM     20  C   UNL     1      29.751  16.836  17.189  0.00  0.00    +0.034 C 
ATOM     21  C   UNL     1      28.606  16.190  17.932  0.00  0.00    +0.008 C 
ATOM     22  C   UNL     1      29.403  17.282  18.592  0.00  0.00    +0.008 C 
ENDBRANCH  13  20
ENDBRANCH  12  13
ENDBRANCH   5  12
TORSDOF 5
ENDMDL
