MODEL 1
REMARK VINA RESULT:      -7.6      0.000      0.000
REMARK  Name = ZINC000329563636
REMARK  3 active torsions:
REMARK  status: ('A' for Active; 'I' for Inactive)
REMARK    1  A    between atoms: C_1  and  C_2
REMARK    2  A    between atoms: C_2  and  N_3
REMARK    3  A    between atoms: N_9  and  C_10
REMARK                            x       y       z     vdW  Elec       q    Type
REMARK                         _______ _______ _______ _____ _____    ______ ____
ROOT
ATOM      1  C   UNL     1      10.937   4.870   8.287  0.00  0.00    +0.112 C 
ATOM      2  C   UNL     1      11.974   4.092   7.471  0.00  0.00    +0.075 C 
ATOM      3  C   UNL     1      13.224   3.661   8.253  0.00  0.00    +0.113 C 
ATOM      4  C   UNL     1      13.072   2.336   9.044  0.00  0.00    +0.048 C 
ATOM      5  C   UNL     1      13.976   1.319   8.356  0.00  0.00    +0.004 C 
ATOM      6  C   UNL     1      15.093   2.158   7.767  0.00  0.00    +0.004 C 
ATOM      7  C   UNL     1      14.360   3.377   7.237  0.00  0.00    +0.048 C 
ATOM      8  O   UNL     1      13.691   4.702   9.131  0.00  0.00    -0.485 OA
ATOM      9  C   UNL     1      12.739   5.119  10.024  0.00  0.00    +0.126 A 
ATOM     10  C   UNL     1      13.165   5.478  11.301  0.00  0.00    +0.046 A 
ATOM     11  C   UNL     1      12.234   5.872  12.263  0.00  0.00    +0.004 A 
ATOM     12  C   UNL     1      10.879   5.926  11.941  0.00  0.00    +0.001 A 
ATOM     13  C   UNL     1      10.460   5.597  10.653  0.00  0.00    +0.009 A 
ATOM     14  C   UNL     1      11.391   5.189   9.682  0.00  0.00    +0.015 A 
ENDROOT
BRANCH   1  21
ATOM     15  N   UNL     1       8.594  10.456   6.582  0.00  0.00    -0.299 N 
ATOM     16  C   UNL     1       7.596   9.496   7.051  0.00  0.00    +0.127 C 
ATOM     17  C   UNL     1       7.772   8.122   6.412  0.00  0.00    +0.129 C 
ATOM     18  N   UNL     1       9.126   7.652   6.667  0.00  0.00    -0.275 N 
ATOM     19  C   UNL     1       9.308   6.478   7.361  0.00  0.00    +0.303 C 
ATOM     20  O   UNL     1       8.367   5.801   7.773  0.00  0.00    -0.253 OA
ATOM     21  N   UNL     1      10.603   6.118   7.601  0.00  0.00    -0.292 N 
ATOM     22  C   UNL     1      10.179   8.547   6.179  0.00  0.00    +0.205 C 
ATOM     23  C   UNL     1       9.838  10.050   6.110  0.00  0.00    +0.233 C 
ATOM     24  O   UNL     1      10.662  10.848   5.661  0.00  0.00    -0.274 OA
ATOM     25  H   UNL     1      11.313   6.462   6.977  0.00  0.00    +0.151 HD
BRANCH  15  27
ATOM     26  C   UNL     1       6.847  12.136   7.058  0.00  0.00    +0.024 C 
ATOM     27  C   UNL     1       8.308  11.879   6.733  0.00  0.00    +0.104 C 
ENDBRANCH  15  27
ENDBRANCH   1  21
TORSDOF 2
ENDMDL
MODEL 2
REMARK VINA RESULT:      -7.4      2.536      4.181
REMARK  Name = ZINC000329563636
REMARK  3 active torsions:
REMARK  status: ('A' for Active; 'I' for Inactive)
REMARK    1  A    between atoms: C_1  and  C_2
REMARK    2  A    between atoms: C_2  and  N_3
REMARK    3  A    between atoms: N_9  and  C_10
REMARK                            x       y       z     vdW  Elec       q    Type
REMARK                         _______ _______ _______ _____ _____    ______ ____
ROOT
ATOM      1  C   UNL     1      14.218   4.804   7.482  0.00  0.00    +0.112 C 
ATOM      2  C   UNL     1      15.328   5.586   8.191  0.00  0.00    +0.075 C 
ATOM      3  C   UNL     1      16.117   4.786   9.238  0.00  0.00    +0.113 C 
ATOM      4  C   UNL     1      17.284   3.940   8.667  0.00  0.00    +0.048 C 
ATOM      5  C   UNL     1      18.569   4.585   9.173  0.00  0.00    +0.004 C 
ATOM      6  C   UNL     1      18.172   5.208  10.497  0.00  0.00    +0.004 C 
ATOM      7  C   UNL     1      16.801   5.790  10.202  0.00  0.00    +0.048 C 
ATOM      8  O   UNL     1      15.255   3.953  10.036  0.00  0.00    -0.485 OA
ATOM      9  C   UNL     1      14.511   3.079   9.287  0.00  0.00    +0.126 A 
ATOM     10  C   UNL     1      14.263   1.818   9.826  0.00  0.00    +0.046 A 
ATOM     11  C   UNL     1      13.545   0.874   9.091  0.00  0.00    +0.004 A 
ATOM     12  C   UNL     1      13.058   1.197   7.827  0.00  0.00    +0.001 A 
ATOM     13  C   UNL     1      13.281   2.471   7.305  0.00  0.00    +0.009 A 
ATOM     14  C   UNL     1      14.012   3.424   8.034  0.00  0.00    +0.015 A 
ENDROOT
BRANCH   1  21
ATOM     15  N   UNL     1       8.928   8.006   6.310  0.00  0.00    -0.299 N 
ATOM     16  C   UNL     1      10.106   8.494   5.593  0.00  0.00    +0.127 C 
ATOM     17  C   UNL     1      11.317   8.644   6.508  0.00  0.00    +0.129 C 
ATOM     18  N   UNL     1      11.579   7.369   7.159  0.00  0.00    -0.275 N 
ATOM     19  C   UNL     1      12.795   6.754   6.963  0.00  0.00    +0.303 C 
ATOM     20  O   UNL     1      13.678   7.244   6.261  0.00  0.00    -0.253 OA
ATOM     21  N   UNL     1      12.958   5.542   7.569  0.00  0.00    -0.292 N 
ATOM     22  C   UNL     1      10.453   6.843   7.936  0.00  0.00    +0.205 C 
ATOM     23  C   UNL     1       9.039   7.244   7.468  0.00  0.00    +0.233 C 
ATOM     24  O   UNL     1       8.052   6.877   8.109  0.00  0.00    -0.274 OA
ATOM     25  H   UNL     1      12.407   5.344   8.388  0.00  0.00    +0.151 HD
BRANCH  15  27
ATOM     26  C   UNL     1       7.700   8.458   4.215  0.00  0.00    +0.024 C 
ATOM     27  C   UNL     1       7.615   8.230   5.715  0.00  0.00    +0.104 C 
ENDBRANCH  15  27
ENDBRANCH   1  21
TORSDOF 2
ENDMDL
MODEL 3
REMARK VINA RESULT:      -6.9     23.871     26.005
REMARK  Name = ZINC000329563636
REMARK  3 active torsions:
REMARK  status: ('A' for Active; 'I' for Inactive)
REMARK    1  A    between atoms: C_1  and  C_2
REMARK    2  A    between atoms: C_2  and  N_3
REMARK    3  A    between atoms: N_9  and  C_10
REMARK                            x       y       z     vdW  Elec       q    Type
REMARK                         _______ _______ _______ _____ _____    ______ ____
ROOT
ATOM      1  C   UNL     1      30.310  20.779  15.414  0.00  0.00    +0.112 C 
ATOM      2  C   UNL     1      30.630  20.842  16.911  0.00  0.00    +0.075 C 
ATOM      3  C   UNL     1      31.353  22.119  17.366  0.00  0.00    +0.113 C 
ATOM      4  C   UNL     1      30.422  23.321  17.668  0.00  0.00    +0.048 C 
ATOM      5  C   UNL     1      30.492  23.551  19.173  0.00  0.00    +0.004 C 
ATOM      6  C   UNL     1      31.881  23.079  19.554  0.00  0.00    +0.004 C 
ATOM      7  C   UNL     1      32.056  21.824  18.716  0.00  0.00    +0.048 C 
ATOM      8  O   UNL     1      32.376  22.516  16.433  0.00  0.00    -0.485 OA
ATOM      9  C   UNL     1      31.898  22.712  15.164  0.00  0.00    +0.126 A 
ATOM     10  C   UNL     1      32.471  23.735  14.411  0.00  0.00    +0.046 A 
ATOM     11  C   UNL     1      31.996  24.006  13.127  0.00  0.00    +0.004 A 
ATOM     12  C   UNL     1      30.963  23.242  12.589  0.00  0.00    +0.001 A 
ATOM     13  C   UNL     1      30.415  22.198  13.335  0.00  0.00    +0.009 A 
ATOM     14  C   UNL     1      30.880  21.926  14.632  0.00  0.00    +0.015 A 
ENDROOT
BRANCH   1  21
ATOM     15  N   UNL     1      30.965  15.135  12.710  0.00  0.00    -0.299 N 
ATOM     16  C   UNL     1      29.913  15.204  13.724  0.00  0.00    +0.127 C 
ATOM     17  C   UNL     1      30.389  15.887  15.002  0.00  0.00    +0.129 C 
ATOM     18  N   UNL     1      30.900  17.209  14.671  0.00  0.00    -0.275 N 
ATOM     19  C   UNL     1      30.311  18.316  15.239  0.00  0.00    +0.303 C 
ATOM     20  O   UNL     1      29.369  18.234  16.025  0.00  0.00    -0.253 OA
ATOM     21  N   UNL     1      30.813  19.526  14.853  0.00  0.00    -0.292 N 
ATOM     22  C   UNL     1      31.991  17.209  13.693  0.00  0.00    +0.205 C 
ATOM     23  C   UNL     1      32.013  16.048  12.676  0.00  0.00    +0.233 C 
ATOM     24  O   UNL     1      32.933  15.963  11.860  0.00  0.00    -0.274 OA
ATOM     25  H   UNL     1      31.762  19.560  14.521  0.00  0.00    +0.151 HD
BRANCH  15  27
ATOM     26  C   UNL     1      29.378  13.899  11.277  0.00  0.00    +0.024 C 
ATOM     27  C   UNL     1      30.831  14.150  11.642  0.00  0.00    +0.104 C 
ENDBRANCH  15  27
ENDBRANCH   1  21
TORSDOF 2
ENDMDL
MODEL 4
REMARK VINA RESULT:      -6.8      2.104      4.287
REMARK  Name = ZINC000329563636
REMARK  3 active torsions:
REMARK  status: ('A' for Active; 'I' for Inactive)
REMARK    1  A    between atoms: C_1  and  C_2
REMARK    2  A    between atoms: C_2  and  N_3
REMARK    3  A    between atoms: N_9  and  C_10
REMARK                            x       y       z     vdW  Elec       q    Type
REMARK                         _______ _______ _______ _____ _____    ______ ____
ROOT
ATOM      1  C   UNL     1      12.525   6.644   7.524  0.00  0.00    +0.112 C 
ATOM      2  C   UNL     1      12.646   6.435   9.036  0.00  0.00    +0.075 C 
ATOM      3  C   UNL     1      13.291   5.106   9.458  0.00  0.00    +0.113 C 
ATOM      4  C   UNL     1      14.841   5.116   9.487  0.00  0.00    +0.048 C 
ATOM      5  C   UNL     1      15.244   5.003  10.953  0.00  0.00    +0.004 C 
ATOM      6  C   UNL     1      14.111   4.220  11.587  0.00  0.00    +0.004 C 
ATOM      7  C   UNL     1      12.878   4.808  10.922  0.00  0.00    +0.048 C 
ATOM      8  O   UNL     1      12.826   4.006   8.654  0.00  0.00    -0.485 OA
ATOM      9  C   UNL     1      13.042   4.192   7.314  0.00  0.00    +0.126 A 
ATOM     10  C   UNL     1      13.366   3.071   6.552  0.00  0.00    +0.046 A 
ATOM     11  C   UNL     1      13.636   3.208   5.189  0.00  0.00    +0.004 A 
ATOM     12  C   UNL     1      13.562   4.461   4.586  0.00  0.00    +0.001 A 
ATOM     13  C   UNL     1      13.206   5.575   5.345  0.00  0.00    +0.009 A 
ATOM     14  C   UNL     1      12.943   5.447   6.720  0.00  0.00    +0.015 A 
ENDROOT
BRANCH   1  21
ATOM     15  N   UNL     1       7.177   8.223   4.607  0.00  0.00    -0.299 N 
ATOM     16  C   UNL     1       8.331   9.045   4.247  0.00  0.00    +0.127 C 
ATOM     17  C   UNL     1       9.111   9.514   5.472  0.00  0.00    +0.129 C 
ATOM     18  N   UNL     1       9.506   8.352   6.254  0.00  0.00    -0.275 N 
ATOM     19  C   UNL     1      10.844   8.117   6.474  0.00  0.00    +0.303 C 
ATOM     20  O   UNL     1      11.726   8.856   6.039  0.00  0.00    -0.253 OA
ATOM     21  N   UNL     1      11.146   6.988   7.180  0.00  0.00    -0.292 N 
ATOM     22  C   UNL     1       8.391   7.508   6.690  0.00  0.00    +0.205 C 
ATOM     23  C   UNL     1       7.135   7.497   5.793  0.00  0.00    +0.233 C 
ATOM     24  O   UNL     1       6.143   6.848   6.130  0.00  0.00    -0.274 OA
ATOM     25  H   UNL     1      10.449   6.621   7.806  0.00  0.00    +0.151 HD
BRANCH  15  27
ATOM     26  C   UNL     1       6.635   7.853   2.227  0.00  0.00    +0.024 C 
ATOM     27  C   UNL     1       6.102   8.076   3.631  0.00  0.00    +0.104 C 
ENDBRANCH  15  27
ENDBRANCH   1  21
TORSDOF 2
ENDMDL
MODEL 5
REMARK VINA RESULT:      -6.7     32.324     35.540
REMARK  Name = ZINC000329563636
REMARK  3 active torsions:
REMARK  status: ('A' for Active; 'I' for Inactive)
REMARK    1  A    between atoms: C_1  and  C_2
REMARK    2  A    between atoms: C_2  and  N_3
REMARK    3  A    between atoms: N_9  and  C_10
REMARK                            x       y       z     vdW  Elec       q    Type
REMARK                         _______ _______ _______ _____ _____    ______ ____
ROOT
ATOM      1  C   UNL     1      26.187  38.802  12.607  0.00  0.00    +0.112 C 
ATOM      2  C   UNL     1      26.888  39.945  13.348  0.00  0.00    +0.075 C 
ATOM      3  C   UNL     1      28.249  39.582  13.961  0.00  0.00    +0.113 C 
ATOM      4  C   UNL     1      29.449  39.679  12.984  0.00  0.00    +0.048 C 
ATOM      5  C   UNL     1      30.300  40.849  13.465  0.00  0.00    +0.004 C 
ATOM      6  C   UNL     1      30.060  40.888  14.961  0.00  0.00    +0.004 C 
ATOM      7  C   UNL     1      28.571  40.611  15.074  0.00  0.00    +0.048 C 
ATOM      8  O   UNL     1      28.228  38.281  14.578  0.00  0.00    -0.485 OA
ATOM      9  C   UNL     1      27.856  37.283  13.717  0.00  0.00    +0.126 A 
ATOM     10  C   UNL     1      28.469  36.041  13.865  0.00  0.00    +0.046 A 
ATOM     11  C   UNL     1      28.158  35.000  12.990  0.00  0.00    +0.004 A 
ATOM     12  C   UNL     1      27.220  35.195  11.979  0.00  0.00    +0.001 A 
ATOM     13  C   UNL     1      26.585  36.430  11.854  0.00  0.00    +0.009 A 
ATOM     14  C   UNL     1      26.900  37.487  12.725  0.00  0.00    +0.015 A 
ENDROOT
BRANCH   1  21
ATOM     15  N   UNL     1      20.044  37.641  13.328  0.00  0.00    -0.299 N 
ATOM     16  C   UNL     1      20.382  38.396  12.122  0.00  0.00    +0.127 C 
ATOM     17  C   UNL     1      21.338  39.549  12.412  0.00  0.00    +0.129 C 
ATOM     18  N   UNL     1      22.528  39.024  13.065  0.00  0.00    -0.275 N 
ATOM     19  C   UNL     1      23.754  39.201  12.466  0.00  0.00    +0.303 C 
ATOM     20  O   UNL     1      23.888  39.795  11.396  0.00  0.00    -0.253 OA
ATOM     21  N   UNL     1      24.822  38.648  13.111  0.00  0.00    -0.292 N 
ATOM     22  C   UNL     1      22.265  38.295  14.309  0.00  0.00    +0.205 C 
ATOM     23  C   UNL     1      20.894  37.595  14.427  0.00  0.00    +0.233 C 
ATOM     24  O   UNL     1      20.591  37.008  15.468  0.00  0.00    -0.274 OA
ATOM     25  H   UNL     1      24.751  38.501  14.104  0.00  0.00    +0.151 HD
BRANCH  15  27
ATOM     26  C   UNL     1      17.930  37.163  12.144  0.00  0.00    +0.024 C 
ATOM     27  C   UNL     1      18.836  36.823  13.314  0.00  0.00    +0.104 C 
ENDBRANCH  15  27
ENDBRANCH   1  21
TORSDOF 2
ENDMDL
MODEL 6
REMARK VINA RESULT:      -6.7      2.687      7.950
REMARK  Name = ZINC000329563636
REMARK  3 active torsions:
REMARK  status: ('A' for Active; 'I' for Inactive)
REMARK    1  A    between atoms: C_1  and  C_2
REMARK    2  A    between atoms: C_2  and  N_3
REMARK    3  A    between atoms: N_9  and  C_10
REMARK                            x       y       z     vdW  Elec       q    Type
REMARK                         _______ _______ _______ _____ _____    ______ ____
ROOT
ATOM      1  C   UNL     1      10.418   8.392   6.753  0.00  0.00    +0.112 C 
ATOM      2  C   UNL     1      10.708   9.386   5.625  0.00  0.00    +0.075 C 
ATOM      3  C   UNL     1       9.477   9.835   4.823  0.00  0.00    +0.113 C 
ATOM      4  C   UNL     1       8.684  11.009   5.452  0.00  0.00    +0.048 C 
ATOM      5  C   UNL     1       8.885  12.206   4.529  0.00  0.00    +0.004 C 
ATOM      6  C   UNL     1       9.083  11.586   3.160  0.00  0.00    +0.004 C 
ATOM      7  C   UNL     1       9.960  10.382   3.455  0.00  0.00    +0.048 C 
ATOM      8  O   UNL     1       8.586   8.737   4.551  0.00  0.00    -0.485 OA
ATOM      9  C   UNL     1       8.161   8.096   5.684  0.00  0.00    +0.126 A 
ATOM     10  C   UNL     1       6.856   7.608   5.698  0.00  0.00    +0.046 A 
ATOM     11  C   UNL     1       6.356   6.983   6.841  0.00  0.00    +0.004 A 
ATOM     12  C   UNL     1       7.168   6.827   7.963  0.00  0.00    +0.001 A 
ATOM     13  C   UNL     1       8.484   7.289   7.934  0.00  0.00    +0.009 A 
ATOM     14  C   UNL     1       8.990   7.930   6.790  0.00  0.00    +0.015 A 
ENDROOT
BRANCH   1  21
ATOM     15  N   UNL     1      14.107   3.389   7.740  0.00  0.00    -0.299 N 
ATOM     16  C   UNL     1      14.430   4.554   8.563  0.00  0.00    +0.127 C 
ATOM     17  C   UNL     1      14.494   5.840   7.743  0.00  0.00    +0.129 C 
ATOM     18  N   UNL     1      13.232   6.016   7.040  0.00  0.00    -0.275 N 
ATOM     19  C   UNL     1      12.482   7.144   7.283  0.00  0.00    +0.303 C 
ATOM     20  O   UNL     1      12.839   8.018   8.071  0.00  0.00    -0.253 OA
ATOM     21  N   UNL     1      11.291   7.225   6.621  0.00  0.00    -0.292 N 
ATOM     22  C   UNL     1      12.869   4.902   6.159  0.00  0.00    +0.205 C 
ATOM     23  C   UNL     1      13.396   3.506   6.551  0.00  0.00    +0.233 C 
ATOM     24  O   UNL     1      13.169   2.537   5.823  0.00  0.00    -0.274 OA
ATOM     25  H   UNL     1      11.194   6.718   5.757  0.00  0.00    +0.151 HD
BRANCH  15  27
ATOM     26  C   UNL     1      14.081   1.918   9.724  0.00  0.00    +0.024 C 
ATOM     27  C   UNL     1      14.441   2.066   8.256  0.00  0.00    +0.104 C 
ENDBRANCH  15  27
ENDBRANCH   1  21
TORSDOF 2
ENDMDL
MODEL 7
REMARK VINA RESULT:      -6.5     25.585     27.256
REMARK  Name = ZINC000329563636
REMARK  3 active torsions:
REMARK  status: ('A' for Active; 'I' for Inactive)
REMARK    1  A    between atoms: C_1  and  C_2
REMARK    2  A    between atoms: C_2  and  N_3
REMARK    3  A    between atoms: N_9  and  C_10
REMARK                            x       y       z     vdW  Elec       q    Type
REMARK                         _______ _______ _______ _____ _____    ______ ____
ROOT
ATOM      1  C   UNL     1      32.090  21.613  14.975  0.00  0.00    +0.112 C 
ATOM      2  C   UNL     1      30.754  22.084  15.559  0.00  0.00    +0.075 C 
ATOM      3  C   UNL     1      29.741  20.966  15.846  0.00  0.00    +0.113 C 
ATOM      4  C   UNL     1      29.921  20.262  17.216  0.00  0.00    +0.048 C 
ATOM      5  C   UNL     1      28.713  20.653  18.061  0.00  0.00    +0.004 C 
ATOM      6  C   UNL     1      27.610  20.876  17.045  0.00  0.00    +0.004 C 
ATOM      7  C   UNL     1      28.327  21.596  15.917  0.00  0.00    +0.048 C 
ATOM      8  O   UNL     1      29.716  19.983  14.794  0.00  0.00    -0.485 OA
ATOM      9  C   UNL     1      30.940  19.415  14.559  0.00  0.00    +0.126 A 
ATOM     10  C   UNL     1      30.969  18.068  14.206  0.00  0.00    +0.046 A 
ATOM     11  C   UNL     1      32.191  17.427  13.995  0.00  0.00    +0.004 A 
ATOM     12  C   UNL     1      33.382  18.139  14.117  0.00  0.00    +0.001 A 
ATOM     13  C   UNL     1      33.347  19.496  14.439  0.00  0.00    +0.009 A 
ATOM     14  C   UNL     1      32.121  20.145  14.664  0.00  0.00    +0.015 A 
ENDROOT
BRANCH   1  21
ATOM     15  N   UNL     1      34.606  23.888   9.674  0.00  0.00    -0.299 N 
ATOM     16  C   UNL     1      35.557  23.714  10.772  0.00  0.00    +0.127 C 
ATOM     17  C   UNL     1      35.030  24.282  12.086  0.00  0.00    +0.129 C 
ATOM     18  N   UNL     1      33.746  23.664  12.388  0.00  0.00    -0.275 N 
ATOM     19  C   UNL     1      33.605  22.949  13.555  0.00  0.00    +0.303 C 
ATOM     20  O   UNL     1      34.523  22.813  14.363  0.00  0.00    -0.253 OA
ATOM     21  N   UNL     1      32.389  22.363  13.755  0.00  0.00    -0.292 N 
ATOM     22  C   UNL     1      32.730  23.842  11.347  0.00  0.00    +0.205 C 
ATOM     23  C   UNL     1      33.239  23.999   9.899  0.00  0.00    +0.233 C 
ATOM     24  O   UNL     1      32.437  24.203   8.984  0.00  0.00    -0.274 OA
ATOM     25  H   UNL     1      31.588  22.767  13.298  0.00  0.00    +0.151 HD
BRANCH  15  27
ATOM     26  C   UNL     1      35.201  22.389   7.804  0.00  0.00    +0.024 C 
ATOM     27  C   UNL     1      35.111  23.819   8.307  0.00  0.00    +0.104 C 
ENDBRANCH  15  27
ENDBRANCH   1  21
TORSDOF 2
ENDMDL
MODEL 8
REMARK VINA RESULT:      -6.5     26.514     28.040
REMARK  Name = ZINC000329563636
REMARK  3 active torsions:
REMARK  status: ('A' for Active; 'I' for Inactive)
REMARK    1  A    between atoms: C_1  and  C_2
REMARK    2  A    between atoms: C_2  and  N_3
REMARK    3  A    between atoms: N_9  and  C_10
REMARK                            x       y       z     vdW  Elec       q    Type
REMARK                         _______ _______ _______ _____ _____    ______ ____
ROOT
ATOM      1  C   UNL     1      31.446  22.949  14.468  0.00  0.00    +0.112 C 
ATOM      2  C   UNL     1      30.442  21.794  14.533  0.00  0.00    +0.075 C 
ATOM      3  C   UNL     1      30.546  20.915  15.789  0.00  0.00    +0.113 C 
ATOM      4  C   UNL     1      29.779  21.453  17.025  0.00  0.00    +0.048 C 
ATOM      5  C   UNL     1      28.623  20.489  17.264  0.00  0.00    +0.004 C 
ATOM      6  C   UNL     1      29.138  19.160  16.750  0.00  0.00    +0.004 C 
ATOM      7  C   UNL     1      29.879  19.549  15.483  0.00  0.00    +0.048 C 
ATOM      8  O   UNL     1      31.916  20.648  16.143  0.00  0.00    -0.485 OA
ATOM      9  C   UNL     1      32.650  21.787  16.344  0.00  0.00    +0.126 A 
ATOM     10  C   UNL     1      33.624  21.759  17.341  0.00  0.00    +0.046 A 
ATOM     11  C   UNL     1      34.374  22.903  17.617  0.00  0.00    +0.004 A 
ATOM     12  C   UNL     1      34.164  24.068  16.882  0.00  0.00    +0.001 A 
ATOM     13  C   UNL     1      33.211  24.082  15.864  0.00  0.00    +0.009 A 
ATOM     14  C   UNL     1      32.444  22.938  15.588  0.00  0.00    +0.015 A 
ENDROOT
BRANCH   1  21
ATOM     15  N   UNL     1      34.849  24.266   9.341  0.00  0.00    -0.299 N 
ATOM     16  C   UNL     1      33.836  25.268   9.672  0.00  0.00    +0.127 C 
ATOM     17  C   UNL     1      32.480  24.639   9.975  0.00  0.00    +0.129 C 
ATOM     18  N   UNL     1      32.639  23.666  11.046  0.00  0.00    -0.275 N 
ATOM     19  C   UNL     1      31.935  23.837  12.216  0.00  0.00    +0.303 C 
ATOM     20  O   UNL     1      31.167  24.782  12.394  0.00  0.00    -0.253 OA
ATOM     21  N   UNL     1      32.162  22.911  13.193  0.00  0.00    -0.292 N 
ATOM     22  C   UNL     1      33.607  22.604  10.761  0.00  0.00    +0.205 C 
ATOM     23  C   UNL     1      34.764  22.957   9.802  0.00  0.00    +0.233 C 
ATOM     24  O   UNL     1      35.583  22.093   9.482  0.00  0.00    -0.274 OA
ATOM     25  H   UNL     1      32.486  22.000  12.916  0.00  0.00    +0.151 HD
BRANCH  15  27
ATOM     26  C   UNL     1      35.863  24.547   7.106  0.00  0.00    +0.024 C 
ATOM     27  C   UNL     1      36.034  24.698   8.608  0.00  0.00    +0.104 C 
ENDBRANCH  15  27
ENDBRANCH   1  21
TORSDOF 2
ENDMDL
MODEL 9
REMARK VINA RESULT:      -6.4      4.342      7.460
REMARK  Name = ZINC000329563636
REMARK  3 active torsions:
REMARK  status: ('A' for Active; 'I' for Inactive)
REMARK    1  A    between atoms: C_1  and  C_2
REMARK    2  A    between atoms: C_2  and  N_3
REMARK    3  A    between atoms: N_9  and  C_10
REMARK                            x       y       z     vdW  Elec       q    Type
REMARK                         _______ _______ _______ _____ _____    ______ ____
ROOT
ATOM      1  C   UNL     1      14.939   4.777   7.777  0.00  0.00    +0.112 C 
ATOM      2  C   UNL     1      13.751   5.717   8.006  0.00  0.00    +0.075 C 
ATOM      3  C   UNL     1      12.633   5.145   8.890  0.00  0.00    +0.113 C 
ATOM      4  C   UNL     1      12.862   5.307  10.415  0.00  0.00    +0.048 C 
ATOM      5  C   UNL     1      11.817   6.304  10.902  0.00  0.00    +0.004 C 
ATOM      6  C   UNL     1      10.651   6.110   9.953  0.00  0.00    +0.004 C 
ATOM      7  C   UNL     1      11.333   5.941   8.606  0.00  0.00    +0.048 C 
ATOM      8  O   UNL     1      12.361   3.765   8.582  0.00  0.00    -0.485 OA
ATOM      9  C   UNL     1      13.464   2.961   8.697  0.00  0.00    +0.126 A 
ATOM     10  C   UNL     1      13.271   1.665   9.172  0.00  0.00    +0.046 A 
ATOM     11  C   UNL     1      14.365   0.816   9.348  0.00  0.00    +0.004 A 
ATOM     12  C   UNL     1      15.648   1.256   9.030  0.00  0.00    +0.001 A 
ATOM     13  C   UNL     1      15.832   2.543   8.524  0.00  0.00    +0.009 A 
ATOM     14  C   UNL     1      14.738   3.407   8.355  0.00  0.00    +0.015 A 
ENDROOT
BRANCH   1  21
ATOM     15  N   UNL     1      17.141   5.340   1.908  0.00  0.00    -0.299 N 
ATOM     16  C   UNL     1      16.846   6.610   2.571  0.00  0.00    +0.127 C 
ATOM     17  C   UNL     1      15.481   6.603   3.251  0.00  0.00    +0.129 C 
ATOM     18  N   UNL     1      15.422   5.487   4.184  0.00  0.00    -0.275 N 
ATOM     19  C   UNL     1      15.206   5.741   5.519  0.00  0.00    +0.303 C 
ATOM     20  O   UNL     1      15.052   6.880   5.959  0.00  0.00    -0.253 OA
ATOM     21  N   UNL     1      15.204   4.653   6.344  0.00  0.00    -0.292 N 
ATOM     22  C   UNL     1      15.662   4.176   3.576  0.00  0.00    +0.205 C 
ATOM     23  C   UNL     1      16.563   4.145   2.323  0.00  0.00    +0.233 C 
ATOM     24  O   UNL     1      16.762   3.080   1.735  0.00  0.00    -0.274 OA
ATOM     25  H   UNL     1      14.973   3.758   5.946  0.00  0.00    +0.151 HD
BRANCH  15  27
ATOM     26  C   UNL     1      19.455   5.973   1.324  0.00  0.00    +0.024 C 
ATOM     27  C   UNL     1      18.160   5.326   0.865  0.00  0.00    +0.104 C 
ENDBRANCH  15  27
ENDBRANCH   1  21
TORSDOF 2
ENDMDL
