MODEL 1
REMARK VINA RESULT:      -7.7      0.000      0.000
REMARK  Name = ZINC000435351830
REMARK  5 active torsions:
REMARK  status: ('A' for Active; 'I' for Inactive)
REMARK    1  A    between atoms: C_2  and  C_3
REMARK    2  A    between atoms: C_7  and  C_8
REMARK    3  A    between atoms: C_8  and  C_9
REMARK    4  A    between atoms: N_11  and  C_12
REMARK    5  A    between atoms: C_12  and  C_13
REMARK                            x       y       z     vdW  Elec       q    Type
REMARK                         _______ _______ _______ _____ _____    ______ ____
ROOT
ATOM      1  C   UNL     1      28.643  18.777  15.853  0.00  0.00    +0.224 C 
ATOM      2  O   UNL     1      29.116  19.549  15.026  0.00  0.00    -0.275 OA
ATOM      3  N   UNL     1      27.725  19.129  16.807  0.00  0.00    -0.309 N 
ATOM      4  H   UNL     1      27.355  18.427  17.432  0.00  0.00    +0.149 HD
ENDROOT
BRANCH   1   5
ATOM      5  C   UNL     1      29.103  17.343  15.915  0.00  0.00    +0.072 C 
ATOM      6  C   UNL     1      30.215  16.978  16.892  0.00  0.00    +0.022 C 
ATOM      7  C   UNL     1      28.813  16.577  17.212  0.00  0.00    +0.022 C 
BRANCH   5  12
ATOM      8  C   UNL     1      29.843  15.502  12.632  0.00  0.00    +0.052 A 
ATOM      9  C   UNL     1      28.567  15.154  12.190  0.00  0.00    +0.019 A 
ATOM     10  C   UNL     1      27.455  15.459  12.976  0.00  0.00    +0.002 A 
ATOM     11  C   UNL     1      27.615  16.133  14.189  0.00  0.00    +0.005 A 
ATOM     12  C   UNL     1      28.887  16.525  14.643  0.00  0.00    -0.031 A 
ATOM     13  C   UNL     1      29.995  16.165  13.853  0.00  0.00    +0.023 A 
BRANCH   8  15
ATOM     14  N   UNL     1      31.920  14.989  11.166  0.00  0.00    -0.191 NA
ATOM     15  C   UNL     1      30.994  15.217  11.829  0.00  0.00    +0.099 C 
ENDBRANCH   8  15
ENDBRANCH   5  12
ENDBRANCH   1   5
BRANCH   3  16
ATOM     16  C   UNL     1      27.296  20.500  16.978  0.00  0.00    +0.159 C 
BRANCH  16  17
ATOM     17  C   UNL     1      28.375  21.397  17.541  0.00  0.00    +0.058 A 
ATOM     18  C   UNL     1      28.637  22.637  16.953  0.00  0.00    +0.028 A 
ATOM     19  C   UNL     1      29.654  23.435  17.475  0.00  0.00    +0.042 A 
ATOM     20  C   UNL     1      30.370  22.973  18.565  0.00  0.00    +0.141 A 
ATOM     21  F   UNL     1      31.359  23.710  19.088  0.00  0.00    -0.204 F 
ATOM     22  C   UNL     1      30.049  21.740  19.104  0.00  0.00    +0.149 A 
ATOM     23  N   UNL     1      29.065  20.942  18.623  0.00  0.00    -0.255 NA
ENDBRANCH  16  17
ENDBRANCH   3  16
TORSDOF 5
ENDMDL
MODEL 2
REMARK VINA RESULT:      -7.7      1.303      1.472
REMARK  Name = ZINC000435351830
REMARK  5 active torsions:
REMARK  status: ('A' for Active; 'I' for Inactive)
REMARK    1  A    between atoms: C_2  and  C_3
REMARK    2  A    between atoms: C_7  and  C_8
REMARK    3  A    between atoms: C_8  and  C_9
REMARK    4  A    between atoms: N_11  and  C_12
REMARK    5  A    between atoms: C_12  and  C_13
REMARK                            x       y       z     vdW  Elec       q    Type
REMARK                         _______ _______ _______ _____ _____    ______ ____
ROOT
ATOM      1  C   UNL     1      28.828  18.728  15.715  0.00  0.00    +0.224 C 
ATOM      2  O   UNL     1      27.726  18.978  16.188  0.00  0.00    -0.275 OA
ATOM      3  N   UNL     1      29.618  19.639  15.064  0.00  0.00    -0.309 N 
ATOM      4  H   UNL     1      30.532  19.366  14.731  0.00  0.00    +0.149 HD
ENDROOT
BRANCH   1   5
ATOM      5  C   UNL     1      29.387  17.329  15.766  0.00  0.00    +0.072 C 
ATOM      6  C   UNL     1      30.597  17.061  16.655  0.00  0.00    +0.022 C 
ATOM      7  C   UNL     1      29.255  16.577  17.096  0.00  0.00    +0.022 C 
BRANCH   5  12
ATOM      8  C   UNL     1      30.013  15.345  12.542  0.00  0.00    +0.052 A 
ATOM      9  C   UNL     1      28.719  15.012  12.141  0.00  0.00    +0.019 A 
ATOM     10  C   UNL     1      27.632  15.374  12.936  0.00  0.00    +0.002 A 
ATOM     11  C   UNL     1      27.834  16.091  14.119  0.00  0.00    +0.005 A 
ATOM     12  C   UNL     1      29.124  16.468  14.531  0.00  0.00    -0.031 A 
ATOM     13  C   UNL     1      30.206  16.051  13.733  0.00  0.00    +0.023 A 
BRANCH   8  15
ATOM     14  N   UNL     1      32.061  14.717  11.080  0.00  0.00    -0.191 NA
ATOM     15  C   UNL     1      31.138  15.000  11.729  0.00  0.00    +0.099 C 
ENDBRANCH   8  15
ENDBRANCH   5  12
ENDBRANCH   1   5
BRANCH   3  16
ATOM     16  C   UNL     1      29.161  20.985  14.797  0.00  0.00    +0.159 C 
BRANCH  16  17
ATOM     17  C   UNL     1      29.388  21.933  15.953  0.00  0.00    +0.058 A 
ATOM     18  C   UNL     1      28.350  22.217  16.844  0.00  0.00    +0.028 A 
ATOM     19  C   UNL     1      28.575  23.114  17.887  0.00  0.00    +0.042 A 
ATOM     20  C   UNL     1      29.827  23.692  18.009  0.00  0.00    +0.141 A 
ATOM     21  F   UNL     1      30.078  24.563  18.994  0.00  0.00    -0.204 F 
ATOM     22  C   UNL     1      30.811  23.355  17.097  0.00  0.00    +0.149 A 
ATOM     23  N   UNL     1      30.625  22.486  16.074  0.00  0.00    -0.255 NA
ENDBRANCH  16  17
ENDBRANCH   3  16
TORSDOF 5
ENDMDL
MODEL 3
REMARK VINA RESULT:      -7.5      1.408      1.533
REMARK  Name = ZINC000435351830
REMARK  5 active torsions:
REMARK  status: ('A' for Active; 'I' for Inactive)
REMARK    1  A    between atoms: C_2  and  C_3
REMARK    2  A    between atoms: C_7  and  C_8
REMARK    3  A    between atoms: C_8  and  C_9
REMARK    4  A    between atoms: N_11  and  C_12
REMARK    5  A    between atoms: C_12  and  C_13
REMARK                            x       y       z     vdW  Elec       q    Type
REMARK                         _______ _______ _______ _____ _____    ______ ____
ROOT
ATOM      1  C   UNL     1      28.180  18.522  16.542  0.00  0.00    +0.224 C 
ATOM      2  O   UNL     1      26.968  18.648  16.407  0.00  0.00    -0.275 OA
ATOM      3  N   UNL     1      29.053  19.562  16.725  0.00  0.00    -0.309 N 
ATOM      4  H   UNL     1      30.036  19.375  16.864  0.00  0.00    +0.149 HD
ENDROOT
BRANCH   1   5
ATOM      5  C   UNL     1      28.826  17.162  16.452  0.00  0.00    +0.072 C 
ATOM      6  C   UNL     1      29.953  16.828  17.423  0.00  0.00    +0.022 C 
ATOM      7  C   UNL     1      28.609  16.212  17.636  0.00  0.00    +0.022 C 
BRANCH   5  12
ATOM      8  C   UNL     1      29.913  15.731  13.063  0.00  0.00    +0.052 A 
ATOM      9  C   UNL     1      28.693  15.389  12.478  0.00  0.00    +0.019 A 
ATOM     10  C   UNL     1      27.509  15.563  13.194  0.00  0.00    +0.002 A 
ATOM     11  C   UNL     1      27.539  16.103  14.483  0.00  0.00    +0.005 A 
ATOM     12  C   UNL     1      28.750  16.486  15.084  0.00  0.00    -0.031 A 
ATOM     13  C   UNL     1      29.934  16.258  14.358  0.00  0.00    +0.023 A 
BRANCH   8  15
ATOM     14  N   UNL     1      32.129  15.442  11.748  0.00  0.00    -0.191 NA
ATOM     15  C   UNL     1      31.136  15.580  12.336  0.00  0.00    +0.099 C 
ENDBRANCH   8  15
ENDBRANCH   5  12
ENDBRANCH   1   5
BRANCH   3  16
ATOM     16  C   UNL     1      28.612  20.939  16.681  0.00  0.00    +0.159 C 
BRANCH  16  17
ATOM     17  C   UNL     1      29.729  21.931  16.916  0.00  0.00    +0.058 A 
ATOM     18  C   UNL     1      29.557  22.984  17.818  0.00  0.00    +0.028 A 
ATOM     19  C   UNL     1      30.592  23.901  17.998  0.00  0.00    +0.042 A 
ATOM     20  C   UNL     1      31.762  23.734  17.277  0.00  0.00    +0.141 A 
ATOM     21  F   UNL     1      32.774  24.600  17.420  0.00  0.00    -0.204 F 
ATOM     22  C   UNL     1      31.867  22.662  16.410  0.00  0.00    +0.149 A 
ATOM     23  N   UNL     1      30.882  21.752  16.215  0.00  0.00    -0.255 NA
ENDBRANCH  16  17
ENDBRANCH   3  16
TORSDOF 5
ENDMDL
MODEL 4
REMARK VINA RESULT:      -7.4      3.613      6.906
REMARK  Name = ZINC000435351830
REMARK  5 active torsions:
REMARK  status: ('A' for Active; 'I' for Inactive)
REMARK    1  A    between atoms: C_2  and  C_3
REMARK    2  A    between atoms: C_7  and  C_8
REMARK    3  A    between atoms: C_8  and  C_9
REMARK    4  A    between atoms: N_11  and  C_12
REMARK    5  A    between atoms: C_12  and  C_13
REMARK                            x       y       z     vdW  Elec       q    Type
REMARK                         _______ _______ _______ _____ _____    ______ ____
ROOT
ATOM      1  C   UNL     1      27.986  19.252  16.456  0.00  0.00    +0.224 C 
ATOM      2  O   UNL     1      26.806  18.928  16.532  0.00  0.00    -0.275 OA
ATOM      3  N   UNL     1      29.022  18.374  16.275  0.00  0.00    -0.309 N 
ATOM      4  H   UNL     1      29.966  18.722  16.187  0.00  0.00    +0.149 HD
ENDROOT
BRANCH   1   5
ATOM      5  C   UNL     1      28.399  20.692  16.623  0.00  0.00    +0.072 C 
ATOM      6  C   UNL     1      27.349  21.702  17.073  0.00  0.00    +0.022 C 
ATOM      7  C   UNL     1      28.388  21.257  18.049  0.00  0.00    +0.022 C 
BRANCH   5  12
ATOM      8  C   UNL     1      31.963  21.767  15.693  0.00  0.00    +0.052 A 
ATOM      9  C   UNL     1      31.830  22.108  14.347  0.00  0.00    +0.019 A 
ATOM     10  C   UNL     1      30.601  21.941  13.708  0.00  0.00    +0.002 A 
ATOM     11  C   UNL     1      29.499  21.458  14.418  0.00  0.00    +0.005 A 
ATOM     12  C   UNL     1      29.596  21.136  15.784  0.00  0.00    -0.031 A 
ATOM     13  C   UNL     1      30.858  21.272  16.392  0.00  0.00    +0.023 A 
BRANCH   8  15
ATOM     14  N   UNL     1      34.221  22.088  16.927  0.00  0.00    -0.191 NA
ATOM     15  C   UNL     1      33.209  21.952  16.371  0.00  0.00    +0.099 C 
ENDBRANCH   8  15
ENDBRANCH   5  12
ENDBRANCH   1   5
BRANCH   3  16
ATOM     16  C   UNL     1      28.808  16.943  16.249  0.00  0.00    +0.159 C 
BRANCH  16  17
ATOM     17  C   UNL     1      28.823  16.363  14.852  0.00  0.00    +0.058 A 
ATOM     18  C   UNL     1      27.623  16.097  14.188  0.00  0.00    +0.028 A 
ATOM     19  C   UNL     1      27.662  15.537  12.912  0.00  0.00    +0.042 A 
ATOM     20  C   UNL     1      28.894  15.268  12.341  0.00  0.00    +0.141 A 
ATOM     21  F   UNL     1      28.969  14.725  11.119  0.00  0.00    -0.204 F 
ATOM     22  C   UNL     1      30.041  15.569  13.051  0.00  0.00    +0.149 A 
ATOM     23  N   UNL     1      30.038  16.115  14.292  0.00  0.00    -0.255 NA
ENDBRANCH  16  17
ENDBRANCH   3  16
TORSDOF 5
ENDMDL
MODEL 5
REMARK VINA RESULT:      -7.3      2.530      2.791
REMARK  Name = ZINC000435351830
REMARK  5 active torsions:
REMARK  status: ('A' for Active; 'I' for Inactive)
REMARK    1  A    between atoms: C_2  and  C_3
REMARK    2  A    between atoms: C_7  and  C_8
REMARK    3  A    between atoms: C_8  and  C_9
REMARK    4  A    between atoms: N_11  and  C_12
REMARK    5  A    between atoms: C_12  and  C_13
REMARK                            x       y       z     vdW  Elec       q    Type
REMARK                         _______ _______ _______ _____ _____    ______ ____
ROOT
ATOM      1  C   UNL     1      28.708  18.747  16.187  0.00  0.00    +0.224 C 
ATOM      2  O   UNL     1      27.508  18.971  16.308  0.00  0.00    -0.275 OA
ATOM      3  N   UNL     1      29.666  19.713  16.030  0.00  0.00    -0.309 N 
ATOM      4  H   UNL     1      30.640  19.451  15.972  0.00  0.00    +0.149 HD
ENDROOT
BRANCH   1   5
ATOM      5  C   UNL     1      29.223  17.331  16.141  0.00  0.00    +0.072 C 
ATOM      6  C   UNL     1      30.425  16.967  17.006  0.00  0.00    +0.022 C 
ATOM      7  C   UNL     1      29.069  16.494  17.417  0.00  0.00    +0.022 C 
BRANCH   5  12
ATOM      8  C   UNL     1      29.772  15.617  12.753  0.00  0.00    +0.052 A 
ATOM      9  C   UNL     1      28.471  15.294  12.367  0.00  0.00    +0.019 A 
ATOM     10  C   UNL     1      27.405  15.573  13.223  0.00  0.00    +0.002 A 
ATOM     11  C   UNL     1      27.635  16.199  14.452  0.00  0.00    +0.005 A 
ATOM     12  C   UNL     1      28.932  16.565  14.851  0.00  0.00    -0.031 A 
ATOM     13  C   UNL     1      29.994  16.231  13.989  0.00  0.00    +0.023 A 
BRANCH   8  15
ATOM     14  N   UNL     1      31.763  15.151  11.157  0.00  0.00    -0.191 NA
ATOM     15  C   UNL     1      30.875  15.358  11.879  0.00  0.00    +0.099 C 
ENDBRANCH   8  15
ENDBRANCH   5  12
ENDBRANCH   1   5
BRANCH   3  16
ATOM     16  C   UNL     1      29.319  21.112  15.901  0.00  0.00    +0.159 C 
BRANCH  16  17
ATOM     17  C   UNL     1      30.393  21.933  15.222  0.00  0.00    +0.058 A 
ATOM     18  C   UNL     1      31.579  22.235  15.897  0.00  0.00    +0.028 A 
ATOM     19  C   UNL     1      32.543  23.015  15.260  0.00  0.00    +0.042 A 
ATOM     20  C   UNL     1      32.294  23.462  13.974  0.00  0.00    +0.141 A 
ATOM     21  F   UNL     1      33.195  24.219  13.335  0.00  0.00    -0.204 F 
ATOM     22  C   UNL     1      31.103  23.114  13.363  0.00  0.00    +0.149 A 
ATOM     23  N   UNL     1      30.148  22.356  13.953  0.00  0.00    -0.255 NA
ENDBRANCH  16  17
ENDBRANCH   3  16
TORSDOF 5
ENDMDL
MODEL 6
REMARK VINA RESULT:      -7.1      3.329      4.767
REMARK  Name = ZINC000435351830
REMARK  5 active torsions:
REMARK  status: ('A' for Active; 'I' for Inactive)
REMARK    1  A    between atoms: C_2  and  C_3
REMARK    2  A    between atoms: C_7  and  C_8
REMARK    3  A    between atoms: C_8  and  C_9
REMARK    4  A    between atoms: N_11  and  C_12
REMARK    5  A    between atoms: C_12  and  C_13
REMARK                            x       y       z     vdW  Elec       q    Type
REMARK                         _______ _______ _______ _____ _____    ______ ____
ROOT
ATOM      1  C   UNL     1      29.636  21.401  15.362  0.00  0.00    +0.224 C 
ATOM      2  O   UNL     1      29.157  21.429  14.234  0.00  0.00    -0.275 OA
ATOM      3  N   UNL     1      30.904  21.814  15.678  0.00  0.00    -0.309 N 
ATOM      4  H   UNL     1      31.215  21.793  16.638  0.00  0.00    +0.149 HD
ENDROOT
BRANCH   1   5
ATOM      5  C   UNL     1      28.851  20.831  16.516  0.00  0.00    +0.072 C 
ATOM      6  C   UNL     1      28.504  21.748  17.683  0.00  0.00    +0.022 C 
ATOM      7  C   UNL     1      27.429  21.366  16.720  0.00  0.00    +0.022 C 
BRANCH   5  12
ATOM      8  C   UNL     1      28.537  17.054  15.918  0.00  0.00    +0.052 A 
ATOM      9  C   UNL     1      29.053  16.521  17.100  0.00  0.00    +0.019 A 
ATOM     10  C   UNL     1      29.562  17.373  18.080  0.00  0.00    +0.002 A 
ATOM     11  C   UNL     1      29.532  18.758  17.893  0.00  0.00    +0.005 A 
ATOM     12  C   UNL     1      28.989  19.324  16.726  0.00  0.00    -0.031 A 
ATOM     13  C   UNL     1      28.523  18.440  15.734  0.00  0.00    +0.023 A 
BRANCH   8  15
ATOM     14  N   UNL     1      27.549  15.489  14.102  0.00  0.00    -0.191 NA
ATOM     15  C   UNL     1      27.992  16.197  14.910  0.00  0.00    +0.099 C 
ENDBRANCH   8  15
ENDBRANCH   5  12
ENDBRANCH   1   5
BRANCH   3  16
ATOM     16  C   UNL     1      31.837  22.245  14.659  0.00  0.00    +0.159 C 
BRANCH  16  17
ATOM     17  C   UNL     1      32.827  23.275  15.154  0.00  0.00    +0.058 A 
ATOM     18  C   UNL     1      33.659  23.942  14.251  0.00  0.00    +0.028 A 
ATOM     19  C   UNL     1      34.582  24.869  14.734  0.00  0.00    +0.042 A 
ATOM     20  C   UNL     1      34.640  25.102  16.096  0.00  0.00    +0.141 A 
ATOM     21  F   UNL     1      35.519  25.980  16.596  0.00  0.00    -0.204 F 
ATOM     22  C   UNL     1      33.778  24.414  16.931  0.00  0.00    +0.149 A 
ATOM     23  N   UNL     1      32.868  23.509  16.493  0.00  0.00    -0.255 NA
ENDBRANCH  16  17
ENDBRANCH   3  16
TORSDOF 5
ENDMDL
MODEL 7
REMARK VINA RESULT:      -7.1      3.470      7.803
REMARK  Name = ZINC000435351830
REMARK  5 active torsions:
REMARK  status: ('A' for Active; 'I' for Inactive)
REMARK    1  A    between atoms: C_2  and  C_3
REMARK    2  A    between atoms: C_7  and  C_8
REMARK    3  A    between atoms: C_8  and  C_9
REMARK    4  A    between atoms: N_11  and  C_12
REMARK    5  A    between atoms: C_12  and  C_13
REMARK                            x       y       z     vdW  Elec       q    Type
REMARK                         _______ _______ _______ _____ _____    ______ ____
ROOT
ATOM      1  C   UNL     1      29.528  19.040  16.758  0.00  0.00    +0.224 C 
ATOM      2  O   UNL     1      29.152  18.389  17.727  0.00  0.00    -0.275 OA
ATOM      3  N   UNL     1      30.120  18.503  15.645  0.00  0.00    -0.309 N 
ATOM      4  H   UNL     1      30.371  19.101  14.871  0.00  0.00    +0.149 HD
ENDROOT
BRANCH   1   5
ATOM      5  C   UNL     1      29.414  20.543  16.752  0.00  0.00    +0.072 C 
ATOM      6  C   UNL     1      28.773  21.218  15.544  0.00  0.00    +0.022 C 
ATOM      7  C   UNL     1      27.999  21.132  16.818  0.00  0.00    +0.022 C 
BRANCH   5  12
ATOM      8  C   UNL     1      32.316  22.862  17.710  0.00  0.00    +0.052 A 
ATOM      9  C   UNL     1      32.481  22.588  19.068  0.00  0.00    +0.019 A 
ATOM     10  C   UNL     1      31.620  21.694  19.704  0.00  0.00    +0.002 A 
ATOM     11  C   UNL     1      30.610  21.053  18.980  0.00  0.00    +0.005 A 
ATOM     12  C   UNL     1      30.442  21.286  17.603  0.00  0.00    -0.031 A 
ATOM     13  C   UNL     1      31.296  22.226  16.996  0.00  0.00    +0.023 A 
BRANCH   8  15
ATOM     14  N   UNL     1      33.927  24.495  16.501  0.00  0.00    -0.191 NA
ATOM     15  C   UNL     1      33.203  23.759  17.035  0.00  0.00    +0.099 C 
ENDBRANCH   8  15
ENDBRANCH   5  12
ENDBRANCH   1   5
BRANCH   3  16
ATOM     16  C   UNL     1      30.441  17.095  15.561  0.00  0.00    +0.159 C 
BRANCH  16  17
ATOM     17  C   UNL     1      29.877  16.427  14.327  0.00  0.00    +0.058 A 
ATOM     18  C   UNL     1      28.495  16.369  14.127  0.00  0.00    +0.028 A 
ATOM     19  C   UNL     1      27.998  15.726  12.995  0.00  0.00    +0.042 A 
ATOM     20  C   UNL     1      28.894  15.168  12.099  0.00  0.00    +0.141 A 
ATOM     21  F   UNL     1      28.452  14.537  11.004  0.00  0.00    -0.204 F 
ATOM     22  C   UNL     1      30.249  15.274  12.355  0.00  0.00    +0.149 A 
ATOM     23  N   UNL     1      30.764  15.895  13.444  0.00  0.00    -0.255 NA
ENDBRANCH  16  17
ENDBRANCH   3  16
TORSDOF 5
ENDMDL
MODEL 8
REMARK VINA RESULT:      -7.1      3.381      7.901
REMARK  Name = ZINC000435351830
REMARK  5 active torsions:
REMARK  status: ('A' for Active; 'I' for Inactive)
REMARK    1  A    between atoms: C_2  and  C_3
REMARK    2  A    between atoms: C_7  and  C_8
REMARK    3  A    between atoms: C_8  and  C_9
REMARK    4  A    between atoms: N_11  and  C_12
REMARK    5  A    between atoms: C_12  and  C_13
REMARK                            x       y       z     vdW  Elec       q    Type
REMARK                         _______ _______ _______ _____ _____    ______ ____
ROOT
ATOM      1  C   UNL     1      29.646  19.128  17.078  0.00  0.00    +0.224 C 
ATOM      2  O   UNL     1      29.517  18.491  18.117  0.00  0.00    -0.275 OA
ATOM      3  N   UNL     1      30.050  18.589  15.884  0.00  0.00    -0.309 N 
ATOM      4  H   UNL     1      30.099  19.173  15.061  0.00  0.00    +0.149 HD
ENDROOT
BRANCH   1   5
ATOM      5  C   UNL     1      29.418  20.617  17.055  0.00  0.00    +0.072 C 
ATOM      6  C   UNL     1      28.322  21.171  16.152  0.00  0.00    +0.022 C 
ATOM      7  C   UNL     1      28.088  21.124  17.626  0.00  0.00    +0.022 C 
BRANCH   5  12
ATOM      8  C   UNL     1      32.327  22.077  19.086  0.00  0.00    +0.052 A 
ATOM      9  C   UNL     1      32.767  23.119  18.270  0.00  0.00    +0.019 A 
ATOM     10  C   UNL     1      32.168  23.328  17.028  0.00  0.00    +0.002 A 
ATOM     11  C   UNL     1      31.112  22.512  16.611  0.00  0.00    +0.005 A 
ATOM     12  C   UNL     1      30.627  21.475  17.427  0.00  0.00    -0.031 A 
ATOM     13  C   UNL     1      31.279  21.259  18.656  0.00  0.00    +0.023 A 
BRANCH   8  15
ATOM     14  N   UNL     1      33.392  21.672  21.416  0.00  0.00    -0.191 NA
ATOM     15  C   UNL     1      32.916  21.862  20.373  0.00  0.00    +0.099 C 
ENDBRANCH   8  15
ENDBRANCH   5  12
ENDBRANCH   1   5
BRANCH   3  16
ATOM     16  C   UNL     1      30.454  17.205  15.774  0.00  0.00    +0.159 C 
BRANCH  16  17
ATOM     17  C   UNL     1      29.885  16.511  14.557  0.00  0.00    +0.058 A 
ATOM     18  C   UNL     1      28.506  16.507  14.331  0.00  0.00    +0.028 A 
ATOM     19  C   UNL     1      28.002  15.838  13.216  0.00  0.00    +0.042 A 
ATOM     20  C   UNL     1      28.889  15.204  12.363  0.00  0.00    +0.141 A 
ATOM     21  F   UNL     1      28.440  14.547  11.286  0.00  0.00    -0.204 F 
ATOM     22  C   UNL     1      30.242  15.260  12.642  0.00  0.00    +0.149 A 
ATOM     23  N   UNL     1      30.764  15.903  13.715  0.00  0.00    -0.255 NA
ENDBRANCH  16  17
ENDBRANCH   3  16
TORSDOF 5
ENDMDL
MODEL 9
REMARK VINA RESULT:      -7.0      1.675      1.954
REMARK  Name = ZINC000435351830
REMARK  5 active torsions:
REMARK  status: ('A' for Active; 'I' for Inactive)
REMARK    1  A    between atoms: C_2  and  C_3
REMARK    2  A    between atoms: C_7  and  C_8
REMARK    3  A    between atoms: C_8  and  C_9
REMARK    4  A    between atoms: N_11  and  C_12
REMARK    5  A    between atoms: C_12  and  C_13
REMARK                            x       y       z     vdW  Elec       q    Type
REMARK                         _______ _______ _______ _____ _____    ______ ____
ROOT
ATOM      1  C   UNL     1      29.417  18.904  16.111  0.00  0.00    +0.224 C 
ATOM      2  O   UNL     1      28.386  19.395  15.664  0.00  0.00    -0.275 OA
ATOM      3  N   UNL     1      30.507  19.626  16.519  0.00  0.00    -0.309 N 
ATOM      4  H   UNL     1      31.308  19.150  16.910  0.00  0.00    +0.149 HD
ENDROOT
BRANCH   1   5
ATOM      5  C   UNL     1      29.583  17.407  16.190  0.00  0.00    +0.072 C 
ATOM      6  C   UNL     1      30.626  16.842  17.147  0.00  0.00    +0.022 C 
ATOM      7  C   UNL     1      29.181  16.733  17.508  0.00  0.00    +0.022 C 
BRANCH   5  12
ATOM      8  C   UNL     1      29.821  15.636  12.796  0.00  0.00    +0.052 A 
ATOM      9  C   UNL     1      28.486  15.339  12.520  0.00  0.00    +0.019 A 
ATOM     10  C   UNL     1      27.499  15.655  13.453  0.00  0.00    +0.002 A 
ATOM     11  C   UNL     1      27.840  16.291  14.650  0.00  0.00    +0.005 A 
ATOM     12  C   UNL     1      29.173  16.632  14.940  0.00  0.00    -0.031 A 
ATOM     13  C   UNL     1      30.154  16.261  14.001  0.00  0.00    +0.023 A 
BRANCH   8  15
ATOM     14  N   UNL     1      31.679  15.082  11.073  0.00  0.00    -0.191 NA
ATOM     15  C   UNL     1      30.845  15.338  11.842  0.00  0.00    +0.099 C 
ENDBRANCH   8  15
ENDBRANCH   5  12
ENDBRANCH   1   5
BRANCH   3  16
ATOM     16  C   UNL     1      30.566  21.063  16.365  0.00  0.00    +0.159 C 
BRANCH  16  17
ATOM     17  C   UNL     1      31.446  21.738  17.393  0.00  0.00    +0.058 A 
ATOM     18  C   UNL     1      32.351  22.729  17.003  0.00  0.00    +0.028 A 
ATOM     19  C   UNL     1      33.169  23.318  17.966  0.00  0.00    +0.042 A 
ATOM     20  C   UNL     1      33.054  22.905  19.281  0.00  0.00    +0.141 A 
ATOM     21  F   UNL     1      33.829  23.444  20.231  0.00  0.00    -0.204 F 
ATOM     22  C   UNL     1      32.128  21.927  19.597  0.00  0.00    +0.149 A 
ATOM     23  N   UNL     1      31.316  21.337  18.686  0.00  0.00    -0.255 NA
ENDBRANCH  16  17
ENDBRANCH   3  16
TORSDOF 5
ENDMDL
