MODEL 1
REMARK VINA RESULT:      -6.2      0.000      0.000
REMARK  Name = ZINC000826139982
REMARK  4 active torsions:
REMARK  status: ('A' for Active; 'I' for Inactive)
REMARK    1  A    between atoms: C_2  and  C_4
REMARK    2  A    between atoms: C_8  and  C_10
REMARK    3  A    between atoms: C_14  and  S_15
REMARK    4  A    between atoms: S_15  and  C_16
REMARK                            x       y       z     vdW  Elec       q    Type
REMARK                         _______ _______ _______ _____ _____    ______ ____
ROOT
ATOM      1  C   UNL     1      32.150  24.913  13.899  0.00  0.00    +0.093 C 
ATOM      2  C   UNL     1      32.212  23.451  13.457  0.00  0.00    +0.033 C 
ATOM      3  C   UNL     1      30.843  22.935  13.874  0.00  0.00    +0.109 C 
ATOM      4  N   UNL     1      30.676  23.535  15.190  0.00  0.00    -0.297 N 
ATOM      5  C   UNL     1      29.950  23.124  16.301  0.00  0.00    +0.247 C 
ATOM      6  O   UNL     1      29.837  23.857  17.288  0.00  0.00    -0.270 OA
ATOM      7  C   UNL     1      31.321  24.851  15.190  0.00  0.00    +0.120 C 
ENDROOT
BRANCH   5   8
ATOM      8  C   UNL     1      29.257  21.801  16.347  0.00  0.00    +0.038 A 
ATOM      9  C   UNL     1      27.875  21.649  16.232  0.00  0.00    +0.013 A 
ATOM     10  C   UNL     1      27.277  20.395  16.374  0.00  0.00    +0.002 A 
ATOM     11  C   UNL     1      28.069  19.257  16.491  0.00  0.00    +0.015 A 
ATOM     12  C   UNL     1      29.461  19.365  16.427  0.00  0.00    +0.017 A 
ATOM     13  C   UNL     1      30.050  20.638  16.399  0.00  0.00    +0.028 A 
BRANCH  12  14
ATOM     14  S   UNL     1      30.489  17.912  16.400  0.00  0.00    -0.016 S 
BRANCH  14  15
ATOM     15  C   UNL     1      30.096  17.232  14.774  0.00  0.00    +0.448 C 
ATOM     16  F   UNL     1      31.123  16.570  14.189  0.00  0.00    -0.160 F 
ATOM     17  F   UNL     1      29.058  16.365  14.849  0.00  0.00    -0.160 F 
ATOM     18  F   UNL     1      29.729  18.220  13.919  0.00  0.00    -0.160 F 
ENDBRANCH  14  15
ENDBRANCH  12  14
ENDBRANCH   5   8
BRANCH   1  20
ATOM     19  N   UNL     1      30.364  26.410  13.147  0.00  0.00    -0.329 N 
ATOM     20  C   UNL     1      31.517  25.769  12.812  0.00  0.00    +0.215 C 
ATOM     21  O   UNL     1      32.006  25.938  11.699  0.00  0.00    -0.276 OA
ATOM     22  H   UNL     1      29.989  27.050  12.459  0.00  0.00    +0.145 HD
ATOM     23  H   UNL     1      29.997  26.442  14.087  0.00  0.00    +0.145 HD
ENDBRANCH   1  20
TORSDOF 4
ENDMDL
MODEL 2
REMARK VINA RESULT:      -6.0      5.029      6.616
REMARK  Name = ZINC000826139982
REMARK  4 active torsions:
REMARK  status: ('A' for Active; 'I' for Inactive)
REMARK    1  A    between atoms: C_2  and  C_4
REMARK    2  A    between atoms: C_8  and  C_10
REMARK    3  A    between atoms: C_14  and  S_15
REMARK    4  A    between atoms: S_15  and  C_16
REMARK                            x       y       z     vdW  Elec       q    Type
REMARK                         _______ _______ _______ _____ _____    ______ ____
ROOT
ATOM      1  C   UNL     1      34.479  17.711  16.153  0.00  0.00    +0.093 C 
ATOM      2  C   UNL     1      33.593  17.723  17.398  0.00  0.00    +0.033 C 
ATOM      3  C   UNL     1      32.204  17.877  16.798  0.00  0.00    +0.109 C 
ATOM      4  N   UNL     1      32.424  18.879  15.765  0.00  0.00    -0.297 N 
ATOM      5  C   UNL     1      31.570  19.819  15.200  0.00  0.00    +0.247 C 
ATOM      6  O   UNL     1      31.928  20.495  14.232  0.00  0.00    -0.270 OA
ATOM      7  C   UNL     1      33.767  18.692  15.210  0.00  0.00    +0.120 C 
ENDROOT
BRANCH   5   8
ATOM      8  C   UNL     1      30.184  20.037  15.715  0.00  0.00    +0.038 A 
ATOM      9  C   UNL     1      29.116  19.181  15.444  0.00  0.00    +0.013 A 
ATOM     10  C   UNL     1      27.825  19.487  15.878  0.00  0.00    +0.002 A 
ATOM     11  C   UNL     1      27.612  20.582  16.709  0.00  0.00    +0.015 A 
ATOM     12  C   UNL     1      28.695  21.351  17.142  0.00  0.00    +0.017 A 
ATOM     13  C   UNL     1      29.969  21.103  16.610  0.00  0.00    +0.028 A 
BRANCH  12  14
ATOM     14  S   UNL     1      28.472  22.648  18.342  0.00  0.00    -0.016 S 
BRANCH  14  15
ATOM     15  C   UNL     1      27.814  21.720  19.745  0.00  0.00    +0.448 C 
ATOM     16  F   UNL     1      27.140  20.598  19.398  0.00  0.00    -0.160 F 
ATOM     17  F   UNL     1      28.808  21.341  20.584  0.00  0.00    -0.160 F 
ATOM     18  F   UNL     1      26.956  22.486  20.464  0.00  0.00    -0.160 F 
ENDBRANCH  14  15
ENDBRANCH  12  14
ENDBRANCH   5   8
BRANCH   1  20
ATOM     19  N   UNL     1      35.260  15.399  16.357  0.00  0.00    -0.329 N 
ATOM     20  C   UNL     1      34.586  16.301  15.592  0.00  0.00    +0.215 C 
ATOM     21  O   UNL     1      34.071  15.940  14.538  0.00  0.00    -0.276 OA
ATOM     22  H   UNL     1      35.256  14.441  16.032  0.00  0.00    +0.145 HD
ATOM     23  H   UNL     1      35.567  15.587  17.300  0.00  0.00    +0.145 HD
ENDBRANCH   1  20
TORSDOF 4
ENDMDL
MODEL 3
REMARK VINA RESULT:      -6.0      3.650      5.352
REMARK  Name = ZINC000826139982
REMARK  4 active torsions:
REMARK  status: ('A' for Active; 'I' for Inactive)
REMARK    1  A    between atoms: C_2  and  C_4
REMARK    2  A    between atoms: C_8  and  C_10
REMARK    3  A    between atoms: C_14  and  S_15
REMARK    4  A    between atoms: S_15  and  C_16
REMARK                            x       y       z     vdW  Elec       q    Type
REMARK                         _______ _______ _______ _____ _____    ______ ____
ROOT
ATOM      1  C   UNL     1      27.540  21.979  19.813  0.00  0.00    +0.093 C 
ATOM      2  C   UNL     1      29.047  22.235  19.783  0.00  0.00    +0.033 C 
ATOM      3  C   UNL     1      29.341  22.224  18.291  0.00  0.00    +0.109 C 
ATOM      4  N   UNL     1      28.549  21.093  17.829  0.00  0.00    -0.297 N 
ATOM      5  C   UNL     1      28.716  20.234  16.750  0.00  0.00    +0.247 C 
ATOM      6  O   UNL     1      27.846  19.410  16.458  0.00  0.00    -0.270 OA
ATOM      7  C   UNL     1      27.328  21.017  18.635  0.00  0.00    +0.120 C 
ENDROOT
BRANCH   5   8
ATOM      8  C   UNL     1      29.933  20.282  15.883  0.00  0.00    +0.038 A 
ATOM      9  C   UNL     1      30.226  21.339  15.021  0.00  0.00    +0.013 A 
ATOM     10  C   UNL     1      31.332  21.284  14.170  0.00  0.00    +0.002 A 
ATOM     11  C   UNL     1      32.237  20.233  14.273  0.00  0.00    +0.015 A 
ATOM     12  C   UNL     1      32.062  19.254  15.254  0.00  0.00    +0.017 A 
ATOM     13  C   UNL     1      30.890  19.258  16.026  0.00  0.00    +0.028 A 
BRANCH  12  14
ATOM     14  S   UNL     1      33.295  17.998  15.521  0.00  0.00    -0.016 S 
BRANCH  14  15
ATOM     15  C   UNL     1      32.964  16.880  14.143  0.00  0.00    +0.448 C 
ATOM     16  F   UNL     1      31.656  16.560  13.993  0.00  0.00    -0.160 F 
ATOM     17  F   UNL     1      33.376  17.420  12.971  0.00  0.00    -0.160 F 
ATOM     18  F   UNL     1      33.637  15.713  14.302  0.00  0.00    -0.160 F 
ENDBRANCH  14  15
ENDBRANCH  12  14
ENDBRANCH   5   8
BRANCH   1  20
ATOM     19  N   UNL     1      27.484  24.425  19.913  0.00  0.00    -0.329 N 
ATOM     20  C   UNL     1      26.777  23.287  19.673  0.00  0.00    +0.215 C 
ATOM     21  O   UNL     1      25.604  23.363  19.321  0.00  0.00    -0.276 OA
ATOM     22  H   UNL     1      27.006  25.298  19.733  0.00  0.00    +0.145 HD
ATOM     23  H   UNL     1      28.485  24.441  20.049  0.00  0.00    +0.145 HD
ENDBRANCH   1  20
TORSDOF 4
ENDMDL
MODEL 4
REMARK VINA RESULT:      -5.9      2.715      3.851
REMARK  Name = ZINC000826139982
REMARK  4 active torsions:
REMARK  status: ('A' for Active; 'I' for Inactive)
REMARK    1  A    between atoms: C_2  and  C_4
REMARK    2  A    between atoms: C_8  and  C_10
REMARK    3  A    between atoms: C_14  and  S_15
REMARK    4  A    between atoms: S_15  and  C_16
REMARK                            x       y       z     vdW  Elec       q    Type
REMARK                         _______ _______ _______ _____ _____    ______ ____
ROOT
ATOM      1  C   UNL     1      32.501  25.501  11.020  0.00  0.00    +0.093 C 
ATOM      2  C   UNL     1      31.300  26.089  11.760  0.00  0.00    +0.033 C 
ATOM      3  C   UNL     1      31.583  25.683  13.199  0.00  0.00    +0.109 C 
ATOM      4  N   UNL     1      32.040  24.309  13.047  0.00  0.00    -0.297 N 
ATOM      5  C   UNL     1      31.987  23.223  13.912  0.00  0.00    +0.247 C 
ATOM      6  O   UNL     1      32.558  22.166  13.632  0.00  0.00    -0.270 OA
ATOM      7  C   UNL     1      32.776  24.198  11.785  0.00  0.00    +0.120 C 
ENDROOT
BRANCH   5   8
ATOM      8  C   UNL     1      31.267  23.289  15.219  0.00  0.00    +0.038 A 
ATOM      9  C   UNL     1      31.719  24.026  16.314  0.00  0.00    +0.013 A 
ATOM     10  C   UNL     1      31.050  23.975  17.539  0.00  0.00    +0.002 A 
ATOM     11  C   UNL     1      29.839  23.297  17.642  0.00  0.00    +0.015 A 
ATOM     12  C   UNL     1      29.275  22.701  16.511  0.00  0.00    +0.017 A 
ATOM     13  C   UNL     1      30.010  22.662  15.316  0.00  0.00    +0.028 A 
BRANCH  12  14
ATOM     14  S   UNL     1      27.648  21.979  16.576  0.00  0.00    -0.016 S 
BRANCH  14  15
ATOM     15  C   UNL     1      28.044  20.244  16.878  0.00  0.00    +0.448 C 
ATOM     16  F   UNL     1      29.359  20.010  17.107  0.00  0.00    -0.160 F 
ATOM     17  F   UNL     1      27.366  19.772  17.951  0.00  0.00    -0.160 F 
ATOM     18  F   UNL     1      27.689  19.480  15.815  0.00  0.00    -0.160 F 
ENDBRANCH  14  15
ENDBRANCH  12  14
ENDBRANCH   5   8
BRANCH   1  20
ATOM     19  N   UNL     1      33.614  27.503  10.153  0.00  0.00    -0.329 N 
ATOM     20  C   UNL     1      33.668  26.477  11.045  0.00  0.00    +0.215 C 
ATOM     21  O   UNL     1      34.603  26.408  11.837  0.00  0.00    -0.276 OA
ATOM     22  H   UNL     1      34.341  28.202  10.227  0.00  0.00    +0.145 HD
ATOM     23  H   UNL     1      32.802  27.707   9.588  0.00  0.00    +0.145 HD
ENDBRANCH   1  20
TORSDOF 4
ENDMDL
MODEL 5
REMARK VINA RESULT:      -5.7      5.058      6.271
REMARK  Name = ZINC000826139982
REMARK  4 active torsions:
REMARK  status: ('A' for Active; 'I' for Inactive)
REMARK    1  A    between atoms: C_2  and  C_4
REMARK    2  A    between atoms: C_8  and  C_10
REMARK    3  A    between atoms: C_14  and  S_15
REMARK    4  A    between atoms: S_15  and  C_16
REMARK                            x       y       z     vdW  Elec       q    Type
REMARK                         _______ _______ _______ _____ _____    ______ ____
ROOT
ATOM      1  C   UNL     1      33.801  17.809  14.006  0.00  0.00    +0.093 C 
ATOM      2  C   UNL     1      33.263  19.163  13.543  0.00  0.00    +0.033 C 
ATOM      3  C   UNL     1      32.483  19.628  14.763  0.00  0.00    +0.109 C 
ATOM      4  N   UNL     1      31.797  18.411  15.173  0.00  0.00    -0.297 N 
ATOM      5  C   UNL     1      30.600  18.215  15.851  0.00  0.00    +0.247 C 
ATOM      6  O   UNL     1      30.260  17.088  16.218  0.00  0.00    -0.270 OA
ATOM      7  C   UNL     1      32.664  17.266  14.885  0.00  0.00    +0.120 C 
ENDROOT
BRANCH   5   8
ATOM      8  C   UNL     1      29.688  19.350  16.187  0.00  0.00    +0.038 A 
ATOM      9  C   UNL     1      28.329  19.369  15.871  0.00  0.00    +0.013 A 
ATOM     10  C   UNL     1      27.548  20.497  16.130  0.00  0.00    +0.002 A 
ATOM     11  C   UNL     1      28.085  21.567  16.839  0.00  0.00    +0.015 A 
ATOM     12  C   UNL     1      29.394  21.495  17.325  0.00  0.00    +0.017 A 
ATOM     13  C   UNL     1      30.203  20.409  16.961  0.00  0.00    +0.028 A 
BRANCH  12  14
ATOM     14  S   UNL     1      30.046  22.773  18.380  0.00  0.00    -0.016 S 
BRANCH  14  15
ATOM     15  C   UNL     1      29.139  22.462  19.911  0.00  0.00    +0.448 C 
ATOM     16  F   UNL     1      29.819  22.799  21.033  0.00  0.00    -0.160 F 
ATOM     17  F   UNL     1      27.974  23.152  19.933  0.00  0.00    -0.160 F 
ATOM     18  F   UNL     1      28.826  21.147  20.022  0.00  0.00    -0.160 F 
ENDBRANCH  14  15
ENDBRANCH  12  14
ENDBRANCH   5   8
BRANCH   1  20
ATOM     19  N   UNL     1      35.190  17.405  15.981  0.00  0.00    -0.329 N 
ATOM     20  C   UNL     1      35.113  17.987  14.753  0.00  0.00    +0.215 C 
ATOM     21  O   UNL     1      36.089  18.575  14.296  0.00  0.00    -0.276 OA
ATOM     22  H   UNL     1      36.090  17.444  16.442  0.00  0.00    +0.145 HD
ATOM     23  H   UNL     1      34.488  16.777  16.345  0.00  0.00    +0.145 HD
ENDBRANCH   1  20
TORSDOF 4
ENDMDL
MODEL 6
REMARK VINA RESULT:      -5.7      2.971      5.137
REMARK  Name = ZINC000826139982
REMARK  4 active torsions:
REMARK  status: ('A' for Active; 'I' for Inactive)
REMARK    1  A    between atoms: C_2  and  C_4
REMARK    2  A    between atoms: C_8  and  C_10
REMARK    3  A    between atoms: C_14  and  S_15
REMARK    4  A    between atoms: S_15  and  C_16
REMARK                            x       y       z     vdW  Elec       q    Type
REMARK                         _______ _______ _______ _____ _____    ______ ____
ROOT
ATOM      1  C   UNL     1      28.504  22.714  18.820  0.00  0.00    +0.093 C 
ATOM      2  C   UNL     1      28.101  22.232  17.427  0.00  0.00    +0.033 C 
ATOM      3  C   UNL     1      29.265  21.326  17.055  0.00  0.00    +0.109 C 
ATOM      4  N   UNL     1      30.413  22.097  17.510  0.00  0.00    -0.297 N 
ATOM      5  C   UNL     1      31.730  22.128  17.072  0.00  0.00    +0.247 C 
ATOM      6  O   UNL     1      32.587  22.766  17.690  0.00  0.00    -0.270 OA
ATOM      7  C   UNL     1      30.031  22.835  18.717  0.00  0.00    +0.120 C 
ENDROOT
BRANCH   5   8
ATOM      8  C   UNL     1      32.177  21.378  15.858  0.00  0.00    +0.038 A 
ATOM      9  C   UNL     1      32.877  21.963  14.803  0.00  0.00    +0.013 A 
ATOM     10  C   UNL     1      33.187  21.232  13.655  0.00  0.00    +0.002 A 
ATOM     11  C   UNL     1      32.926  19.866  13.609  0.00  0.00    +0.015 A 
ATOM     12  C   UNL     1      32.389  19.220  14.727  0.00  0.00    +0.017 A 
ATOM     13  C   UNL     1      31.977  19.984  15.829  0.00  0.00    +0.028 A 
BRANCH  12  14
ATOM     14  S   UNL     1      32.208  17.449  14.757  0.00  0.00    -0.016 S 
BRANCH  14  15
ATOM     15  C   UNL     1      30.411  17.280  14.822  0.00  0.00    +0.448 C 
ATOM     16  F   UNL     1      29.938  16.873  16.025  0.00  0.00    -0.160 F 
ATOM     17  F   UNL     1      29.803  18.456  14.536  0.00  0.00    -0.160 F 
ATOM     18  F   UNL     1      29.983  16.376  13.906  0.00  0.00    -0.160 F 
ENDBRANCH  14  15
ENDBRANCH  12  14
ENDBRANCH   5   8
BRANCH   1  20
ATOM     19  N   UNL     1      26.852  21.107  19.649  0.00  0.00    -0.329 N 
ATOM     20  C   UNL     1      28.045  21.721  19.878  0.00  0.00    +0.215 C 
ATOM     21  O   UNL     1      28.700  21.426  20.872  0.00  0.00    -0.276 OA
ATOM     22  H   UNL     1      26.586  20.382  20.302  0.00  0.00    +0.145 HD
ATOM     23  H   UNL     1      26.343  21.184  18.779  0.00  0.00    +0.145 HD
ENDBRANCH   1  20
TORSDOF 4
ENDMDL
MODEL 7
REMARK VINA RESULT:      -5.7      4.349      5.769
REMARK  Name = ZINC000826139982
REMARK  4 active torsions:
REMARK  status: ('A' for Active; 'I' for Inactive)
REMARK    1  A    between atoms: C_2  and  C_4
REMARK    2  A    between atoms: C_8  and  C_10
REMARK    3  A    between atoms: C_14  and  S_15
REMARK    4  A    between atoms: S_15  and  C_16
REMARK                            x       y       z     vdW  Elec       q    Type
REMARK                         _______ _______ _______ _____ _____    ______ ____
ROOT
ATOM      1  C   UNL     1      27.554  21.927  19.697  0.00  0.00    +0.093 C 
ATOM      2  C   UNL     1      29.066  21.864  19.916  0.00  0.00    +0.033 C 
ATOM      3  C   UNL     1      29.593  21.841  18.489  0.00  0.00    +0.109 C 
ATOM      4  N   UNL     1      28.677  20.916  17.837  0.00  0.00    -0.297 N 
ATOM      5  C   UNL     1      28.844  20.077  16.742  0.00  0.00    +0.247 C 
ATOM      6  O   UNL     1      27.885  19.462  16.266  0.00  0.00    -0.270 OA
ATOM      7  C   UNL     1      27.350  21.069  18.439  0.00  0.00    +0.120 C 
ENDROOT
BRANCH   5   8
ATOM      8  C   UNL     1      30.171  19.899  16.078  0.00  0.00    +0.038 A 
ATOM      9  C   UNL     1      30.643  20.727  15.060  0.00  0.00    +0.013 A 
ATOM     10  C   UNL     1      31.852  20.456  14.416  0.00  0.00    +0.002 A 
ATOM     11  C   UNL     1      32.671  19.432  14.881  0.00  0.00    +0.015 A 
ATOM     12  C   UNL     1      32.303  18.702  16.014  0.00  0.00    +0.017 A 
ATOM     13  C   UNL     1      31.037  18.909  16.582  0.00  0.00    +0.028 A 
BRANCH  12  14
ATOM     14  S   UNL     1      33.412  17.507  16.731  0.00  0.00    -0.016 S 
BRANCH  14  15
ATOM     15  C   UNL     1      34.364  18.544  17.863  0.00  0.00    +0.448 C 
ATOM     16  F   UNL     1      33.957  19.835  17.903  0.00  0.00    -0.160 F 
ATOM     17  F   UNL     1      34.295  18.068  19.129  0.00  0.00    -0.160 F 
ATOM     18  F   UNL     1      35.674  18.555  17.512  0.00  0.00    -0.160 F 
ENDBRANCH  14  15
ENDBRANCH  12  14
ENDBRANCH   5   8
BRANCH   1  20
ATOM     19  N   UNL     1      25.811  23.553  19.139  0.00  0.00    -0.329 N 
ATOM     20  C   UNL     1      27.103  23.369  19.527  0.00  0.00    +0.215 C 
ATOM     21  O   UNL     1      27.813  24.343  19.759  0.00  0.00    -0.276 OA
ATOM     22  H   UNL     1      25.482  24.509  19.112  0.00  0.00    +0.145 HD
ATOM     23  H   UNL     1      25.133  22.807  19.087  0.00  0.00    +0.145 HD
ENDBRANCH   1  20
TORSDOF 4
ENDMDL
MODEL 8
REMARK VINA RESULT:      -5.6      4.551      5.948
REMARK  Name = ZINC000826139982
REMARK  4 active torsions:
REMARK  status: ('A' for Active; 'I' for Inactive)
REMARK    1  A    between atoms: C_2  and  C_4
REMARK    2  A    between atoms: C_8  and  C_10
REMARK    3  A    between atoms: C_14  and  S_15
REMARK    4  A    between atoms: S_15  and  C_16
REMARK                            x       y       z     vdW  Elec       q    Type
REMARK                         _______ _______ _______ _____ _____    ______ ____
ROOT
ATOM      1  C   UNL     1      32.958  24.957  22.036  0.00  0.00    +0.093 C 
ATOM      2  C   UNL     1      31.753  24.188  22.579  0.00  0.00    +0.033 C 
ATOM      3  C   UNL     1      31.277  23.432  21.348  0.00  0.00    +0.109 C 
ATOM      4  N   UNL     1      31.381  24.445  20.306  0.00  0.00    -0.297 N 
ATOM      5  C   UNL     1      30.682  24.614  19.117  0.00  0.00    +0.247 C 
ATOM      6  O   UNL     1      31.021  25.477  18.304  0.00  0.00    -0.270 OA
ATOM      7  C   UNL     1      32.530  25.305  20.603  0.00  0.00    +0.120 C 
ENDROOT
BRANCH   5   8
ATOM      8  C   UNL     1      29.516  23.752  18.757  0.00  0.00    +0.038 A 
ATOM      9  C   UNL     1      28.330  23.710  19.491  0.00  0.00    +0.013 A 
ATOM     10  C   UNL     1      27.310  22.817  19.156  0.00  0.00    +0.002 A 
ATOM     11  C   UNL     1      27.407  22.055  17.997  0.00  0.00    +0.015 A 
ATOM     12  C   UNL     1      28.506  22.212  17.147  0.00  0.00    +0.017 A 
ATOM     13  C   UNL     1      29.574  23.026  17.552  0.00  0.00    +0.028 A 
BRANCH  12  14
ATOM     14  S   UNL     1      28.570  21.379  15.575  0.00  0.00    -0.016 S 
BRANCH  14  15
ATOM     15  C   UNL     1      28.231  19.674  16.065  0.00  0.00    +0.448 C 
ATOM     16  F   UNL     1      28.768  19.326  17.259  0.00  0.00    -0.160 F 
ATOM     17  F   UNL     1      26.898  19.450  16.149  0.00  0.00    -0.160 F 
ATOM     18  F   UNL     1      28.724  18.807  15.146  0.00  0.00    -0.160 F 
ENDBRANCH  14  15
ENDBRANCH  12  14
ENDBRANCH   5   8
BRANCH   1  20
ATOM     19  N   UNL     1      34.950  24.021  20.963  0.00  0.00    -0.329 N 
ATOM     20  C   UNL     1      34.210  24.096  22.103  0.00  0.00    +0.215 C 
ATOM     21  O   UNL     1      34.594  23.521  23.116  0.00  0.00    -0.276 OA
ATOM     22  H   UNL     1      35.829  23.525  21.028  0.00  0.00    +0.145 HD
ATOM     23  H   UNL     1      34.778  24.594  20.149  0.00  0.00    +0.145 HD
ENDBRANCH   1  20
TORSDOF 4
ENDMDL
MODEL 9
REMARK VINA RESULT:      -5.6      3.392      4.687
REMARK  Name = ZINC000826139982
REMARK  4 active torsions:
REMARK  status: ('A' for Active; 'I' for Inactive)
REMARK    1  A    between atoms: C_2  and  C_4
REMARK    2  A    between atoms: C_8  and  C_10
REMARK    3  A    between atoms: C_14  and  S_15
REMARK    4  A    between atoms: S_15  and  C_16
REMARK                            x       y       z     vdW  Elec       q    Type
REMARK                         _______ _______ _______ _____ _____    ______ ____
ROOT
ATOM      1  C   UNL     1      29.081  23.288  17.912  0.00  0.00    +0.093 C 
ATOM      2  C   UNL     1      29.265  21.915  18.556  0.00  0.00    +0.033 C 
ATOM      3  C   UNL     1      30.267  21.256  17.620  0.00  0.00    +0.109 C 
ATOM      4  N   UNL     1      29.764  21.644  16.309  0.00  0.00    -0.297 N 
ATOM      5  C   UNL     1      29.865  21.028  15.068  0.00  0.00    +0.247 C 
ATOM      6  O   UNL     1      29.473  21.598  14.047  0.00  0.00    -0.270 OA
ATOM      7  C   UNL     1      29.179  22.984  16.410  0.00  0.00    +0.120 C 
ENDROOT
BRANCH   5   8
ATOM      8  C   UNL     1      30.470  19.671  14.906  0.00  0.00    +0.038 A 
ATOM      9  C   UNL     1      29.727  18.490  14.895  0.00  0.00    +0.013 A 
ATOM     10  C   UNL     1      30.357  17.246  14.832  0.00  0.00    +0.002 A 
ATOM     11  C   UNL     1      31.733  17.173  14.636  0.00  0.00    +0.015 A 
ATOM     12  C   UNL     1      32.476  18.344  14.463  0.00  0.00    +0.017 A 
ATOM     13  C   UNL     1      31.851  19.587  14.642  0.00  0.00    +0.028 A 
BRANCH  12  14
ATOM     14  S   UNL     1      34.204  18.273  14.038  0.00  0.00    -0.016 S 
BRANCH  14  15
ATOM     15  C   UNL     1      34.124  18.259  12.234  0.00  0.00    +0.448 C 
ATOM     16  F   UNL     1      33.338  17.280  11.725  0.00  0.00    -0.160 F 
ATOM     17  F   UNL     1      33.646  19.435  11.761  0.00  0.00    -0.160 F 
ATOM     18  F   UNL     1      35.359  18.087  11.702  0.00  0.00    -0.160 F 
ENDBRANCH  14  15
ENDBRANCH  12  14
ENDBRANCH   5   8
BRANCH   1  20
ATOM     19  N   UNL     1      30.736  25.036  17.460  0.00  0.00    -0.329 N 
ATOM     20  C   UNL     1      30.148  24.253  18.406  0.00  0.00    +0.215 C 
ATOM     21  O   UNL     1      30.462  24.384  19.585  0.00  0.00    -0.276 OA
ATOM     22  H   UNL     1      31.380  25.740  17.796  0.00  0.00    +0.145 HD
ATOM     23  H   UNL     1      30.414  25.092  16.505  0.00  0.00    +0.145 HD
ENDBRANCH   1  20
TORSDOF 4
ENDMDL
