MODEL 1
REMARK VINA RESULT:      -6.3      0.000      0.000
REMARK  Name = ZINC001228612316
REMARK  5 active torsions:
REMARK  status: ('A' for Active; 'I' for Inactive)
REMARK    1  A    between atoms: C_2  and  C_4
REMARK    2  A    between atoms: C_8  and  O_9
REMARK    3  A    between atoms: O_9  and  C_10
REMARK    4  A    between atoms: C_10  and  C_11
REMARK    5  A    between atoms: C_10  and  C_17
REMARK                            x       y       z     vdW  Elec       q    Type
REMARK                         _______ _______ _______ _____ _____    ______ ____
ROOT
ATOM      1  C   UNL     1      27.790  21.667  18.500  0.00  0.00    +0.040 A 
ATOM      2  C   UNL     1      26.637  21.370  17.764  0.00  0.00    +0.013 A 
ATOM      3  C   UNL     1      26.746  20.849  16.475  0.00  0.00    +0.004 A 
ATOM      4  C   UNL     1      28.004  20.619  15.912  0.00  0.00    +0.046 A 
ATOM      5  C   UNL     1      29.160  20.915  16.633  0.00  0.00    +0.122 A 
ATOM      6  C   UNL     1      29.048  21.436  17.929  0.00  0.00    +0.058 A 
ENDROOT
BRANCH   1   8
ATOM      7  N   UNL     1      28.741  22.295  20.661  0.00  0.00    -0.325 N 
ATOM      8  C   UNL     1      27.622  22.205  19.877  0.00  0.00    +0.242 C 
ATOM      9  O   UNL     1      26.535  22.590  20.290  0.00  0.00    -0.270 OA
ATOM     10  H   UNL     1      28.623  22.761  21.552  0.00  0.00    +0.145 HD
ATOM     11  H   UNL     1      29.676  22.220  20.290  0.00  0.00    +0.145 HD
ENDBRANCH   1   8
BRANCH   5  12
ATOM     12  O   UNL     1      30.441  20.803  16.166  0.00  0.00    -0.484 OA
BRANCH  12  13
ATOM     13  C   UNL     1      31.218  19.655  16.543  0.00  0.00    +0.208 C 
BRANCH  13  14
ATOM     14  C   UNL     1      31.438  18.679  15.403  0.00  0.00    +0.011 A 
ATOM     15  C   UNL     1      30.587  17.603  15.138  0.00  0.00    +0.010 A 
ATOM     16  C   UNL     1      30.811  16.806  14.017  0.00  0.00    +0.020 A 
ATOM     17  C   UNL     1      31.880  17.113  13.192  0.00  0.00    +0.111 A 
ATOM     18  N   UNL     1      32.730  18.136  13.417  0.00  0.00    -0.263 NA
ATOM     19  C   UNL     1      32.489  18.893  14.509  0.00  0.00    +0.118 A 
ENDBRANCH  13  14
BRANCH  13  20
ATOM     20  C   UNL     1      32.593  20.110  17.021  0.00  0.00    +0.034 C 
ATOM     21  C   UNL     1      33.355  19.304  18.045  0.00  0.00    +0.008 C 
ATOM     22  C   UNL     1      32.843  20.673  18.402  0.00  0.00    +0.008 C 
ENDBRANCH  13  20
ENDBRANCH  12  13
ENDBRANCH   5  12
TORSDOF 5
ENDMDL
MODEL 2
REMARK VINA RESULT:      -6.3      1.688      2.234
REMARK  Name = ZINC001228612316
REMARK  5 active torsions:
REMARK  status: ('A' for Active; 'I' for Inactive)
REMARK    1  A    between atoms: C_2  and  C_4
REMARK    2  A    between atoms: C_8  and  O_9
REMARK    3  A    between atoms: O_9  and  C_10
REMARK    4  A    between atoms: C_10  and  C_11
REMARK    5  A    between atoms: C_10  and  C_17
REMARK                            x       y       z     vdW  Elec       q    Type
REMARK                         _______ _______ _______ _____ _____    ______ ____
ROOT
ATOM      1  C   UNL     1      27.744  21.277  17.761  0.00  0.00    +0.040 A 
ATOM      2  C   UNL     1      27.740  21.908  19.010  0.00  0.00    +0.013 A 
ATOM      3  C   UNL     1      28.941  22.308  19.596  0.00  0.00    +0.004 A 
ATOM      4  C   UNL     1      30.154  22.082  18.939  0.00  0.00    +0.046 A 
ATOM      5  C   UNL     1      30.171  21.451  17.695  0.00  0.00    +0.122 A 
ATOM      6  C   UNL     1      28.963  21.052  17.109  0.00  0.00    +0.058 A 
ENDROOT
BRANCH   1   8
ATOM      7  N   UNL     1      25.715  19.918  17.818  0.00  0.00    -0.325 N 
ATOM      8  C   UNL     1      26.436  20.885  17.171  0.00  0.00    +0.242 C 
ATOM      9  O   UNL     1      25.994  21.427  16.165  0.00  0.00    -0.270 OA
ATOM     10  H   UNL     1      24.784  19.743  17.461  0.00  0.00    +0.145 HD
ATOM     11  H   UNL     1      25.919  19.622  18.760  0.00  0.00    +0.145 HD
ENDBRANCH   1   8
BRANCH   5  12
ATOM     12  O   UNL     1      31.294  21.111  16.990  0.00  0.00    -0.484 OA
BRANCH  12  13
ATOM     13  C   UNL     1      31.803  19.772  17.103  0.00  0.00    +0.208 C 
BRANCH  13  14
ATOM     14  C   UNL     1      31.816  19.022  15.785  0.00  0.00    +0.011 A 
ATOM     15  C   UNL     1      30.977  17.938  15.511  0.00  0.00    +0.010 A 
ATOM     16  C   UNL     1      30.989  17.360  14.243  0.00  0.00    +0.020 A 
ATOM     17  C   UNL     1      31.840  17.888  13.285  0.00  0.00    +0.111 A 
ATOM     18  N   UNL     1      32.670  18.926  13.512  0.00  0.00    -0.263 NA
ATOM     19  C   UNL     1      32.637  19.467  14.749  0.00  0.00    +0.118 A 
ENDBRANCH  13  14
BRANCH  13  20
ATOM     20  C   UNL     1      33.241  19.821  17.610  0.00  0.00    +0.034 C 
ATOM     21  C   UNL     1      33.835  18.643  18.345  0.00  0.00    +0.008 C 
ATOM     22  C   UNL     1      33.597  19.936  19.075  0.00  0.00    +0.008 C 
ENDBRANCH  13  20
ENDBRANCH  12  13
ENDBRANCH   5  12
TORSDOF 5
ENDMDL
MODEL 3
REMARK VINA RESULT:      -6.2      3.757      6.189
REMARK  Name = ZINC001228612316
REMARK  5 active torsions:
REMARK  status: ('A' for Active; 'I' for Inactive)
REMARK    1  A    between atoms: C_2  and  C_4
REMARK    2  A    between atoms: C_8  and  O_9
REMARK    3  A    between atoms: O_9  and  C_10
REMARK    4  A    between atoms: C_10  and  C_11
REMARK    5  A    between atoms: C_10  and  C_17
REMARK                            x       y       z     vdW  Elec       q    Type
REMARK                         _______ _______ _______ _____ _____    ______ ____
ROOT
ATOM      1  C   UNL     1      23.830  24.282  18.560  0.00  0.00    +0.040 A 
ATOM      2  C   UNL     1      23.902  25.278  19.541  0.00  0.00    +0.013 A 
ATOM      3  C   UNL     1      24.925  25.253  20.490  0.00  0.00    +0.004 A 
ATOM      4  C   UNL     1      25.882  24.235  20.466  0.00  0.00    +0.046 A 
ATOM      5  C   UNL     1      25.818  23.234  19.496  0.00  0.00    +0.122 A 
ATOM      6  C   UNL     1      24.792  23.264  18.543  0.00  0.00    +0.058 A 
ENDROOT
BRANCH   1   8
ATOM      7  N   UNL     1      23.072  24.265  16.238  0.00  0.00    -0.325 N 
ATOM      8  C   UNL     1      22.732  24.363  17.560  0.00  0.00    +0.242 C 
ATOM      9  O   UNL     1      21.560  24.475  17.898  0.00  0.00    -0.270 OA
ATOM     10  H   UNL     1      22.302  24.215  15.583  0.00  0.00    +0.145 HD
ATOM     11  H   UNL     1      23.974  23.936  15.929  0.00  0.00    +0.145 HD
ENDBRANCH   1   8
BRANCH   5  12
ATOM     12  O   UNL     1      26.650  22.151  19.414  0.00  0.00    -0.484 OA
BRANCH  12  13
ATOM     13  C   UNL     1      27.653  22.123  18.385  0.00  0.00    +0.208 C 
BRANCH  13  14
ATOM     14  C   UNL     1      29.067  22.058  18.928  0.00  0.00    +0.011 A 
ATOM     15  C   UNL     1      30.169  21.677  18.157  0.00  0.00    +0.010 A 
ATOM     16  C   UNL     1      31.447  21.728  18.708  0.00  0.00    +0.020 A 
ATOM     17  C   UNL     1      31.585  22.163  20.017  0.00  0.00    +0.111 A 
ATOM     18  N   UNL     1      30.548  22.529  20.797  0.00  0.00    -0.263 NA
ATOM     19  C   UNL     1      29.320  22.471  20.236  0.00  0.00    +0.118 A 
ENDBRANCH  13  14
BRANCH  13  20
ATOM     20  C   UNL     1      27.446  20.891  17.511  0.00  0.00    +0.034 C 
ATOM     21  C   UNL     1      27.659  20.965  16.018  0.00  0.00    +0.008 C 
ATOM     22  C   UNL     1      26.276  20.737  16.564  0.00  0.00    +0.008 C 
ENDBRANCH  13  20
ENDBRANCH  12  13
ENDBRANCH   5  12
TORSDOF 5
ENDMDL
MODEL 4
REMARK VINA RESULT:      -6.2      1.904      2.597
REMARK  Name = ZINC001228612316
REMARK  5 active torsions:
REMARK  status: ('A' for Active; 'I' for Inactive)
REMARK    1  A    between atoms: C_2  and  C_4
REMARK    2  A    between atoms: C_8  and  O_9
REMARK    3  A    between atoms: O_9  and  C_10
REMARK    4  A    between atoms: C_10  and  C_11
REMARK    5  A    between atoms: C_10  and  C_17
REMARK                            x       y       z     vdW  Elec       q    Type
REMARK                         _______ _______ _______ _____ _____    ______ ____
ROOT
ATOM      1  C   UNL     1      28.882  21.841  18.506  0.00  0.00    +0.040 A 
ATOM      2  C   UNL     1      27.529  21.692  18.831  0.00  0.00    +0.013 A 
ATOM      3  C   UNL     1      26.643  21.145  17.903  0.00  0.00    +0.004 A 
ATOM      4  C   UNL     1      27.100  20.744  16.645  0.00  0.00    +0.046 A 
ATOM      5  C   UNL     1      28.445  20.892  16.308  0.00  0.00    +0.122 A 
ATOM      6  C   UNL     1      29.333  21.439  17.243  0.00  0.00    +0.058 A 
ENDROOT
BRANCH   1   8
ATOM      7  N   UNL     1      29.302  23.427  20.316  0.00  0.00    -0.325 N 
ATOM      8  C   UNL     1      29.790  22.413  19.536  0.00  0.00    +0.242 C 
ATOM      9  O   UNL     1      30.920  21.975  19.714  0.00  0.00    -0.270 OA
ATOM     10  H   UNL     1      29.897  23.727  21.078  0.00  0.00    +0.145 HD
ATOM     11  H   UNL     1      28.321  23.651  20.370  0.00  0.00    +0.145 HD
ENDBRANCH   1   8
BRANCH   5  12
ATOM     12  O   UNL     1      28.997  20.605  15.089  0.00  0.00    -0.484 OA
BRANCH  12  13
ATOM     13  C   UNL     1      30.425  20.476  14.988  0.00  0.00    +0.208 C 
BRANCH  13  14
ATOM     14  C   UNL     1      30.915  19.055  15.186  0.00  0.00    +0.011 A 
ATOM     15  C   UNL     1      30.568  17.999  14.339  0.00  0.00    +0.010 A 
ATOM     16  C   UNL     1      31.132  16.740  14.539  0.00  0.00    +0.020 A 
ATOM     17  C   UNL     1      32.030  16.578  15.582  0.00  0.00    +0.111 A 
ATOM     18  N   UNL     1      32.383  17.568  16.426  0.00  0.00    -0.263 NA
ATOM     19  C   UNL     1      31.822  18.777  16.208  0.00  0.00    +0.118 A 
ENDBRANCH  13  14
BRANCH  13  20
ATOM     20  C   UNL     1      30.874  20.921  13.600  0.00  0.00    +0.034 C 
ATOM     21  C   UNL     1      32.339  21.127  13.297  0.00  0.00    +0.008 C 
ATOM     22  C   UNL     1      31.406  22.307  13.308  0.00  0.00    +0.008 C 
ENDBRANCH  13  20
ENDBRANCH  12  13
ENDBRANCH   5  12
TORSDOF 5
ENDMDL
MODEL 5
REMARK VINA RESULT:      -6.2      3.015      5.148
REMARK  Name = ZINC001228612316
REMARK  5 active torsions:
REMARK  status: ('A' for Active; 'I' for Inactive)
REMARK    1  A    between atoms: C_2  and  C_4
REMARK    2  A    between atoms: C_8  and  O_9
REMARK    3  A    between atoms: O_9  and  C_10
REMARK    4  A    between atoms: C_10  and  C_11
REMARK    5  A    between atoms: C_10  and  C_17
REMARK                            x       y       z     vdW  Elec       q    Type
REMARK                         _______ _______ _______ _____ _____    ______ ____
ROOT
ATOM      1  C   UNL     1      29.988  19.933  15.691  0.00  0.00    +0.040 A 
ATOM      2  C   UNL     1      31.006  20.052  16.643  0.00  0.00    +0.013 A 
ATOM      3  C   UNL     1      32.056  19.133  16.663  0.00  0.00    +0.004 A 
ATOM      4  C   UNL     1      32.097  18.091  15.734  0.00  0.00    +0.046 A 
ATOM      5  C   UNL     1      31.085  17.959  14.783  0.00  0.00    +0.122 A 
ATOM      6  C   UNL     1      30.034  18.885  14.764  0.00  0.00    +0.058 A 
ENDROOT
BRANCH   1   8
ATOM      7  N   UNL     1      29.167  22.165  15.134  0.00  0.00    -0.325 N 
ATOM      8  C   UNL     1      28.900  20.947  15.700  0.00  0.00    +0.242 C 
ATOM      9  O   UNL     1      27.792  20.700  16.159  0.00  0.00    -0.270 OA
ATOM     10  H   UNL     1      28.383  22.800  15.056  0.00  0.00    +0.145 HD
ATOM     11  H   UNL     1      29.965  22.329  14.540  0.00  0.00    +0.145 HD
ENDBRANCH   1   8
BRANCH   5  12
ATOM     12  O   UNL     1      30.976  16.944  13.871  0.00  0.00    -0.484 OA
BRANCH  12  13
ATOM     13  C   UNL     1      32.171  16.423  13.268  0.00  0.00    +0.208 C 
BRANCH  13  14
ATOM     14  C   UNL     1      32.244  14.909  13.292  0.00  0.00    +0.011 A 
ATOM     15  C   UNL     1      32.908  14.188  14.288  0.00  0.00    +0.010 A 
ATOM     16  C   UNL     1      32.853  12.796  14.286  0.00  0.00    +0.020 A 
ATOM     17  C   UNL     1      32.130  12.166  13.286  0.00  0.00    +0.111 A 
ATOM     18  N   UNL     1      31.484  12.824  12.302  0.00  0.00    -0.263 NA
ATOM     19  C   UNL     1      31.553  14.172  12.329  0.00  0.00    +0.118 A 
ENDBRANCH  13  14
BRANCH  13  20
ATOM     20  C   UNL     1      32.228  16.856  11.806  0.00  0.00    +0.034 C 
ATOM     21  C   UNL     1      33.553  16.964  11.089  0.00  0.00    +0.008 C 
ATOM     22  C   UNL     1      32.749  18.205  11.364  0.00  0.00    +0.008 C 
ENDBRANCH  13  20
ENDBRANCH  12  13
ENDBRANCH   5  12
TORSDOF 5
ENDMDL
MODEL 6
REMARK VINA RESULT:      -6.1      2.119      3.068
REMARK  Name = ZINC001228612316
REMARK  5 active torsions:
REMARK  status: ('A' for Active; 'I' for Inactive)
REMARK    1  A    between atoms: C_2  and  C_4
REMARK    2  A    between atoms: C_8  and  O_9
REMARK    3  A    between atoms: O_9  and  C_10
REMARK    4  A    between atoms: C_10  and  C_11
REMARK    5  A    between atoms: C_10  and  C_17
REMARK                            x       y       z     vdW  Elec       q    Type
REMARK                         _______ _______ _______ _____ _____    ______ ____
ROOT
ATOM      1  C   UNL     1      28.010  21.596  18.469  0.00  0.00    +0.040 A 
ATOM      2  C   UNL     1      26.809  21.240  17.844  0.00  0.00    +0.013 A 
ATOM      3  C   UNL     1      26.825  20.681  16.566  0.00  0.00    +0.004 A 
ATOM      4  C   UNL     1      28.037  20.474  15.903  0.00  0.00    +0.046 A 
ATOM      5  C   UNL     1      29.240  20.828  16.514  0.00  0.00    +0.122 A 
ATOM      6  C   UNL     1      29.222  21.387  17.798  0.00  0.00    +0.058 A 
ENDROOT
BRANCH   1   8
ATOM      7  N   UNL     1      29.126  22.446  20.468  0.00  0.00    -0.325 N 
ATOM      8  C   UNL     1      27.942  22.171  19.839  0.00  0.00    +0.242 C 
ATOM      9  O   UNL     1      26.872  22.429  20.378  0.00  0.00    -0.270 OA
ATOM     10  H   UNL     1      29.057  22.934  21.353  0.00  0.00    +0.145 HD
ATOM     11  H   UNL     1      30.009  22.478  19.983  0.00  0.00    +0.145 HD
ENDBRANCH   1   8
BRANCH   5  12
ATOM     12  O   UNL     1      30.480  20.742  15.941  0.00  0.00    -0.484 OA
BRANCH  12  13
ATOM     13  C   UNL     1      30.605  20.131  14.646  0.00  0.00    +0.208 C 
BRANCH  13  14
ATOM     14  C   UNL     1      31.421  20.956  13.670  0.00  0.00    +0.011 A 
ATOM     15  C   UNL     1      32.552  20.467  13.011  0.00  0.00    +0.010 A 
ATOM     16  C   UNL     1      33.194  21.261  12.062  0.00  0.00    +0.020 A 
ATOM     17  C   UNL     1      32.681  22.520  11.799  0.00  0.00    +0.111 A 
ATOM     18  N   UNL     1      31.598  23.032  12.420  0.00  0.00    -0.263 NA
ATOM     19  C   UNL     1      30.995  22.241  13.333  0.00  0.00    +0.118 A 
ENDBRANCH  13  14
BRANCH  13  20
ATOM     20  C   UNL     1      31.300  18.781  14.790  0.00  0.00    +0.034 C 
ATOM     21  C   UNL     1      30.794  17.574  14.037  0.00  0.00    +0.008 C 
ATOM     22  C   UNL     1      30.692  17.614  15.537  0.00  0.00    +0.008 C 
ENDBRANCH  13  20
ENDBRANCH  12  13
ENDBRANCH   5  12
TORSDOF 5
ENDMDL
MODEL 7
REMARK VINA RESULT:      -6.1      3.743      6.477
REMARK  Name = ZINC001228612316
REMARK  5 active torsions:
REMARK  status: ('A' for Active; 'I' for Inactive)
REMARK    1  A    between atoms: C_2  and  C_4
REMARK    2  A    between atoms: C_8  and  O_9
REMARK    3  A    between atoms: O_9  and  C_10
REMARK    4  A    between atoms: C_10  and  C_11
REMARK    5  A    between atoms: C_10  and  C_17
REMARK                            x       y       z     vdW  Elec       q    Type
REMARK                         _______ _______ _______ _____ _____    ______ ____
ROOT
ATOM      1  C   UNL     1      31.582  23.533  12.145  0.00  0.00    +0.040 A 
ATOM      2  C   UNL     1      32.886  23.041  12.016  0.00  0.00    +0.013 A 
ATOM      3  C   UNL     1      33.211  21.781  12.520  0.00  0.00    +0.004 A 
ATOM      4  C   UNL     1      32.238  21.004  13.154  0.00  0.00    +0.046 A 
ATOM      5  C   UNL     1      30.936  21.485  13.293  0.00  0.00    +0.122 A 
ATOM      6  C   UNL     1      30.612  22.750  12.784  0.00  0.00    +0.058 A 
ENDROOT
BRANCH   1   8
ATOM      7  N   UNL     1      30.039  25.398  11.815  0.00  0.00    -0.325 N 
ATOM      8  C   UNL     1      31.281  24.874  11.576  0.00  0.00    +0.242 C 
ATOM      9  O   UNL     1      32.119  25.511  10.949  0.00  0.00    -0.270 OA
ATOM     10  H   UNL     1      29.893  26.352  11.511  0.00  0.00    +0.145 HD
ATOM     11  H   UNL     1      29.414  25.027  12.514  0.00  0.00    +0.145 HD
ENDBRANCH   1   8
BRANCH   5  12
ATOM     12  O   UNL     1      29.919  20.853  13.955  0.00  0.00    -0.484 OA
BRANCH  12  13
ATOM     13  C   UNL     1      30.198  20.227  15.218  0.00  0.00    +0.208 C 
BRANCH  13  14
ATOM     14  C   UNL     1      29.312  20.727  16.343  0.00  0.00    +0.011 A 
ATOM     15  C   UNL     1      27.917  20.647  16.315  0.00  0.00    +0.010 A 
ATOM     16  C   UNL     1      27.181  21.047  17.428  0.00  0.00    +0.020 A 
ATOM     17  C   UNL     1      27.865  21.514  18.538  0.00  0.00    +0.111 A 
ATOM     18  N   UNL     1      29.208  21.616  18.602  0.00  0.00    -0.263 NA
ATOM     19  C   UNL     1      29.897  21.219  17.510  0.00  0.00    +0.118 A 
ENDBRANCH  13  14
BRANCH  13  20
ATOM     20  C   UNL     1      29.972  18.724  15.097  0.00  0.00    +0.034 C 
ATOM     21  C   UNL     1      30.936  17.750  15.730  0.00  0.00    +0.008 C 
ATOM     22  C   UNL     1      30.829  17.827  14.231  0.00  0.00    +0.008 C 
ENDBRANCH  13  20
ENDBRANCH  12  13
ENDBRANCH   5  12
TORSDOF 5
ENDMDL
MODEL 8
REMARK VINA RESULT:      -6.1      2.577      6.394
REMARK  Name = ZINC001228612316
REMARK  5 active torsions:
REMARK  status: ('A' for Active; 'I' for Inactive)
REMARK    1  A    between atoms: C_2  and  C_4
REMARK    2  A    between atoms: C_8  and  O_9
REMARK    3  A    between atoms: O_9  and  C_10
REMARK    4  A    between atoms: C_10  and  C_11
REMARK    5  A    between atoms: C_10  and  C_17
REMARK                            x       y       z     vdW  Elec       q    Type
REMARK                         _______ _______ _______ _____ _____    ______ ____
ROOT
ATOM      1  C   UNL     1      32.117  17.715  16.447  0.00  0.00    +0.040 A 
ATOM      2  C   UNL     1      31.151  17.279  15.533  0.00  0.00    +0.013 A 
ATOM      3  C   UNL     1      30.198  18.172  15.044  0.00  0.00    +0.004 A 
ATOM      4  C   UNL     1      30.202  19.505  15.463  0.00  0.00    +0.046 A 
ATOM      5  C   UNL     1      31.157  19.950  16.377  0.00  0.00    +0.122 A 
ATOM      6  C   UNL     1      32.114  19.052  16.864  0.00  0.00    +0.058 A 
ENDROOT
BRANCH   1   8
ATOM      7  N   UNL     1      33.544  15.775  16.038  0.00  0.00    -0.325 N 
ATOM      8  C   UNL     1      33.123  16.729  16.925  0.00  0.00    +0.242 C 
ATOM      9  O   UNL     1      33.591  16.782  18.056  0.00  0.00    -0.270 OA
ATOM     10  H   UNL     1      34.304  15.183  16.350  0.00  0.00    +0.145 HD
ATOM     11  H   UNL     1      33.373  15.837  15.047  0.00  0.00    +0.145 HD
ENDBRANCH   1   8
BRANCH   5  12
ATOM     12  O   UNL     1      31.219  21.207  16.916  0.00  0.00    -0.484 OA
BRANCH  12  13
ATOM     13  C   UNL     1      30.809  21.397  18.280  0.00  0.00    +0.208 C 
BRANCH  13  14
ATOM     14  C   UNL     1      31.793  22.215  19.093  0.00  0.00    +0.011 A 
ATOM     15  C   UNL     1      32.215  21.855  20.376  0.00  0.00    +0.010 A 
ATOM     16  C   UNL     1      33.190  22.615  21.020  0.00  0.00    +0.020 A 
ATOM     17  C   UNL     1      33.715  23.713  20.358  0.00  0.00    +0.111 A 
ATOM     18  N   UNL     1      33.328  24.099  19.126  0.00  0.00    -0.263 NA
ATOM     19  C   UNL     1      32.384  23.344  18.524  0.00  0.00    +0.118 A 
ENDBRANCH  13  14
BRANCH  13  20
ATOM     20  C   UNL     1      29.475  22.135  18.308  0.00  0.00    +0.034 C 
ATOM     21  C   UNL     1      28.684  22.242  19.589  0.00  0.00    +0.008 C 
ATOM     22  C   UNL     1      28.143  21.430  18.444  0.00  0.00    +0.008 C 
ENDBRANCH  13  20
ENDBRANCH  12  13
ENDBRANCH   5  12
TORSDOF 5
ENDMDL
MODEL 9
REMARK VINA RESULT:      -6.0      3.728      6.989
REMARK  Name = ZINC001228612316
REMARK  5 active torsions:
REMARK  status: ('A' for Active; 'I' for Inactive)
REMARK    1  A    between atoms: C_2  and  C_4
REMARK    2  A    between atoms: C_8  and  O_9
REMARK    3  A    between atoms: O_9  and  C_10
REMARK    4  A    between atoms: C_10  and  C_11
REMARK    5  A    between atoms: C_10  and  C_17
REMARK                            x       y       z     vdW  Elec       q    Type
REMARK                         _______ _______ _______ _____ _____    ______ ____
ROOT
ATOM      1  C   UNL     1      32.381  23.248  11.952  0.00  0.00    +0.040 A 
ATOM      2  C   UNL     1      33.578  23.432  12.653  0.00  0.00    +0.013 A 
ATOM      3  C   UNL     1      33.634  23.165  14.022  0.00  0.00    +0.004 A 
ATOM      4  C   UNL     1      32.499  22.713  14.698  0.00  0.00    +0.046 A 
ATOM      5  C   UNL     1      31.299  22.530  14.011  0.00  0.00    +0.122 A 
ATOM      6  C   UNL     1      31.246  22.796  12.636  0.00  0.00    +0.058 A 
ENDROOT
BRANCH   1   8
ATOM      7  N   UNL     1      32.485  22.461   9.642  0.00  0.00    -0.325 N 
ATOM      8  C   UNL     1      32.376  23.529  10.491  0.00  0.00    +0.242 C 
ATOM      9  O   UNL     1      32.242  24.666  10.054  0.00  0.00    -0.270 OA
ATOM     10  H   UNL     1      32.372  22.664   8.656  0.00  0.00    +0.145 HD
ATOM     11  H   UNL     1      32.356  21.508   9.943  0.00  0.00    +0.145 HD
ENDBRANCH   1   8
BRANCH   5  12
ATOM     12  O   UNL     1      30.106  22.163  14.573  0.00  0.00    -0.484 OA
BRANCH  12  13
ATOM     13  C   UNL     1      30.080  21.042  15.472  0.00  0.00    +0.208 C 
BRANCH  13  14
ATOM     14  C   UNL     1      28.936  21.098  16.466  0.00  0.00    +0.011 A 
ATOM     15  C   UNL     1      29.114  21.357  17.828  0.00  0.00    +0.010 A 
ATOM     16  C   UNL     1      28.002  21.479  18.658  0.00  0.00    +0.020 A 
ATOM     17  C   UNL     1      26.742  21.339  18.098  0.00  0.00    +0.111 A 
ATOM     18  N   UNL     1      26.528  21.079  16.792  0.00  0.00    -0.263 NA
ATOM     19  C   UNL     1      27.624  20.968  16.011  0.00  0.00    +0.118 A 
ENDBRANCH  13  14
BRANCH  13  20
ATOM     20  C   UNL     1      29.920  19.755  14.669  0.00  0.00    +0.034 C 
ATOM     21  C   UNL     1      30.143  18.412  15.322  0.00  0.00    +0.008 C 
ATOM     22  C   UNL     1      31.090  18.889  14.255  0.00  0.00    +0.008 C 
ENDBRANCH  13  20
ENDBRANCH  12  13
ENDBRANCH   5  12
TORSDOF 5
ENDMDL
