MODEL 1
REMARK VINA RESULT:      -6.6      0.000      0.000
REMARK  Name = ZINC001228612316
REMARK  5 active torsions:
REMARK  status: ('A' for Active; 'I' for Inactive)
REMARK    1  A    between atoms: C_2  and  C_4
REMARK    2  A    between atoms: C_8  and  O_9
REMARK    3  A    between atoms: O_9  and  C_10
REMARK    4  A    between atoms: C_10  and  C_11
REMARK    5  A    between atoms: C_10  and  C_17
REMARK                            x       y       z     vdW  Elec       q    Type
REMARK                         _______ _______ _______ _____ _____    ______ ____
ROOT
ATOM      1  C   UNL     1      28.834  21.003  17.898  0.00  0.00    +0.040 A 
ATOM      2  C   UNL     1      27.551  20.658  17.467  0.00  0.00    +0.013 A 
ATOM      3  C   UNL     1      27.396  19.884  16.314  0.00  0.00    +0.004 A 
ATOM      4  C   UNL     1      28.520  19.452  15.603  0.00  0.00    +0.046 A 
ATOM      5  C   UNL     1      29.805  19.788  16.036  0.00  0.00    +0.122 A 
ATOM      6  C   UNL     1      29.950  20.589  17.165  0.00  0.00    +0.058 A 
ENDROOT
BRANCH   1   8
ATOM      7  N   UNL     1      28.432  21.442  20.261  0.00  0.00    -0.325 N 
ATOM      8  C   UNL     1      29.091  21.803  19.122  0.00  0.00    +0.242 C 
ATOM      9  O   UNL     1      29.911  22.714  19.135  0.00  0.00    -0.270 OA
ATOM     10  H   UNL     1      28.734  21.907  21.108  0.00  0.00    +0.145 HD
ATOM     11  H   UNL     1      27.975  20.547  20.358  0.00  0.00    +0.145 HD
ENDBRANCH   1   8
BRANCH   5  12
ATOM     12  O   UNL     1      30.839  19.309  15.279  0.00  0.00    -0.484 OA
BRANCH  12  13
ATOM     13  C   UNL     1      31.363  18.009  15.610  0.00  0.00    +0.208 C 
BRANCH  13  14
ATOM     14  C   UNL     1      31.233  17.106  14.402  0.00  0.00    +0.011 A 
ATOM     15  C   UNL     1      29.969  16.675  13.978  0.00  0.00    +0.010 A 
ATOM     16  C   UNL     1      29.849  15.841  12.873  0.00  0.00    +0.020 A 
ATOM     17  C   UNL     1      31.006  15.460  12.218  0.00  0.00    +0.111 A 
ATOM     18  N   UNL     1      32.245  15.846  12.594  0.00  0.00    -0.263 NA
ATOM     19  C   UNL     1      32.331  16.656  13.677  0.00  0.00    +0.118 A 
ENDBRANCH  13  14
BRANCH  13  20
ATOM     20  C   UNL     1      32.814  18.137  16.019  0.00  0.00    +0.034 C 
ATOM     21  C   UNL     1      33.394  17.356  17.180  0.00  0.00    +0.008 C 
ATOM     22  C   UNL     1      33.196  18.835  17.309  0.00  0.00    +0.008 C 
ENDBRANCH  13  20
ENDBRANCH  12  13
ENDBRANCH   5  12
TORSDOF 5
ENDMDL
MODEL 2
REMARK VINA RESULT:      -6.4      2.205      6.445
REMARK  Name = ZINC001228612316
REMARK  5 active torsions:
REMARK  status: ('A' for Active; 'I' for Inactive)
REMARK    1  A    between atoms: C_2  and  C_4
REMARK    2  A    between atoms: C_8  and  O_9
REMARK    3  A    between atoms: O_9  and  C_10
REMARK    4  A    between atoms: C_10  and  C_11
REMARK    5  A    between atoms: C_10  and  C_17
REMARK                            x       y       z     vdW  Elec       q    Type
REMARK                         _______ _______ _______ _____ _____    ______ ____
ROOT
ATOM      1  C   UNL     1      30.908  15.809  12.679  0.00  0.00    +0.040 A 
ATOM      2  C   UNL     1      32.251  15.885  12.302  0.00  0.00    +0.013 A 
ATOM      3  C   UNL     1      33.145  16.619  13.085  0.00  0.00    +0.004 A 
ATOM      4  C   UNL     1      32.698  17.263  14.244  0.00  0.00    +0.046 A 
ATOM      5  C   UNL     1      31.358  17.181  14.628  0.00  0.00    +0.122 A 
ATOM      6  C   UNL     1      30.466  16.479  13.824  0.00  0.00    +0.058 A 
ENDROOT
BRANCH   1   8
ATOM      7  N   UNL     1      30.336  13.984  11.168  0.00  0.00    -0.325 N 
ATOM      8  C   UNL     1      29.894  15.035  11.917  0.00  0.00    +0.242 C 
ATOM      9  O   UNL     1      28.697  15.283  12.005  0.00  0.00    -0.270 OA
ATOM     10  H   UNL     1      29.614  13.389  10.779  0.00  0.00    +0.145 HD
ATOM     11  H   UNL     1      31.255  13.584  11.290  0.00  0.00    +0.145 HD
ENDBRANCH   1   8
BRANCH   5  12
ATOM     12  O   UNL     1      31.022  17.835  15.781  0.00  0.00    -0.484 OA
BRANCH  12  13
ATOM     13  C   UNL     1      31.263  19.254  15.839  0.00  0.00    +0.208 C 
BRANCH  13  14
ATOM     14  C   UNL     1      29.935  19.972  15.964  0.00  0.00    +0.011 A 
ATOM     15  C   UNL     1      28.750  19.239  16.114  0.00  0.00    +0.010 A 
ATOM     16  C   UNL     1      27.531  19.896  16.223  0.00  0.00    +0.020 A 
ATOM     17  C   UNL     1      27.533  21.278  16.180  0.00  0.00    +0.111 A 
ATOM     18  N   UNL     1      28.648  22.025  16.032  0.00  0.00    -0.263 NA
ATOM     19  C   UNL     1      29.822  21.356  15.925  0.00  0.00    +0.118 A 
ENDBRANCH  13  14
BRANCH  13  20
ATOM     20  C   UNL     1      32.147  19.570  17.025  0.00  0.00    +0.034 C 
ATOM     21  C   UNL     1      33.201  20.656  16.975  0.00  0.00    +0.008 C 
ATOM     22  C   UNL     1      33.622  19.219  17.008  0.00  0.00    +0.008 C 
ENDBRANCH  13  20
ENDBRANCH  12  13
ENDBRANCH   5  12
TORSDOF 5
ENDMDL
MODEL 3
REMARK VINA RESULT:      -6.1      1.355      1.621
REMARK  Name = ZINC001228612316
REMARK  5 active torsions:
REMARK  status: ('A' for Active; 'I' for Inactive)
REMARK    1  A    between atoms: C_2  and  C_4
REMARK    2  A    between atoms: C_8  and  O_9
REMARK    3  A    between atoms: O_9  and  C_10
REMARK    4  A    between atoms: C_10  and  C_11
REMARK    5  A    between atoms: C_10  and  C_17
REMARK                            x       y       z     vdW  Elec       q    Type
REMARK                         _______ _______ _______ _____ _____    ______ ____
ROOT
ATOM      1  C   UNL     1      28.848  20.729  17.616  0.00  0.00    +0.040 A 
ATOM      2  C   UNL     1      27.772  20.073  17.013  0.00  0.00    +0.013 A 
ATOM      3  C   UNL     1      27.986  19.314  15.860  0.00  0.00    +0.004 A 
ATOM      4  C   UNL     1      29.272  19.206  15.320  0.00  0.00    +0.046 A 
ATOM      5  C   UNL     1      30.351  19.854  15.925  0.00  0.00    +0.122 A 
ATOM      6  C   UNL     1      30.124  20.637  17.052  0.00  0.00    +0.058 A 
ENDROOT
BRANCH   1   8
ATOM      7  N   UNL     1      27.687  21.232  19.699  0.00  0.00    -0.325 N 
ATOM      8  C   UNL     1      28.714  21.538  18.854  0.00  0.00    +0.242 C 
ATOM      9  O   UNL     1      29.529  22.405  19.146  0.00  0.00    -0.270 OA
ATOM     10  H   UNL     1      27.706  21.698  20.598  0.00  0.00    +0.145 HD
ATOM     11  H   UNL     1      27.176  20.363  19.634  0.00  0.00    +0.145 HD
ENDBRANCH   1   8
BRANCH   5  12
ATOM     12  O   UNL     1      31.569  19.679  15.327  0.00  0.00    -0.484 OA
BRANCH  12  13
ATOM     13  C   UNL     1      32.230  18.414  15.516  0.00  0.00    +0.208 C 
BRANCH  13  14
ATOM     14  C   UNL     1      32.748  17.926  14.179  0.00  0.00    +0.011 A 
ATOM     15  C   UNL     1      32.404  16.650  13.715  0.00  0.00    +0.010 A 
ATOM     16  C   UNL     1      32.884  16.198  12.492  0.00  0.00    +0.020 A 
ATOM     17  C   UNL     1      33.699  17.045  11.761  0.00  0.00    +0.111 A 
ATOM     18  N   UNL     1      34.060  18.280  12.171  0.00  0.00    -0.263 NA
ATOM     19  C   UNL     1      33.580  18.691  13.370  0.00  0.00    +0.118 A 
ENDBRANCH  13  14
BRANCH  13  20
ATOM     20  C   UNL     1      33.372  18.580  16.494  0.00  0.00    +0.034 C 
ATOM     21  C   UNL     1      34.373  17.474  16.758  0.00  0.00    +0.008 C 
ATOM     22  C   UNL     1      33.376  17.835  17.815  0.00  0.00    +0.008 C 
ENDBRANCH  13  20
ENDBRANCH  12  13
ENDBRANCH   5  12
TORSDOF 5
ENDMDL
MODEL 4
REMARK VINA RESULT:      -6.0      4.441      6.155
REMARK  Name = ZINC001228612316
REMARK  5 active torsions:
REMARK  status: ('A' for Active; 'I' for Inactive)
REMARK    1  A    between atoms: C_2  and  C_4
REMARK    2  A    between atoms: C_8  and  O_9
REMARK    3  A    between atoms: O_9  and  C_10
REMARK    4  A    between atoms: C_10  and  C_11
REMARK    5  A    between atoms: C_10  and  C_17
REMARK                            x       y       z     vdW  Elec       q    Type
REMARK                         _______ _______ _______ _____ _____    ______ ____
ROOT
ATOM      1  C   UNL     1      29.488  18.939  15.202  0.00  0.00    +0.040 A 
ATOM      2  C   UNL     1      28.340  19.139  15.972  0.00  0.00    +0.013 A 
ATOM      3  C   UNL     1      27.785  20.419  16.063  0.00  0.00    +0.004 A 
ATOM      4  C   UNL     1      28.372  21.488  15.378  0.00  0.00    +0.046 A 
ATOM      5  C   UNL     1      29.515  21.289  14.600  0.00  0.00    +0.122 A 
ATOM      6  C   UNL     1      30.082  20.020  14.544  0.00  0.00    +0.058 A 
ENDROOT
BRANCH   1   8
ATOM      7  N   UNL     1      29.333  16.566  14.668  0.00  0.00    -0.325 N 
ATOM      8  C   UNL     1      30.131  17.611  15.034  0.00  0.00    +0.242 C 
ATOM      9  O   UNL     1      31.341  17.463  15.154  0.00  0.00    -0.270 OA
ATOM     10  H   UNL     1      29.817  15.712  14.419  0.00  0.00    +0.145 HD
ATOM     11  H   UNL     1      28.405  16.703  14.295  0.00  0.00    +0.145 HD
ENDBRANCH   1   8
BRANCH   5  12
ATOM     12  O   UNL     1      30.006  22.394  13.961  0.00  0.00    -0.484 OA
BRANCH  12  13
ATOM     13  C   UNL     1      31.262  22.929  14.420  0.00  0.00    +0.208 C 
BRANCH  13  14
ATOM     14  C   UNL     1      31.862  23.783  13.323  0.00  0.00    +0.011 A 
ATOM     15  C   UNL     1      31.160  24.891  12.831  0.00  0.00    +0.010 A 
ATOM     16  C   UNL     1      31.706  25.672  11.820  0.00  0.00    +0.020 A 
ATOM     17  C   UNL     1      32.950  25.319  11.327  0.00  0.00    +0.111 A 
ATOM     18  N   UNL     1      33.660  24.258  11.767  0.00  0.00    -0.263 NA
ATOM     19  C   UNL     1      33.100  23.513  12.751  0.00  0.00    +0.118 A 
ENDBRANCH  13  14
BRANCH  13  20
ATOM     20  C   UNL     1      31.036  23.755  15.667  0.00  0.00    +0.034 C 
ATOM     21  C   UNL     1      32.181  24.385  16.432  0.00  0.00    +0.008 C 
ATOM     22  C   UNL     1      31.441  23.228  17.029  0.00  0.00    +0.008 C 
ENDBRANCH  13  20
ENDBRANCH  12  13
ENDBRANCH   5  12
TORSDOF 5
ENDMDL
MODEL 5
REMARK VINA RESULT:      -6.0      2.087      6.786
REMARK  Name = ZINC001228612316
REMARK  5 active torsions:
REMARK  status: ('A' for Active; 'I' for Inactive)
REMARK    1  A    between atoms: C_2  and  C_4
REMARK    2  A    between atoms: C_8  and  O_9
REMARK    3  A    between atoms: O_9  and  C_10
REMARK    4  A    between atoms: C_10  and  C_11
REMARK    5  A    between atoms: C_10  and  C_17
REMARK                            x       y       z     vdW  Elec       q    Type
REMARK                         _______ _______ _______ _____ _____    ______ ____
ROOT
ATOM      1  C   UNL     1      31.409  17.563  14.860  0.00  0.00    +0.040 A 
ATOM      2  C   UNL     1      30.090  17.181  14.603  0.00  0.00    +0.013 A 
ATOM      3  C   UNL     1      29.040  17.903  15.176  0.00  0.00    +0.004 A 
ATOM      4  C   UNL     1      29.310  19.006  15.993  0.00  0.00    +0.046 A 
ATOM      5  C   UNL     1      30.628  19.395  16.245  0.00  0.00    +0.122 A 
ATOM      6  C   UNL     1      31.668  18.650  15.700  0.00  0.00    +0.058 A 
ENDROOT
BRANCH   1   8
ATOM      7  N   UNL     1      33.802  17.101  14.846  0.00  0.00    -0.325 N 
ATOM      8  C   UNL     1      32.583  16.867  14.276  0.00  0.00    +0.242 C 
ATOM      9  O   UNL     1      32.464  16.061  13.361  0.00  0.00    -0.270 OA
ATOM     10  H   UNL     1      34.556  16.506  14.525  0.00  0.00    +0.145 HD
ATOM     11  H   UNL     1      33.897  17.528  15.755  0.00  0.00    +0.145 HD
ENDBRANCH   1   8
BRANCH   5  12
ATOM     12  O   UNL     1      30.787  20.491  17.048  0.00  0.00    -0.484 OA
BRANCH  12  13
ATOM     13  C   UNL     1      29.972  21.646  16.772  0.00  0.00    +0.208 C 
BRANCH  13  14
ATOM     14  C   UNL     1      29.039  21.878  17.942  0.00  0.00    +0.011 A 
ATOM     15  C   UNL     1      29.520  21.784  19.255  0.00  0.00    +0.010 A 
ATOM     16  C   UNL     1      28.664  21.990  20.329  0.00  0.00    +0.020 A 
ATOM     17  C   UNL     1      27.341  22.289  20.057  0.00  0.00    +0.111 A 
ATOM     18  N   UNL     1      26.833  22.386  18.810  0.00  0.00    -0.263 NA
ATOM     19  C   UNL     1      27.691  22.175  17.782  0.00  0.00    +0.118 A 
ENDBRANCH  13  14
BRANCH  13  20
ATOM     20  C   UNL     1      30.859  22.853  16.558  0.00  0.00    +0.034 C 
ATOM     21  C   UNL     1      30.291  24.241  16.352  0.00  0.00    +0.008 C 
ATOM     22  C   UNL     1      30.934  23.528  15.203  0.00  0.00    +0.008 C 
ENDBRANCH  13  20
ENDBRANCH  12  13
ENDBRANCH   5  12
TORSDOF 5
ENDMDL
MODEL 6
REMARK VINA RESULT:      -5.9      4.532      6.109
REMARK  Name = ZINC001228612316
REMARK  5 active torsions:
REMARK  status: ('A' for Active; 'I' for Inactive)
REMARK    1  A    between atoms: C_2  and  C_4
REMARK    2  A    between atoms: C_8  and  O_9
REMARK    3  A    between atoms: O_9  and  C_10
REMARK    4  A    between atoms: C_10  and  C_11
REMARK    5  A    between atoms: C_10  and  C_17
REMARK                            x       y       z     vdW  Elec       q    Type
REMARK                         _______ _______ _______ _____ _____    ______ ____
ROOT
ATOM      1  C   UNL     1      31.377  25.269  13.224  0.00  0.00    +0.040 A 
ATOM      2  C   UNL     1      32.482  25.550  14.032  0.00  0.00    +0.013 A 
ATOM      3  C   UNL     1      33.019  24.544  14.840  0.00  0.00    +0.004 A 
ATOM      4  C   UNL     1      32.458  23.263  14.830  0.00  0.00    +0.046 A 
ATOM      5  C   UNL     1      31.359  22.976  14.017  0.00  0.00    +0.122 A 
ATOM      6  C   UNL     1      30.808  23.992  13.243  0.00  0.00    +0.058 A 
ENDROOT
BRANCH   1   8
ATOM      7  N   UNL     1      29.512  26.726  12.645  0.00  0.00    -0.325 N 
ATOM      8  C   UNL     1      30.757  26.271  12.321  0.00  0.00    +0.242 C 
ATOM      9  O   UNL     1      31.359  26.726  11.355  0.00  0.00    -0.270 OA
ATOM     10  H   UNL     1      29.176  27.510  12.099  0.00  0.00    +0.145 HD
ATOM     11  H   UNL     1      29.110  26.590  13.561  0.00  0.00    +0.145 HD
ENDBRANCH   1   8
BRANCH   5  12
ATOM     12  O   UNL     1      30.890  21.692  14.071  0.00  0.00    -0.484 OA
BRANCH  12  13
ATOM     13  C   UNL     1      31.184  20.922  15.251  0.00  0.00    +0.208 C 
BRANCH  13  14
ATOM     14  C   UNL     1      29.915  20.766  16.063  0.00  0.00    +0.011 A 
ATOM     15  C   UNL     1      28.789  20.153  15.498  0.00  0.00    +0.010 A 
ATOM     16  C   UNL     1      27.623  20.014  16.240  0.00  0.00    +0.020 A 
ATOM     17  C   UNL     1      27.617  20.496  17.537  0.00  0.00    +0.111 A 
ATOM     18  N   UNL     1      28.676  21.097  18.121  0.00  0.00    -0.263 NA
ATOM     19  C   UNL     1      29.798  21.221  17.371  0.00  0.00    +0.118 A 
ENDBRANCH  13  14
BRANCH  13  20
ATOM     20  C   UNL     1      31.723  19.567  14.851  0.00  0.00    +0.034 C 
ATOM     21  C   UNL     1      32.132  18.529  15.876  0.00  0.00    +0.008 C 
ATOM     22  C   UNL     1      33.184  19.220  15.064  0.00  0.00    +0.008 C 
ENDBRANCH  13  20
ENDBRANCH  12  13
ENDBRANCH   5  12
TORSDOF 5
ENDMDL
MODEL 7
REMARK VINA RESULT:      -5.9      5.126      8.078
REMARK  Name = ZINC001228612316
REMARK  5 active torsions:
REMARK  status: ('A' for Active; 'I' for Inactive)
REMARK    1  A    between atoms: C_2  and  C_4
REMARK    2  A    between atoms: C_8  and  O_9
REMARK    3  A    between atoms: O_9  and  C_10
REMARK    4  A    between atoms: C_10  and  C_11
REMARK    5  A    between atoms: C_10  and  C_17
REMARK                            x       y       z     vdW  Elec       q    Type
REMARK                         _______ _______ _______ _____ _____    ______ ____
ROOT
ATOM      1  C   UNL     1      23.893  24.991  18.391  0.00  0.00    +0.040 A 
ATOM      2  C   UNL     1      23.598  25.725  19.543  0.00  0.00    +0.013 A 
ATOM      3  C   UNL     1      24.283  25.450  20.729  0.00  0.00    +0.004 A 
ATOM      4  C   UNL     1      25.265  24.454  20.758  0.00  0.00    +0.046 A 
ATOM      5  C   UNL     1      25.568  23.724  19.606  0.00  0.00    +0.122 A 
ATOM      6  C   UNL     1      24.857  23.979  18.438  0.00  0.00    +0.058 A 
ENDROOT
BRANCH   1   8
ATOM      7  N   UNL     1      22.373  26.289  16.997  0.00  0.00    -0.325 N 
ATOM      8  C   UNL     1      23.230  25.230  17.085  0.00  0.00    +0.242 C 
ATOM      9  O   UNL     1      23.486  24.548  16.099  0.00  0.00    -0.270 OA
ATOM     10  H   UNL     1      22.050  26.515  16.064  0.00  0.00    +0.145 HD
ATOM     11  H   UNL     1      22.353  27.024  17.689  0.00  0.00    +0.145 HD
ENDBRANCH   1   8
BRANCH   5  12
ATOM     12  O   UNL     1      26.549  22.780  19.734  0.00  0.00    -0.484 OA
BRANCH  12  13
ATOM     13  C   UNL     1      27.560  22.722  18.710  0.00  0.00    +0.208 C 
BRANCH  13  14
ATOM     14  C   UNL     1      28.846  23.305  19.257  0.00  0.00    +0.011 A 
ATOM     15  C   UNL     1      29.397  22.805  20.444  0.00  0.00    +0.010 A 
ATOM     16  C   UNL     1      30.574  23.343  20.950  0.00  0.00    +0.020 A 
ATOM     17  C   UNL     1      31.171  24.373  20.247  0.00  0.00    +0.111 A 
ATOM     18  N   UNL     1      30.675  24.890  19.102  0.00  0.00    -0.263 NA
ATOM     19  C   UNL     1      29.524  24.348  18.635  0.00  0.00    +0.118 A 
ENDBRANCH  13  14
BRANCH  13  20
ATOM     20  C   UNL     1      27.771  21.285  18.287  0.00  0.00    +0.034 C 
ATOM     21  C   UNL     1      28.960  20.860  17.451  0.00  0.00    +0.008 C 
ATOM     22  C   UNL     1      27.593  20.870  16.840  0.00  0.00    +0.008 C 
ENDBRANCH  13  20
ENDBRANCH  12  13
ENDBRANCH   5  12
TORSDOF 5
ENDMDL
MODEL 8
REMARK VINA RESULT:      -5.9      2.732      4.108
REMARK  Name = ZINC001228612316
REMARK  5 active torsions:
REMARK  status: ('A' for Active; 'I' for Inactive)
REMARK    1  A    between atoms: C_2  and  C_4
REMARK    2  A    between atoms: C_8  and  O_9
REMARK    3  A    between atoms: O_9  and  C_10
REMARK    4  A    between atoms: C_10  and  C_11
REMARK    5  A    between atoms: C_10  and  C_17
REMARK                            x       y       z     vdW  Elec       q    Type
REMARK                         _______ _______ _______ _____ _____    ______ ____
ROOT
ATOM      1  C   UNL     1      27.810  21.338  18.440  0.00  0.00    +0.040 A 
ATOM      2  C   UNL     1      27.245  20.102  18.115  0.00  0.00    +0.013 A 
ATOM      3  C   UNL     1      27.381  19.602  16.817  0.00  0.00    +0.004 A 
ATOM      4  C   UNL     1      28.085  20.332  15.854  0.00  0.00    +0.046 A 
ATOM      5  C   UNL     1      28.658  21.564  16.178  0.00  0.00    +0.122 A 
ATOM      6  C   UNL     1      28.488  22.072  17.462  0.00  0.00    +0.058 A 
ENDROOT
BRANCH   1   8
ATOM      7  N   UNL     1      26.866  22.973  19.981  0.00  0.00    -0.325 N 
ATOM      8  C   UNL     1      27.732  21.934  19.797  0.00  0.00    +0.242 C 
ATOM      9  O   UNL     1      28.370  21.476  20.738  0.00  0.00    -0.270 OA
ATOM     10  H   UNL     1      26.726  23.261  20.942  0.00  0.00    +0.145 HD
ATOM     11  H   UNL     1      26.136  23.189  19.318  0.00  0.00    +0.145 HD
ENDBRANCH   1   8
BRANCH   5  12
ATOM     12  O   UNL     1      29.335  22.195  15.170  0.00  0.00    -0.484 OA
BRANCH  12  13
ATOM     13  C   UNL     1      30.720  22.518  15.395  0.00  0.00    +0.208 C 
BRANCH  13  14
ATOM     14  C   UNL     1      31.510  21.232  15.522  0.00  0.00    +0.011 A 
ATOM     15  C   UNL     1      32.051  20.859  16.759  0.00  0.00    +0.010 A 
ATOM     16  C   UNL     1      32.782  19.683  16.876  0.00  0.00    +0.020 A 
ATOM     17  C   UNL     1      32.950  18.908  15.742  0.00  0.00    +0.111 A 
ATOM     18  N   UNL     1      32.451  19.230  14.530  0.00  0.00    -0.263 NA
ATOM     19  C   UNL     1      31.746  20.385  14.446  0.00  0.00    +0.118 A 
ENDBRANCH  13  14
BRANCH  13  20
ATOM     20  C   UNL     1      31.241  23.345  14.241  0.00  0.00    +0.034 C 
ATOM     21  C   UNL     1      32.601  24.010  14.278  0.00  0.00    +0.008 C 
ATOM     22  C   UNL     1      31.365  24.851  14.361  0.00  0.00    +0.008 C 
ENDBRANCH  13  20
ENDBRANCH  12  13
ENDBRANCH   5  12
TORSDOF 5
ENDMDL
MODEL 9
REMARK VINA RESULT:      -5.9      3.648      6.058
REMARK  Name = ZINC001228612316
REMARK  5 active torsions:
REMARK  status: ('A' for Active; 'I' for Inactive)
REMARK    1  A    between atoms: C_2  and  C_4
REMARK    2  A    between atoms: C_8  and  O_9
REMARK    3  A    between atoms: O_9  and  C_10
REMARK    4  A    between atoms: C_10  and  C_11
REMARK    5  A    between atoms: C_10  and  C_17
REMARK                            x       y       z     vdW  Elec       q    Type
REMARK                         _______ _______ _______ _____ _____    ______ ____
ROOT
ATOM      1  C   UNL     1      31.730  23.563  13.497  0.00  0.00    +0.040 A 
ATOM      2  C   UNL     1      32.951  22.915  13.297  0.00  0.00    +0.013 A 
ATOM      3  C   UNL     1      33.066  21.554  13.591  0.00  0.00    +0.004 A 
ATOM      4  C   UNL     1      31.960  20.844  14.072  0.00  0.00    +0.046 A 
ATOM      5  C   UNL     1      30.735  21.487  14.264  0.00  0.00    +0.122 A 
ATOM      6  C   UNL     1      30.639  22.850  14.004  0.00  0.00    +0.058 A 
ENDROOT
BRANCH   1   8
ATOM      7  N   UNL     1      30.642  25.688  13.986  0.00  0.00    -0.325 N 
ATOM      8  C   UNL     1      31.514  25.000  13.192  0.00  0.00    +0.242 C 
ATOM      9  O   UNL     1      32.139  25.570  12.307  0.00  0.00    -0.270 OA
ATOM     10  H   UNL     1      30.625  26.691  13.850  0.00  0.00    +0.145 HD
ATOM     11  H   UNL     1      30.330  25.332  14.878  0.00  0.00    +0.145 HD
ENDBRANCH   1   8
BRANCH   5  12
ATOM     12  O   UNL     1      29.713  20.705  14.727  0.00  0.00    -0.484 OA
BRANCH  12  13
ATOM     13  C   UNL     1      29.970  19.883  15.881  0.00  0.00    +0.208 C 
BRANCH  13  14
ATOM     14  C   UNL     1      29.314  20.516  17.091  0.00  0.00    +0.011 A 
ATOM     15  C   UNL     1      28.006  20.164  17.447  0.00  0.00    +0.010 A 
ATOM     16  C   UNL     1      27.401  20.748  18.552  0.00  0.00    +0.020 A 
ATOM     17  C   UNL     1      28.130  21.675  19.277  0.00  0.00    +0.111 A 
ATOM     18  N   UNL     1      29.390  22.048  18.969  0.00  0.00    -0.263 NA
ATOM     19  C   UNL     1      29.953  21.463  17.883  0.00  0.00    +0.118 A 
ENDBRANCH  13  14
BRANCH  13  20
ATOM     20  C   UNL     1      29.415  18.495  15.648  0.00  0.00    +0.034 C 
ATOM     21  C   UNL     1      30.068  17.259  16.233  0.00  0.00    +0.008 C 
ATOM     22  C   UNL     1      30.145  17.508  14.758  0.00  0.00    +0.008 C 
ENDBRANCH  13  20
ENDBRANCH  12  13
ENDBRANCH   5  12
TORSDOF 5
ENDMDL
