MODEL 1
REMARK VINA RESULT:      -6.5      0.000      0.000
REMARK  Name = ZINC000870248439
REMARK  2 active torsions:
REMARK  status: ('A' for Active; 'I' for Inactive)
REMARK    1  A    between atoms: C_2  and  C_4
REMARK    2  A    between atoms: C_7  and  C_8
REMARK                            x       y       z     vdW  Elec       q    Type
REMARK                         _______ _______ _______ _____ _____    ______ ____
ROOT
ATOM      1  C   UNL     1      31.085  21.459  15.059  0.00  0.00    +0.247 C 
ATOM      2  O   UNL     1      31.292  20.346  14.575  0.00  0.00    -0.270 OA
ATOM      3  N   UNL     1      31.702  22.626  14.589  0.00  0.00    -0.297 N 
ATOM      4  C   UNL     1      31.488  23.974  15.108  0.00  0.00    +0.108 C 
ATOM      5  C   UNL     1      31.331  25.021  14.025  0.00  0.00    +0.026 C 
ATOM      6  C   UNL     1      32.471  24.981  12.992  0.00  0.00    -0.025 C 
ATOM      7  C   UNL     1      32.079  25.927  11.834  0.00  0.00    +0.017 C 
ATOM      8  C   UNL     1      33.130  26.055  10.739  0.00  0.00    +0.069 C 
ATOM      9  S   UNL     1      34.712  26.689  11.364  0.00  0.00    -0.161 S 
ATOM     10  C   UNL     1      34.978  25.534  12.735  0.00  0.00    +0.069 C 
ATOM     11  C   UNL     1      33.774  25.488  13.663  0.00  0.00    +0.017 C 
ATOM     12  C   UNL     1      32.588  23.517  12.481  0.00  0.00    +0.026 C 
ATOM     13  C   UNL     1      32.773  22.501  13.607  0.00  0.00    +0.108 C 
ENDROOT
BRANCH   1  17
ATOM     14  C   UNL     1      28.249  22.106  18.186  0.00  0.00    +0.037 A 
ATOM     15  C   UNL     1      29.562  21.762  18.512  0.00  0.00    +0.014 A 
ATOM     16  C   UNL     1      30.456  21.437  17.500  0.00  0.00    +0.014 A 
ATOM     17  C   UNL     1      30.085  21.561  16.155  0.00  0.00    +0.037 A 
ATOM     18  C   UNL     1      28.754  21.840  15.828  0.00  0.00    +0.014 A 
ATOM     19  C   UNL     1      27.833  22.101  16.848  0.00  0.00    +0.014 A 
BRANCH  14  21
ATOM     20  N   UNL     1      26.345  23.405  18.950  0.00  0.00    -0.325 N 
ATOM     21  C   UNL     1      27.288  22.459  19.256  0.00  0.00    +0.242 C 
ATOM     22  O   UNL     1      27.317  21.909  20.349  0.00  0.00    -0.270 OA
ATOM     23  H   UNL     1      25.637  23.563  19.663  0.00  0.00    +0.145 HD
ATOM     24  H   UNL     1      26.124  23.666  18.004  0.00  0.00    +0.145 HD
ENDBRANCH  14  21
ENDBRANCH   1  17
TORSDOF 2
ENDMDL
MODEL 2
REMARK VINA RESULT:      -6.5      4.064      5.657
REMARK  Name = ZINC000870248439
REMARK  2 active torsions:
REMARK  status: ('A' for Active; 'I' for Inactive)
REMARK    1  A    between atoms: C_2  and  C_4
REMARK    2  A    between atoms: C_7  and  C_8
REMARK                            x       y       z     vdW  Elec       q    Type
REMARK                         _______ _______ _______ _____ _____    ______ ____
ROOT
ATOM      1  C   UNL     1      31.065  21.264  15.325  0.00  0.00    +0.247 C 
ATOM      2  O   UNL     1      31.523  22.287  14.816  0.00  0.00    -0.270 OA
ATOM      3  N   UNL     1      31.506  19.977  14.987  0.00  0.00    -0.297 N 
ATOM      4  C   UNL     1      31.015  18.728  15.564  0.00  0.00    +0.108 C 
ATOM      5  C   UNL     1      32.117  17.746  15.905  0.00  0.00    +0.026 C 
ATOM      6  C   UNL     1      33.072  17.494  14.726  0.00  0.00    -0.025 C 
ATOM      7  C   UNL     1      34.263  16.668  15.264  0.00  0.00    +0.017 C 
ATOM      8  C   UNL     1      35.288  16.275  14.209  0.00  0.00    +0.069 C 
ATOM      9  S   UNL     1      34.568  15.271  12.878  0.00  0.00    -0.161 S 
ATOM     10  C   UNL     1      33.171  16.333  12.424  0.00  0.00    +0.069 C 
ATOM     11  C   UNL     1      32.323  16.683  13.637  0.00  0.00    +0.017 C 
ATOM     12  C   UNL     1      33.560  18.879  14.215  0.00  0.00    +0.026 C 
ATOM     13  C   UNL     1      32.414  19.824  13.857  0.00  0.00    +0.108 C 
ENDROOT
BRANCH   1  17
ATOM     14  C   UNL     1      28.133  22.065  18.324  0.00  0.00    +0.037 A 
ATOM     15  C   UNL     1      29.454  21.827  18.704  0.00  0.00    +0.014 A 
ATOM     16  C   UNL     1      30.385  21.451  17.745  0.00  0.00    +0.014 A 
ATOM     17  C   UNL     1      30.038  21.421  16.388  0.00  0.00    +0.037 A 
ATOM     18  C   UNL     1      28.701  21.593  16.014  0.00  0.00    +0.014 A 
ATOM     19  C   UNL     1      27.746  21.904  16.987  0.00  0.00    +0.014 A 
BRANCH  14  21
ATOM     20  N   UNL     1      26.210  23.409  18.952  0.00  0.00    -0.325 N 
ATOM     21  C   UNL     1      27.131  22.471  19.337  0.00  0.00    +0.242 C 
ATOM     22  O   UNL     1      27.111  21.969  20.453  0.00  0.00    -0.270 OA
ATOM     23  H   UNL     1      25.475  23.603  19.627  0.00  0.00    +0.145 HD
ATOM     24  H   UNL     1      26.030  23.631  17.988  0.00  0.00    +0.145 HD
ENDBRANCH  14  21
ENDBRANCH   1  17
TORSDOF 2
ENDMDL
MODEL 3
REMARK VINA RESULT:      -6.3      1.232      1.403
REMARK  Name = ZINC000870248439
REMARK  2 active torsions:
REMARK  status: ('A' for Active; 'I' for Inactive)
REMARK    1  A    between atoms: C_2  and  C_4
REMARK    2  A    between atoms: C_7  and  C_8
REMARK                            x       y       z     vdW  Elec       q    Type
REMARK                         _______ _______ _______ _____ _____    ______ ____
ROOT
ATOM      1  C   UNL     1      32.101  21.125  14.125  0.00  0.00    +0.247 C 
ATOM      2  O   UNL     1      32.598  20.085  13.691  0.00  0.00    -0.270 OA
ATOM      3  N   UNL     1      32.491  22.400  13.692  0.00  0.00    -0.297 N 
ATOM      4  C   UNL     1      31.932  23.667  14.156  0.00  0.00    +0.108 C 
ATOM      5  C   UNL     1      31.661  24.653  13.038  0.00  0.00    +0.026 C 
ATOM      6  C   UNL     1      32.882  24.866  12.127  0.00  0.00    -0.025 C 
ATOM      7  C   UNL     1      32.413  25.701  10.914  0.00  0.00    +0.017 C 
ATOM      8  C   UNL     1      33.517  26.059   9.928  0.00  0.00    +0.069 C 
ATOM      9  S   UNL     1      34.847  27.029  10.694  0.00  0.00    -0.161 S 
ATOM     10  C   UNL     1      35.218  25.962  12.111  0.00  0.00    +0.069 C 
ATOM     11  C   UNL     1      33.964  25.650  12.914  0.00  0.00    +0.017 C 
ATOM     12  C   UNL     1      33.372  23.465  11.665  0.00  0.00    +0.026 C 
ATOM     13  C   UNL     1      33.659  22.516  12.827  0.00  0.00    +0.108 C 
ENDROOT
BRANCH   1  17
ATOM     14  C   UNL     1      28.887  21.127  16.936  0.00  0.00    +0.037 A 
ATOM     15  C   UNL     1      30.201  21.075  17.400  0.00  0.00    +0.014 A 
ATOM     16  C   UNL     1      31.244  20.956  16.489  0.00  0.00    +0.014 A 
ATOM     17  C   UNL     1      30.996  21.003  15.111  0.00  0.00    +0.037 A 
ATOM     18  C   UNL     1      29.677  20.989  14.647  0.00  0.00    +0.014 A 
ATOM     19  C   UNL     1      28.621  21.039  15.563  0.00  0.00    +0.014 A 
BRANCH  14  21
ATOM     20  N   UNL     1      27.262  22.518  18.087  0.00  0.00    -0.325 N 
ATOM     21  C   UNL     1      27.766  21.259  17.896  0.00  0.00    +0.242 C 
ATOM     22  O   UNL     1      27.295  20.284  18.467  0.00  0.00    -0.270 OA
ATOM     23  H   UNL     1      26.434  22.573  18.674  0.00  0.00    +0.145 HD
ATOM     24  H   UNL     1      27.434  23.275  17.447  0.00  0.00    +0.145 HD
ENDBRANCH  14  21
ENDBRANCH   1  17
TORSDOF 2
ENDMDL
MODEL 4
REMARK VINA RESULT:      -6.2      5.565      6.938
REMARK  Name = ZINC000870248439
REMARK  2 active torsions:
REMARK  status: ('A' for Active; 'I' for Inactive)
REMARK    1  A    between atoms: C_2  and  C_4
REMARK    2  A    between atoms: C_7  and  C_8
REMARK                            x       y       z     vdW  Elec       q    Type
REMARK                         _______ _______ _______ _____ _____    ______ ____
ROOT
ATOM      1  C   UNL     1      32.699  17.817  16.698  0.00  0.00    +0.247 C 
ATOM      2  O   UNL     1      32.945  17.308  17.791  0.00  0.00    -0.270 OA
ATOM      3  N   UNL     1      33.366  17.460  15.518  0.00  0.00    -0.297 N 
ATOM      4  C   UNL     1      33.110  18.014  14.191  0.00  0.00    +0.108 C 
ATOM      5  C   UNL     1      33.067  16.967  13.097  0.00  0.00    +0.026 C 
ATOM      6  C   UNL     1      34.302  16.050  13.105  0.00  0.00    -0.025 C 
ATOM      7  C   UNL     1      34.031  14.901  12.107  0.00  0.00    +0.017 C 
ATOM      8  C   UNL     1      35.185  13.920  11.943  0.00  0.00    +0.069 C 
ATOM      9  S   UNL     1      36.702  14.724  11.352  0.00  0.00    -0.161 S 
ATOM     10  C   UNL     1      36.825  16.063  12.567  0.00  0.00    +0.069 C 
ATOM     11  C   UNL     1      35.536  16.866  12.640  0.00  0.00    +0.017 C 
ATOM     12  C   UNL     1      34.460  15.489  14.547  0.00  0.00    +0.026 C 
ATOM     13  C   UNL     1      34.528  16.583  15.611  0.00  0.00    +0.108 C 
ENDROOT
BRANCH   1  17
ATOM     14  C   UNL     1      29.502  20.644  16.860  0.00  0.00    +0.037 A 
ATOM     15  C   UNL     1      29.234  19.329  16.479  0.00  0.00    +0.014 A 
ATOM     16  C   UNL     1      30.286  18.437  16.311  0.00  0.00    +0.014 A 
ATOM     17  C   UNL     1      31.597  18.813  16.632  0.00  0.00    +0.037 A 
ATOM     18  C   UNL     1      31.874  20.147  16.949  0.00  0.00    +0.014 A 
ATOM     19  C   UNL     1      30.825  21.065  17.052  0.00  0.00    +0.014 A 
BRANCH  14  21
ATOM     20  N   UNL     1      28.389  22.713  16.243  0.00  0.00    -0.325 N 
ATOM     21  C   UNL     1      28.389  21.603  17.047  0.00  0.00    +0.242 C 
ATOM     22  O   UNL     1      27.497  21.398  17.860  0.00  0.00    -0.270 OA
ATOM     23  H   UNL     1      27.569  23.308  16.319  0.00  0.00    +0.145 HD
ATOM     24  H   UNL     1      28.935  22.773  15.400  0.00  0.00    +0.145 HD
ENDBRANCH  14  21
ENDBRANCH   1  17
TORSDOF 2
ENDMDL
MODEL 5
REMARK VINA RESULT:      -6.1      4.473      5.437
REMARK  Name = ZINC000870248439
REMARK  2 active torsions:
REMARK  status: ('A' for Active; 'I' for Inactive)
REMARK    1  A    between atoms: C_2  and  C_4
REMARK    2  A    between atoms: C_7  and  C_8
REMARK                            x       y       z     vdW  Elec       q    Type
REMARK                         _______ _______ _______ _____ _____    ______ ____
ROOT
ATOM      1  C   UNL     1      30.460  17.732  15.025  0.00  0.00    +0.247 C 
ATOM      2  O   UNL     1      29.802  16.709  14.834  0.00  0.00    -0.270 OA
ATOM      3  N   UNL     1      31.773  17.896  14.561  0.00  0.00    -0.297 N 
ATOM      4  C   UNL     1      32.598  19.087  14.741  0.00  0.00    +0.108 C 
ATOM      5  C   UNL     1      33.352  19.495  13.492  0.00  0.00    +0.026 C 
ATOM      6  C   UNL     1      34.151  18.333  12.876  0.00  0.00    -0.025 C 
ATOM      7  C   UNL     1      34.678  18.811  11.504  0.00  0.00    +0.017 C 
ATOM      8  C   UNL     1      35.548  17.797  10.772  0.00  0.00    +0.069 C 
ATOM      9  S   UNL     1      37.025  17.335  11.721  0.00  0.00    -0.161 S 
ATOM     10  C   UNL     1      36.243  16.882  13.291  0.00  0.00    +0.069 C 
ATOM     11  C   UNL     1      35.345  17.997  13.806  0.00  0.00    +0.017 C 
ATOM     12  C   UNL     1      33.174  17.138  12.695  0.00  0.00    +0.026 C 
ATOM     13  C   UNL     1      32.460  16.745  13.987  0.00  0.00    +0.108 C 
ENDROOT
BRANCH   1  17
ATOM     14  C   UNL     1      28.507  20.750  17.329  0.00  0.00    +0.037 A 
ATOM     15  C   UNL     1      27.784  20.051  16.362  0.00  0.00    +0.014 A 
ATOM     16  C   UNL     1      28.441  19.153  15.532  0.00  0.00    +0.014 A 
ATOM     17  C   UNL     1      29.796  18.859  15.731  0.00  0.00    +0.037 A 
ATOM     18  C   UNL     1      30.536  19.606  16.653  0.00  0.00    +0.014 A 
ATOM     19  C   UNL     1      29.891  20.562  17.444  0.00  0.00    +0.014 A 
BRANCH  14  21
ATOM     20  N   UNL     1      27.746  23.009  17.799  0.00  0.00    -0.325 N 
ATOM     21  C   UNL     1      27.817  21.708  18.224  0.00  0.00    +0.242 C 
ATOM     22  O   UNL     1      27.310  21.347  19.278  0.00  0.00    -0.270 OA
ATOM     23  H   UNL     1      27.187  23.628  18.380  0.00  0.00    +0.145 HD
ATOM     24  H   UNL     1      27.902  23.277  16.842  0.00  0.00    +0.145 HD
ENDBRANCH  14  21
ENDBRANCH   1  17
TORSDOF 2
ENDMDL
MODEL 6
REMARK VINA RESULT:      -6.1      5.626      8.622
REMARK  Name = ZINC000870248439
REMARK  2 active torsions:
REMARK  status: ('A' for Active; 'I' for Inactive)
REMARK    1  A    between atoms: C_2  and  C_4
REMARK    2  A    between atoms: C_7  and  C_8
REMARK                            x       y       z     vdW  Elec       q    Type
REMARK                         _______ _______ _______ _____ _____    ______ ____
ROOT
ATOM      1  C   UNL     1      33.174  18.838  13.665  0.00  0.00    +0.247 C 
ATOM      2  O   UNL     1      33.658  19.630  12.857  0.00  0.00    -0.270 OA
ATOM      3  N   UNL     1      32.219  19.207  14.622  0.00  0.00    -0.297 N 
ATOM      4  C   UNL     1      31.596  18.314  15.595  0.00  0.00    +0.108 C 
ATOM      5  C   UNL     1      30.101  18.517  15.733  0.00  0.00    +0.026 C 
ATOM      6  C   UNL     1      29.724  19.988  15.984  0.00  0.00    -0.025 C 
ATOM      7  C   UNL     1      28.186  20.095  15.877  0.00  0.00    +0.017 C 
ATOM      8  C   UNL     1      27.627  21.484  16.156  0.00  0.00    +0.069 C 
ATOM      9  S   UNL     1      28.036  22.075  17.823  0.00  0.00    -0.161 S 
ATOM     10  C   UNL     1      29.829  21.814  17.803  0.00  0.00    +0.069 C 
ATOM     11  C   UNL     1      30.177  20.386  17.412  0.00  0.00    +0.017 C 
ATOM     12  C   UNL     1      30.405  20.841  14.877  0.00  0.00    +0.026 C 
ATOM     13  C   UNL     1      31.915  20.623  14.795  0.00  0.00    +0.108 C 
ENDROOT
BRANCH   1  17
ATOM     14  C   UNL     1      34.646  14.856  13.203  0.00  0.00    +0.037 A 
ATOM     15  C   UNL     1      33.627  15.310  12.366  0.00  0.00    +0.014 A 
ATOM     16  C   UNL     1      33.065  16.561  12.588  0.00  0.00    +0.014 A 
ATOM     17  C   UNL     1      33.588  17.414  13.569  0.00  0.00    +0.037 A 
ATOM     18  C   UNL     1      34.563  16.935  14.451  0.00  0.00    +0.014 A 
ATOM     19  C   UNL     1      35.083  15.649  14.273  0.00  0.00    +0.014 A 
BRANCH  14  21
ATOM     20  N   UNL     1      36.492  13.508  12.382  0.00  0.00    -0.325 N 
ATOM     21  C   UNL     1      35.257  13.526  12.974  0.00  0.00    +0.242 C 
ATOM     22  O   UNL     1      34.696  12.496  13.324  0.00  0.00    -0.270 OA
ATOM     23  H   UNL     1      36.934  12.594  12.321  0.00  0.00    +0.145 HD
ATOM     24  H   UNL     1      37.085  14.320  12.336  0.00  0.00    +0.145 HD
ENDBRANCH  14  21
ENDBRANCH   1  17
TORSDOF 2
ENDMDL
MODEL 7
REMARK VINA RESULT:      -6.1      4.533      5.799
REMARK  Name = ZINC000870248439
REMARK  2 active torsions:
REMARK  status: ('A' for Active; 'I' for Inactive)
REMARK    1  A    between atoms: C_2  and  C_4
REMARK    2  A    between atoms: C_7  and  C_8
REMARK                            x       y       z     vdW  Elec       q    Type
REMARK                         _______ _______ _______ _____ _____    ______ ____
ROOT
ATOM      1  C   UNL     1      30.963  20.243  15.385  0.00  0.00    +0.247 C 
ATOM      2  O   UNL     1      30.746  20.790  14.303  0.00  0.00    -0.270 OA
ATOM      3  N   UNL     1      31.989  19.310  15.580  0.00  0.00    -0.297 N 
ATOM      4  C   UNL     1      32.306  18.640  16.839  0.00  0.00    +0.108 C 
ATOM      5  C   UNL     1      33.790  18.583  17.136  0.00  0.00    +0.026 C 
ATOM      6  C   UNL     1      34.608  18.013  15.964  0.00  0.00    -0.025 C 
ATOM      7  C   UNL     1      36.103  18.220  16.300  0.00  0.00    +0.017 C 
ATOM      8  C   UNL     1      37.067  17.658  15.264  0.00  0.00    +0.069 C 
ATOM      9  S   UNL     1      36.870  15.868  15.029  0.00  0.00    -0.161 S 
ATOM     10  C   UNL     1      35.085  15.801  14.726  0.00  0.00    +0.069 C 
ATOM     11  C   UNL     1      34.307  16.498  15.832  0.00  0.00    +0.017 C 
ATOM     12  C   UNL     1      34.222  18.817  14.690  0.00  0.00    +0.026 C 
ATOM     13  C   UNL     1      32.719  18.822  14.416  0.00  0.00    +0.108 C 
ENDROOT
BRANCH   1  17
ATOM     14  C   UNL     1      28.385  21.631  18.494  0.00  0.00    +0.037 A 
ATOM     15  C   UNL     1      29.676  22.150  18.392  0.00  0.00    +0.014 A 
ATOM     16  C   UNL     1      30.555  21.619  17.458  0.00  0.00    +0.014 A 
ATOM     17  C   UNL     1      30.124  20.649  16.544  0.00  0.00    +0.037 A 
ATOM     18  C   UNL     1      28.854  20.081  16.688  0.00  0.00    +0.014 A 
ATOM     19  C   UNL     1      27.989  20.566  17.674  0.00  0.00    +0.014 A 
BRANCH  14  21
ATOM     20  N   UNL     1      26.552  23.133  19.026  0.00  0.00    -0.325 N 
ATOM     21  C   UNL     1      27.436  22.192  19.484  0.00  0.00    +0.242 C 
ATOM     22  O   UNL     1      27.423  21.809  20.646  0.00  0.00    -0.270 OA
ATOM     23  H   UNL     1      25.848  23.434  19.695  0.00  0.00    +0.145 HD
ATOM     24  H   UNL     1      26.355  23.264  18.048  0.00  0.00    +0.145 HD
ENDBRANCH  14  21
ENDBRANCH   1  17
TORSDOF 2
ENDMDL
MODEL 8
REMARK VINA RESULT:      -6.0      5.666      8.600
REMARK  Name = ZINC000870248439
REMARK  2 active torsions:
REMARK  status: ('A' for Active; 'I' for Inactive)
REMARK    1  A    between atoms: C_2  and  C_4
REMARK    2  A    between atoms: C_7  and  C_8
REMARK                            x       y       z     vdW  Elec       q    Type
REMARK                         _______ _______ _______ _____ _____    ______ ____
ROOT
ATOM      1  C   UNL     1      33.355  18.987  13.398  0.00  0.00    +0.247 C 
ATOM      2  O   UNL     1      33.692  19.831  12.568  0.00  0.00    -0.270 OA
ATOM      3  N   UNL     1      32.403  19.231  14.397  0.00  0.00    -0.297 N 
ATOM      4  C   UNL     1      31.950  18.269  15.399  0.00  0.00    +0.108 C 
ATOM      5  C   UNL     1      30.449  18.273  15.604  0.00  0.00    +0.026 C 
ATOM      6  C   UNL     1      29.891  19.682  15.871  0.00  0.00    -0.025 C 
ATOM      7  C   UNL     1      28.349  19.582  15.834  0.00  0.00    +0.017 C 
ATOM      8  C   UNL     1      27.623  20.886  16.138  0.00  0.00    +0.069 C 
ATOM      9  S   UNL     1      28.025  21.538  17.784  0.00  0.00    -0.161 S 
ATOM     10  C   UNL     1      29.834  21.518  17.683  0.00  0.00    +0.069 C 
ATOM     11  C   UNL     1      30.351  20.146  17.277  0.00  0.00    +0.017 C 
ATOM     12  C   UNL     1      30.402  20.611  14.733  0.00  0.00    +0.026 C 
ATOM     13  C   UNL     1      31.922  20.595  14.583  0.00  0.00    +0.108 C 
ENDROOT
BRANCH   1  17
ATOM     14  C   UNL     1      34.810  14.973  13.287  0.00  0.00    +0.037 A 
ATOM     15  C   UNL     1      35.416  15.897  14.137  0.00  0.00    +0.014 A 
ATOM     16  C   UNL     1      35.024  17.229  14.092  0.00  0.00    +0.014 A 
ATOM     17  C   UNL     1      33.951  17.629  13.284  0.00  0.00    +0.037 A 
ATOM     18  C   UNL     1      33.388  16.719  12.384  0.00  0.00    +0.014 A 
ATOM     19  C   UNL     1      33.828  15.392  12.378  0.00  0.00    +0.014 A 
BRANCH  14  21
ATOM     20  N   UNL     1      36.100  13.131  12.370  0.00  0.00    -0.325 N 
ATOM     21  C   UNL     1      35.215  13.549  13.329  0.00  0.00    +0.242 C 
ATOM     22  O   UNL     1      34.801  12.791  14.197  0.00  0.00    -0.270 OA
ATOM     23  H   UNL     1      36.439  12.178  12.474  0.00  0.00    +0.145 HD
ATOM     24  H   UNL     1      36.658  13.770  11.829  0.00  0.00    +0.145 HD
ENDBRANCH  14  21
ENDBRANCH   1  17
TORSDOF 2
ENDMDL
MODEL 9
REMARK VINA RESULT:      -6.0      4.228      6.284
REMARK  Name = ZINC000870248439
REMARK  2 active torsions:
REMARK  status: ('A' for Active; 'I' for Inactive)
REMARK    1  A    between atoms: C_2  and  C_4
REMARK    2  A    between atoms: C_7  and  C_8
REMARK                            x       y       z     vdW  Elec       q    Type
REMARK                         _______ _______ _______ _____ _____    ______ ____
ROOT
ATOM      1  C   UNL     1      27.281  22.622  19.763  0.00  0.00    +0.247 C 
ATOM      2  O   UNL     1      27.359  22.001  20.824  0.00  0.00    -0.270 OA
ATOM      3  N   UNL     1      28.086  22.341  18.651  0.00  0.00    -0.297 N 
ATOM      4  C   UNL     1      28.032  23.029  17.363  0.00  0.00    +0.108 C 
ATOM      5  C   UNL     1      28.093  22.092  16.174  0.00  0.00    +0.026 C 
ATOM      6  C   UNL     1      29.278  21.113  16.251  0.00  0.00    -0.025 C 
ATOM      7  C   UNL     1      29.097  20.079  15.117  0.00  0.00    +0.017 C 
ATOM      8  C   UNL     1      30.222  19.057  15.007  0.00  0.00    +0.069 C 
ATOM      9  S   UNL     1      31.835  19.830  14.700  0.00  0.00    -0.161 S 
ATOM     10  C   UNL     1      31.849  21.042  16.047  0.00  0.00    +0.069 C 
ATOM     11  C   UNL     1      30.594  21.902  16.032  0.00  0.00    +0.017 C 
ATOM     12  C   UNL     1      29.219  20.414  17.638  0.00  0.00    +0.026 C 
ATOM     13  C   UNL     1      29.188  21.399  18.806  0.00  0.00    +0.108 C 
ENDROOT
BRANCH   1  17
ATOM     14  C   UNL     1      24.193  25.572  19.784  0.00  0.00    +0.037 A 
ATOM     15  C   UNL     1      23.958  24.338  19.176  0.00  0.00    +0.014 A 
ATOM     16  C   UNL     1      24.995  23.421  19.064  0.00  0.00    +0.014 A 
ATOM     17  C   UNL     1      26.240  23.677  19.655  0.00  0.00    +0.037 A 
ATOM     18  C   UNL     1      26.497  24.937  20.205  0.00  0.00    +0.014 A 
ATOM     19  C   UNL     1      25.474  25.889  20.258  0.00  0.00    +0.014 A 
BRANCH  14  21
ATOM     20  N   UNL     1      23.162  27.665  19.112  0.00  0.00    -0.325 N 
ATOM     21  C   UNL     1      23.095  26.556  19.914  0.00  0.00    +0.242 C 
ATOM     22  O   UNL     1      22.158  26.372  20.680  0.00  0.00    -0.270 OA
ATOM     23  H   UNL     1      22.352  28.279  19.148  0.00  0.00    +0.145 HD
ATOM     24  H   UNL     1      23.751  27.713  18.299  0.00  0.00    +0.145 HD
ENDBRANCH  14  21
ENDBRANCH   1  17
TORSDOF 2
ENDMDL
