MODEL 1
REMARK VINA RESULT:      -6.7      0.000      0.000
REMARK  Name = ZINC000826139982
REMARK  4 active torsions:
REMARK  status: ('A' for Active; 'I' for Inactive)
REMARK    1  A    between atoms: C_2  and  C_4
REMARK    2  A    between atoms: C_8  and  C_10
REMARK    3  A    between atoms: C_14  and  S_15
REMARK    4  A    between atoms: S_15  and  C_16
REMARK                            x       y       z     vdW  Elec       q    Type
REMARK                         _______ _______ _______ _____ _____    ______ ____
ROOT
ATOM      1  C   UNL     1      30.703  23.598  19.401  0.00  0.00    +0.093 C 
ATOM      2  C   UNL     1      29.181  23.720  19.532  0.00  0.00    +0.033 C 
ATOM      3  C   UNL     1      28.612  22.571  18.710  0.00  0.00    +0.109 C 
ATOM      4  N   UNL     1      29.622  22.319  17.704  0.00  0.00    -0.297 N 
ATOM      5  C   UNL     1      29.301  21.747  16.479  0.00  0.00    +0.247 C 
ATOM      6  O   UNL     1      28.135  21.509  16.167  0.00  0.00    -0.270 OA
ATOM      7  C   UNL     1      30.933  22.622  18.254  0.00  0.00    +0.120 C 
ENDROOT
BRANCH   5   8
ATOM      8  C   UNL     1      30.364  21.467  15.458  0.00  0.00    +0.038 A 
ATOM      9  C   UNL     1      30.846  22.427  14.562  0.00  0.00    +0.013 A 
ATOM     10  C   UNL     1      31.743  22.081  13.553  0.00  0.00    +0.002 A 
ATOM     11  C   UNL     1      32.255  20.790  13.493  0.00  0.00    +0.015 A 
ATOM     12  C   UNL     1      31.896  19.848  14.461  0.00  0.00    +0.017 A 
ATOM     13  C   UNL     1      30.925  20.179  15.417  0.00  0.00    +0.028 A 
BRANCH  12  14
ATOM     14  S   UNL     1      32.628  18.224  14.467  0.00  0.00    -0.016 S 
BRANCH  14  15
ATOM     15  C   UNL     1      31.250  17.217  13.878  0.00  0.00    +0.448 C 
ATOM     16  F   UNL     1      31.627  16.079  13.249  0.00  0.00    -0.160 F 
ATOM     17  F   UNL     1      30.445  16.854  14.906  0.00  0.00    -0.160 F 
ATOM     18  F   UNL     1      30.487  17.917  13.003  0.00  0.00    -0.160 F 
ENDBRANCH  14  15
ENDBRANCH  12  14
ENDBRANCH   5   8
BRANCH   1  20
ATOM     19  N   UNL     1      30.845  23.620  21.826  0.00  0.00    -0.329 N 
ATOM     20  C   UNL     1      31.409  23.163  20.672  0.00  0.00    +0.215 C 
ATOM     21  O   UNL     1      32.439  22.508  20.709  0.00  0.00    -0.276 OA
ATOM     22  H   UNL     1      31.323  23.411  22.694  0.00  0.00    +0.145 HD
ATOM     23  H   UNL     1      30.035  24.224  21.850  0.00  0.00    +0.145 HD
ENDBRANCH   1  20
TORSDOF 4
ENDMDL
MODEL 2
REMARK VINA RESULT:      -6.7      2.875      3.652
REMARK  Name = ZINC000826139982
REMARK  4 active torsions:
REMARK  status: ('A' for Active; 'I' for Inactive)
REMARK    1  A    between atoms: C_2  and  C_4
REMARK    2  A    between atoms: C_8  and  C_10
REMARK    3  A    between atoms: C_14  and  S_15
REMARK    4  A    between atoms: S_15  and  C_16
REMARK                            x       y       z     vdW  Elec       q    Type
REMARK                         _______ _______ _______ _____ _____    ______ ____
ROOT
ATOM      1  C   UNL     1      30.698  23.608  19.375  0.00  0.00    +0.093 C 
ATOM      2  C   UNL     1      29.191  23.828  19.546  0.00  0.00    +0.033 C 
ATOM      3  C   UNL     1      28.528  22.685  18.789  0.00  0.00    +0.109 C 
ATOM      4  N   UNL     1      29.488  22.332  17.765  0.00  0.00    -0.297 N 
ATOM      5  C   UNL     1      29.094  21.733  16.575  0.00  0.00    +0.247 C 
ATOM      6  O   UNL     1      27.906  21.555  16.308  0.00  0.00    -0.270 OA
ATOM      7  C   UNL     1      30.832  22.575  18.264  0.00  0.00    +0.120 C 
ENDROOT
BRANCH   5   8
ATOM      8  C   UNL     1      30.105  21.348  15.535  0.00  0.00    +0.038 A 
ATOM      9  C   UNL     1      30.356  20.026  15.156  0.00  0.00    +0.013 A 
ATOM     10  C   UNL     1      31.392  19.715  14.276  0.00  0.00    +0.002 A 
ATOM     11  C   UNL     1      32.124  20.735  13.680  0.00  0.00    +0.015 A 
ATOM     12  C   UNL     1      31.802  22.071  13.936  0.00  0.00    +0.017 A 
ATOM     13  C   UNL     1      30.819  22.372  14.890  0.00  0.00    +0.028 A 
BRANCH  12  14
ATOM     14  S   UNL     1      32.655  23.390  13.095  0.00  0.00    -0.016 S 
BRANCH  14  15
ATOM     15  C   UNL     1      31.414  23.893  11.884  0.00  0.00    +0.448 C 
ATOM     16  F   UNL     1      31.267  25.234  11.769  0.00  0.00    -0.160 F 
ATOM     17  F   UNL     1      31.723  23.421  10.652  0.00  0.00    -0.160 F 
ATOM     18  F   UNL     1      30.198  23.389  12.210  0.00  0.00    -0.160 F 
ENDBRANCH  14  15
ENDBRANCH  12  14
ENDBRANCH   5   8
BRANCH   1  20
ATOM     19  N   UNL     1      30.834  23.602  21.801  0.00  0.00    -0.329 N 
ATOM     20  C   UNL     1      31.416  23.181  20.642  0.00  0.00    +0.215 C 
ATOM     21  O   UNL     1      32.469  22.562  20.672  0.00  0.00    -0.276 OA
ATOM     22  H   UNL     1      31.318  23.398  22.667  0.00  0.00    +0.145 HD
ATOM     23  H   UNL     1      30.004  24.176  21.831  0.00  0.00    +0.145 HD
ENDBRANCH   1  20
TORSDOF 4
ENDMDL
MODEL 3
REMARK VINA RESULT:      -6.5      4.573      6.947
REMARK  Name = ZINC000826139982
REMARK  4 active torsions:
REMARK  status: ('A' for Active; 'I' for Inactive)
REMARK    1  A    between atoms: C_2  and  C_4
REMARK    2  A    between atoms: C_8  and  C_10
REMARK    3  A    between atoms: C_14  and  S_15
REMARK    4  A    between atoms: S_15  and  C_16
REMARK                            x       y       z     vdW  Elec       q    Type
REMARK                         _______ _______ _______ _____ _____    ______ ____
ROOT
ATOM      1  C   UNL     1      31.052  17.827  14.501  0.00  0.00    +0.093 C 
ATOM      2  C   UNL     1      31.555  18.345  13.149  0.00  0.00    +0.033 C 
ATOM      3  C   UNL     1      32.237  19.672  13.453  0.00  0.00    +0.109 C 
ATOM      4  N   UNL     1      31.567  20.151  14.645  0.00  0.00    -0.297 N 
ATOM      5  C   UNL     1      31.502  21.505  14.948  0.00  0.00    +0.247 C 
ATOM      6  O   UNL     1      31.938  22.358  14.175  0.00  0.00    -0.270 OA
ATOM      7  C   UNL     1      31.152  19.014  15.451  0.00  0.00    +0.120 C 
ENDROOT
BRANCH   5   8
ATOM      8  C   UNL     1      30.829  21.983  16.201  0.00  0.00    +0.038 A 
ATOM      9  C   UNL     1      29.494  21.708  16.512  0.00  0.00    +0.013 A 
ATOM     10  C   UNL     1      28.884  22.280  17.627  0.00  0.00    +0.002 A 
ATOM     11  C   UNL     1      29.634  23.051  18.508  0.00  0.00    +0.015 A 
ATOM     12  C   UNL     1      31.005  23.226  18.295  0.00  0.00    +0.017 A 
ATOM     13  C   UNL     1      31.589  22.722  17.123  0.00  0.00    +0.028 A 
BRANCH  12  14
ATOM     14  S   UNL     1      32.003  24.115  19.472  0.00  0.00    -0.016 S 
BRANCH  14  15
ATOM     15  C   UNL     1      32.382  22.813  20.663  0.00  0.00    +0.448 C 
ATOM     16  F   UNL     1      33.441  23.086  21.461  0.00  0.00    -0.160 F 
ATOM     17  F   UNL     1      31.324  22.578  21.475  0.00  0.00    -0.160 F 
ATOM     18  F   UNL     1      32.660  21.649  20.025  0.00  0.00    -0.160 F 
ENDBRANCH  14  15
ENDBRANCH  12  14
ENDBRANCH   5   8
BRANCH   1  20
ATOM     19  N   UNL     1      32.119  15.686  14.077  0.00  0.00    -0.329 N 
ATOM     20  C   UNL     1      31.796  16.613  15.024  0.00  0.00    +0.215 C 
ATOM     21  O   UNL     1      32.054  16.405  16.201  0.00  0.00    -0.276 OA
ATOM     22  H   UNL     1      32.555  14.829  14.393  0.00  0.00    +0.145 HD
ATOM     23  H   UNL     1      31.867  15.774  13.103  0.00  0.00    +0.145 HD
ENDBRANCH   1  20
TORSDOF 4
ENDMDL
MODEL 4
REMARK VINA RESULT:      -6.4      4.308      6.510
REMARK  Name = ZINC000826139982
REMARK  4 active torsions:
REMARK  status: ('A' for Active; 'I' for Inactive)
REMARK    1  A    between atoms: C_2  and  C_4
REMARK    2  A    between atoms: C_8  and  C_10
REMARK    3  A    between atoms: C_14  and  S_15
REMARK    4  A    between atoms: S_15  and  C_16
REMARK                            x       y       z     vdW  Elec       q    Type
REMARK                         _______ _______ _______ _____ _____    ______ ____
ROOT
ATOM      1  C   UNL     1      31.906  17.477  15.324  0.00  0.00    +0.093 C 
ATOM      2  C   UNL     1      31.200  17.358  13.968  0.00  0.00    +0.033 C 
ATOM      3  C   UNL     1      30.941  18.790  13.520  0.00  0.00    +0.109 C 
ATOM      4  N   UNL     1      30.849  19.538  14.757  0.00  0.00    -0.297 N 
ATOM      5  C   UNL     1      30.125  20.721  14.839  0.00  0.00    +0.247 C 
ATOM      6  O   UNL     1      29.465  21.137  13.887  0.00  0.00    -0.270 OA
ATOM      7  C   UNL     1      31.714  18.926  15.753  0.00  0.00    +0.120 C 
ENDROOT
BRANCH   5   8
ATOM      8  C   UNL     1      30.063  21.498  16.120  0.00  0.00    +0.038 A 
ATOM      9  C   UNL     1      28.881  21.713  16.836  0.00  0.00    +0.013 A 
ATOM     10  C   UNL     1      28.858  22.546  17.953  0.00  0.00    +0.002 A 
ATOM     11  C   UNL     1      30.043  23.093  18.434  0.00  0.00    +0.015 A 
ATOM     12  C   UNL     1      31.259  22.781  17.819  0.00  0.00    +0.017 A 
ATOM     13  C   UNL     1      31.260  22.016  16.644  0.00  0.00    +0.028 A 
BRANCH  12  14
ATOM     14  S   UNL     1      32.797  23.380  18.488  0.00  0.00    -0.016 S 
BRANCH  14  15
ATOM     15  C   UNL     1      33.060  22.224  19.849  0.00  0.00    +0.448 C 
ATOM     16  F   UNL     1      32.078  22.235  20.780  0.00  0.00    -0.160 F 
ATOM     17  F   UNL     1      33.158  20.953  19.391  0.00  0.00    -0.160 F 
ATOM     18  F   UNL     1      34.219  22.504  20.495  0.00  0.00    -0.160 F 
ENDBRANCH  14  15
ENDBRANCH  12  14
ENDBRANCH   5   8
BRANCH   1  20
ATOM     19  N   UNL     1      33.871  16.683  16.511  0.00  0.00    -0.329 N 
ATOM     20  C   UNL     1      33.369  17.076  15.305  0.00  0.00    +0.215 C 
ATOM     21  O   UNL     1      34.099  17.144  14.328  0.00  0.00    -0.276 OA
ATOM     22  H   UNL     1      34.861  16.474  16.558  0.00  0.00    +0.145 HD
ATOM     23  H   UNL     1      33.332  16.677  17.364  0.00  0.00    +0.145 HD
ENDBRANCH   1  20
TORSDOF 4
ENDMDL
MODEL 5
REMARK VINA RESULT:      -6.4      4.715      7.205
REMARK  Name = ZINC000826139982
REMARK  4 active torsions:
REMARK  status: ('A' for Active; 'I' for Inactive)
REMARK    1  A    between atoms: C_2  and  C_4
REMARK    2  A    between atoms: C_8  and  C_10
REMARK    3  A    between atoms: C_14  and  S_15
REMARK    4  A    between atoms: S_15  and  C_16
REMARK                            x       y       z     vdW  Elec       q    Type
REMARK                         _______ _______ _______ _____ _____    ______ ____
ROOT
ATOM      1  C   UNL     1      32.470  23.245  12.845  0.00  0.00    +0.093 C 
ATOM      2  C   UNL     1      33.237  21.932  12.654  0.00  0.00    +0.033 C 
ATOM      3  C   UNL     1      32.455  20.889  13.441  0.00  0.00    +0.109 C 
ATOM      4  N   UNL     1      31.799  21.649  14.485  0.00  0.00    -0.297 N 
ATOM      5  C   UNL     1      31.433  21.062  15.690  0.00  0.00    +0.247 C 
ATOM      6  O   UNL     1      31.726  19.896  15.952  0.00  0.00    -0.270 OA
ATOM      7  C   UNL     1      31.500  22.983  13.991  0.00  0.00    +0.120 C 
ENDROOT
BRANCH   5   8
ATOM      8  C   UNL     1      30.730  21.857  16.750  0.00  0.00    +0.038 A 
ATOM      9  C   UNL     1      29.342  21.860  16.918  0.00  0.00    +0.013 A 
ATOM     10  C   UNL     1      28.731  22.712  17.838  0.00  0.00    +0.002 A 
ATOM     11  C   UNL     1      29.512  23.497  18.680  0.00  0.00    +0.015 A 
ATOM     12  C   UNL     1      30.906  23.408  18.628  0.00  0.00    +0.017 A 
ATOM     13  C   UNL     1      31.509  22.617  17.639  0.00  0.00    +0.028 A 
BRANCH  12  14
ATOM     14  S   UNL     1      31.919  24.319  19.775  0.00  0.00    -0.016 S 
BRANCH  14  15
ATOM     15  C   UNL     1      32.064  23.137  21.131  0.00  0.00    +0.448 C 
ATOM     16  F   UNL     1      32.474  21.905  20.747  0.00  0.00    -0.160 F 
ATOM     17  F   UNL     1      32.944  23.576  22.062  0.00  0.00    -0.160 F 
ATOM     18  F   UNL     1      30.870  22.978  21.754  0.00  0.00    -0.160 F 
ENDBRANCH  14  15
ENDBRANCH  12  14
ENDBRANCH   5   8
BRANCH   1  20
ATOM     19  N   UNL     1      32.072  23.070  10.455  0.00  0.00    -0.329 N 
ATOM     20  C   UNL     1      31.761  23.743  11.600  0.00  0.00    +0.215 C 
ATOM     21  O   UNL     1      31.012  24.708  11.562  0.00  0.00    -0.276 OA
ATOM     22  H   UNL     1      31.674  23.414   9.590  0.00  0.00    +0.145 HD
ATOM     23  H   UNL     1      32.738  22.313  10.417  0.00  0.00    +0.145 HD
ENDBRANCH   1  20
TORSDOF 4
ENDMDL
MODEL 6
REMARK VINA RESULT:      -6.2      4.910      7.008
REMARK  Name = ZINC000826139982
REMARK  4 active torsions:
REMARK  status: ('A' for Active; 'I' for Inactive)
REMARK    1  A    between atoms: C_2  and  C_4
REMARK    2  A    between atoms: C_8  and  C_10
REMARK    3  A    between atoms: C_14  and  S_15
REMARK    4  A    between atoms: S_15  and  C_16
REMARK                            x       y       z     vdW  Elec       q    Type
REMARK                         _______ _______ _______ _____ _____    ______ ____
ROOT
ATOM      1  C   UNL     1      29.966  21.542  16.195  0.00  0.00    +0.093 C 
ATOM      2  C   UNL     1      28.631  21.627  16.944  0.00  0.00    +0.033 C 
ATOM      3  C   UNL     1      28.811  22.745  17.963  0.00  0.00    +0.109 C 
ATOM      4  N   UNL     1      30.234  22.759  18.227  0.00  0.00    -0.297 N 
ATOM      5  C   UNL     1      30.746  23.233  19.429  0.00  0.00    +0.247 C 
ATOM      6  O   UNL     1      30.006  23.581  20.349  0.00  0.00    -0.270 OA
ATOM      7  C   UNL     1      30.949  22.354  17.028  0.00  0.00    +0.120 C 
ENDROOT
BRANCH   5   8
ATOM      8  C   UNL     1      32.225  23.267  19.677  0.00  0.00    +0.038 A 
ATOM      9  C   UNL     1      32.944  22.189  20.202  0.00  0.00    +0.013 A 
ATOM     10  C   UNL     1      34.294  22.317  20.528  0.00  0.00    +0.002 A 
ATOM     11  C   UNL     1      34.969  23.495  20.233  0.00  0.00    +0.015 A 
ATOM     12  C   UNL     1      34.307  24.539  19.580  0.00  0.00    +0.017 A 
ATOM     13  C   UNL     1      32.929  24.435  19.338  0.00  0.00    +0.028 A 
BRANCH  12  14
ATOM     14  S   UNL     1      35.184  26.010  19.092  0.00  0.00    -0.016 S 
BRANCH  14  15
ATOM     15  C   UNL     1      34.343  26.423  17.549  0.00  0.00    +0.448 C 
ATOM     16  F   UNL     1      35.011  27.314  16.778  0.00  0.00    -0.160 F 
ATOM     17  F   UNL     1      34.146  25.316  16.795  0.00  0.00    -0.160 F 
ATOM     18  F   UNL     1      33.122  26.957  17.800  0.00  0.00    -0.160 F 
ENDBRANCH  14  15
ENDBRANCH  12  14
ENDBRANCH   5   8
BRANCH   1  20
ATOM     19  N   UNL     1      30.234  23.329  14.571  0.00  0.00    -0.329 N 
ATOM     20  C   UNL     1      29.908  22.018  14.755  0.00  0.00    +0.215 C 
ATOM     21  O   UNL     1      29.543  21.337  13.809  0.00  0.00    -0.276 OA
ATOM     22  H   UNL     1      30.141  23.706  13.636  0.00  0.00    +0.145 HD
ATOM     23  H   UNL     1      30.472  23.956  15.327  0.00  0.00    +0.145 HD
ENDBRANCH   1  20
TORSDOF 4
ENDMDL
MODEL 7
REMARK VINA RESULT:      -6.1      4.354      6.753
REMARK  Name = ZINC000826139982
REMARK  4 active torsions:
REMARK  status: ('A' for Active; 'I' for Inactive)
REMARK    1  A    between atoms: C_2  and  C_4
REMARK    2  A    between atoms: C_8  and  C_10
REMARK    3  A    between atoms: C_14  and  S_15
REMARK    4  A    between atoms: S_15  and  C_16
REMARK                            x       y       z     vdW  Elec       q    Type
REMARK                         _______ _______ _______ _____ _____    ______ ____
ROOT
ATOM      1  C   UNL     1      31.229  17.393  14.192  0.00  0.00    +0.093 C 
ATOM      2  C   UNL     1      31.763  17.889  12.843  0.00  0.00    +0.033 C 
ATOM      3  C   UNL     1      32.303  19.287  13.111  0.00  0.00    +0.109 C 
ATOM      4  N   UNL     1      31.525  19.759  14.237  0.00  0.00    -0.297 N 
ATOM      5  C   UNL     1      31.321  21.115  14.463  0.00  0.00    +0.247 C 
ATOM      6  O   UNL     1      31.723  21.965  13.670  0.00  0.00    -0.270 OA
ATOM      7  C   UNL     1      31.167  18.629  15.080  0.00  0.00    +0.120 C 
ENDROOT
BRANCH   5   8
ATOM      8  C   UNL     1      30.535  21.588  15.650  0.00  0.00    +0.038 A 
ATOM      9  C   UNL     1      29.176  21.317  15.834  0.00  0.00    +0.013 A 
ATOM     10  C   UNL     1      28.467  21.885  16.891  0.00  0.00    +0.002 A 
ATOM     11  C   UNL     1      29.134  22.650  17.842  0.00  0.00    +0.015 A 
ATOM     12  C   UNL     1      30.519  22.821  17.758  0.00  0.00    +0.017 A 
ATOM     13  C   UNL     1      31.208  22.321  16.643  0.00  0.00    +0.028 A 
BRANCH  12  14
ATOM     14  S   UNL     1      31.405  23.700  19.028  0.00  0.00    -0.016 S 
BRANCH  14  15
ATOM     15  C   UNL     1      32.865  22.656  19.222  0.00  0.00    +0.448 C 
ATOM     16  F   UNL     1      32.629  21.336  19.036  0.00  0.00    -0.160 F 
ATOM     17  F   UNL     1      33.834  23.013  18.345  0.00  0.00    -0.160 F 
ATOM     18  F   UNL     1      33.386  22.792  20.467  0.00  0.00    -0.160 F 
ENDBRANCH  14  15
ENDBRANCH  12  14
ENDBRANCH   5   8
BRANCH   1  20
ATOM     19  N   UNL     1      32.563  16.570  16.048  0.00  0.00    -0.329 N 
ATOM     20  C   UNL     1      32.048  16.280  14.819  0.00  0.00    +0.215 C 
ATOM     21  O   UNL     1      32.307  15.215  14.279  0.00  0.00    -0.276 OA
ATOM     22  H   UNL     1      33.173  15.882  16.472  0.00  0.00    +0.145 HD
ATOM     23  H   UNL     1      32.440  17.460  16.508  0.00  0.00    +0.145 HD
ENDBRANCH   1  20
TORSDOF 4
ENDMDL
MODEL 8
REMARK VINA RESULT:      -6.0     20.421     21.686
REMARK  Name = ZINC000826139982
REMARK  4 active torsions:
REMARK  status: ('A' for Active; 'I' for Inactive)
REMARK    1  A    between atoms: C_2  and  C_4
REMARK    2  A    between atoms: C_8  and  C_10
REMARK    3  A    between atoms: C_14  and  S_15
REMARK    4  A    between atoms: S_15  and  C_16
REMARK                            x       y       z     vdW  Elec       q    Type
REMARK                         _______ _______ _______ _____ _____    ______ ____
ROOT
ATOM      1  C   UNL     1      19.314   3.330  27.255  0.00  0.00    +0.093 C 
ATOM      2  C   UNL     1      18.182   4.236  27.752  0.00  0.00    +0.033 C 
ATOM      3  C   UNL     1      18.810   5.614  27.917  0.00  0.00    +0.109 C 
ATOM      4  N   UNL     1      20.207   5.338  28.180  0.00  0.00    -0.297 N 
ATOM      5  C   UNL     1      21.003   6.230  28.888  0.00  0.00    +0.247 C 
ATOM      6  O   UNL     1      20.533   7.250  29.391  0.00  0.00    -0.270 OA
ATOM      7  C   UNL     1      20.595   4.122  27.484  0.00  0.00    +0.120 C 
ENDROOT
BRANCH   5   8
ATOM      8  C   UNL     1      22.456   5.943  29.128  0.00  0.00    +0.038 A 
ATOM      9  C   UNL     1      22.971   5.559  30.370  0.00  0.00    +0.013 A 
ATOM     10  C   UNL     1      24.345   5.425  30.567  0.00  0.00    +0.002 A 
ATOM     11  C   UNL     1      25.216   5.570  29.493  0.00  0.00    +0.015 A 
ATOM     12  C   UNL     1      24.715   5.816  28.212  0.00  0.00    +0.017 A 
ATOM     13  C   UNL     1      23.341   6.037  28.041  0.00  0.00    +0.028 A 
BRANCH  12  14
ATOM     14  S   UNL     1      25.807   5.891  26.807  0.00  0.00    -0.016 S 
BRANCH  14  15
ATOM     15  C   UNL     1      26.146   7.662  26.721  0.00  0.00    +0.448 C 
ATOM     16  F   UNL     1      27.294   7.973  26.074  0.00  0.00    -0.160 F 
ATOM     17  F   UNL     1      25.143   8.315  26.087  0.00  0.00    -0.160 F 
ATOM     18  F   UNL     1      26.241   8.190  27.967  0.00  0.00    -0.160 F 
ENDBRANCH  14  15
ENDBRANCH  12  14
ENDBRANCH   5   8
BRANCH   1  20
ATOM     19  N   UNL     1      17.885   2.702  25.392  0.00  0.00    -0.329 N 
ATOM     20  C   UNL     1      19.170   2.883  25.812  0.00  0.00    +0.215 C 
ATOM     21  O   UNL     1      20.103   2.630  25.064  0.00  0.00    -0.276 OA
ATOM     22  H   UNL     1      17.747   2.338  24.458  0.00  0.00    +0.145 HD
ATOM     23  H   UNL     1      17.081   2.827  25.990  0.00  0.00    +0.145 HD
ENDBRANCH   1  20
TORSDOF 4
ENDMDL
MODEL 9
REMARK VINA RESULT:      -5.9      3.838      4.750
REMARK  Name = ZINC000826139982
REMARK  4 active torsions:
REMARK  status: ('A' for Active; 'I' for Inactive)
REMARK    1  A    between atoms: C_2  and  C_4
REMARK    2  A    between atoms: C_8  and  C_10
REMARK    3  A    between atoms: C_14  and  S_15
REMARK    4  A    between atoms: S_15  and  C_16
REMARK                            x       y       z     vdW  Elec       q    Type
REMARK                         _______ _______ _______ _____ _____    ______ ____
ROOT
ATOM      1  C   UNL     1      32.019  23.193  17.360  0.00  0.00    +0.093 C 
ATOM      2  C   UNL     1      30.787  22.347  17.701  0.00  0.00    +0.033 C 
ATOM      3  C   UNL     1      30.499  21.529  16.450  0.00  0.00    +0.109 C 
ATOM      4  N   UNL     1      31.026  22.336  15.369  0.00  0.00    -0.297 N 
ATOM      5  C   UNL     1      30.528  22.233  14.076  0.00  0.00    +0.247 C 
ATOM      6  O   UNL     1      29.564  21.514  13.814  0.00  0.00    -0.270 OA
ATOM      7  C   UNL     1      32.174  23.090  15.848  0.00  0.00    +0.120 C 
ENDROOT
BRANCH   5   8
ATOM      8  C   UNL     1      31.103  23.056  12.961  0.00  0.00    +0.038 A 
ATOM      9  C   UNL     1      30.687  24.359  12.670  0.00  0.00    +0.013 A 
ATOM     10  C   UNL     1      31.167  25.032  11.547  0.00  0.00    +0.002 A 
ATOM     11  C   UNL     1      32.153  24.449  10.758  0.00  0.00    +0.015 A 
ATOM     12  C   UNL     1      32.686  23.205  11.108  0.00  0.00    +0.017 A 
ATOM     13  C   UNL     1      32.134  22.498  12.186  0.00  0.00    +0.028 A 
BRANCH  12  14
ATOM     14  S   UNL     1      34.028  22.495  10.176  0.00  0.00    -0.016 S 
BRANCH  14  15
ATOM     15  C   UNL     1      33.206  22.114   8.615  0.00  0.00    +0.448 C 
ATOM     16  F   UNL     1      32.619  23.182   8.024  0.00  0.00    -0.160 F 
ATOM     17  F   UNL     1      34.083  21.599   7.720  0.00  0.00    -0.160 F 
ATOM     18  F   UNL     1      32.236  21.184   8.801  0.00  0.00    -0.160 F 
ENDBRANCH  14  15
ENDBRANCH  12  14
ENDBRANCH   5   8
BRANCH   1  20
ATOM     19  N   UNL     1      33.080  22.026  19.208  0.00  0.00    -0.329 N 
ATOM     20  C   UNL     1      33.283  22.783  18.092  0.00  0.00    +0.215 C 
ATOM     21  O   UNL     1      34.413  23.131  17.783  0.00  0.00    -0.276 OA
ATOM     22  H   UNL     1      33.891  21.789  19.765  0.00  0.00    +0.145 HD
ATOM     23  H   UNL     1      32.164  21.771  19.550  0.00  0.00    +0.145 HD
ENDBRANCH   1  20
TORSDOF 4
ENDMDL
