MODEL 1
REMARK VINA RESULT:      -6.4      0.000      0.000
REMARK  Name = ZINC000543478179
REMARK  8 active torsions:
REMARK  status: ('A' for Active; 'I' for Inactive)
REMARK    1  A    between atoms: C_1  and  C_2
REMARK    2  A    between atoms: C_2  and  N_3
REMARK    3  A    between atoms: N_9  and  C_10
REMARK    4  A    between atoms: C_10  and  C_11
REMARK    5  A    between atoms: C_10  and  C_12
REMARK    6  A    between atoms: C_15  and  O_16
REMARK    7  A    between atoms: O_16  and  C_17
REMARK    8  A    between atoms: C_17  and  C_18
REMARK                            x       y       z     vdW  Elec       q    Type
REMARK                         _______ _______ _______ _____ _____    ______ ____
ROOT
ATOM      1  C   UNL     1      33.354  23.786   9.476  0.00  0.00    +0.102 C 
ATOM      2  C   UNL     1      32.202  24.701   9.054  0.00  0.00    +0.033 C 
ENDROOT
BRANCH   1   9
ATOM      3  N   UNL     1      37.356  20.984   7.085  0.00  0.00    -0.299 N 
ATOM      4  C   UNL     1      38.185  21.973   7.771  0.00  0.00    +0.127 C 
ATOM      5  C   UNL     1      37.591  23.380   7.672  0.00  0.00    +0.129 C 
ATOM      6  N   UNL     1      36.228  23.398   8.212  0.00  0.00    -0.275 N 
ATOM      7  C   UNL     1      35.859  24.407   9.056  0.00  0.00    +0.303 C 
ATOM      8  O   UNL     1      36.654  25.291   9.390  0.00  0.00    -0.253 OA
ATOM      9  N   UNL     1      34.622  24.500   9.591  0.00  0.00    -0.293 N 
ATOM     10  C   UNL     1      35.382  22.307   7.755  0.00  0.00    +0.205 C 
ATOM     11  C   UNL     1      35.993  21.159   6.952  0.00  0.00    +0.233 C 
ATOM     12  O   UNL     1      35.264  20.376   6.338  0.00  0.00    -0.274 OA
ATOM     13  H   UNL     1      34.597  25.312  10.196  0.00  0.00    +0.151 HD
BRANCH   3  15
ATOM     14  C   UNL     1      38.486  20.001   5.149  0.00  0.00    +0.024 C 
ATOM     15  C   UNL     1      37.966  19.777   6.557  0.00  0.00    +0.104 C 
ENDBRANCH   3  15
ENDBRANCH   1   9
BRANCH   1  16
ATOM     16  C   UNL     1      33.053  23.048  10.768  0.00  0.00    -0.024 A 
ATOM     17  C   UNL     1      32.092  23.513  11.673  0.00  0.00    +0.009 A 
ATOM     18  C   UNL     1      31.844  22.832  12.866  0.00  0.00    +0.049 A 
ATOM     19  C   UNL     1      32.584  21.690  13.199  0.00  0.00    +0.156 A 
ATOM     20  C   UNL     1      33.512  21.205  12.281  0.00  0.00    +0.165 A 
ATOM     21  F   UNL     1      34.212  20.090  12.545  0.00  0.00    -0.202 F 
ATOM     22  C   UNL     1      33.760  21.875  11.084  0.00  0.00    +0.047 A 
BRANCH  19  23
ATOM     23  O   UNL     1      32.464  21.009  14.379  0.00  0.00    -0.489 OA
BRANCH  23  24
ATOM     24  C   UNL     1      31.126  20.666  14.743  0.00  0.00    +0.232 C 
BRANCH  24  25
ATOM     25  C   UNL     1      30.795  21.290  16.061  0.00  0.00    +0.027 C 
ATOM     26  C   UNL     1      29.350  21.524  16.422  0.00  0.00    +0.007 C 
ATOM     27  C   UNL     1      30.246  22.694  16.121  0.00  0.00    +0.007 C 
ENDBRANCH  24  25
ENDBRANCH  23  24
ENDBRANCH  19  23
ENDBRANCH   1  16
TORSDOF 6
ENDMDL
MODEL 2
REMARK VINA RESULT:      -6.3      6.125      7.748
REMARK  Name = ZINC000543478179
REMARK  8 active torsions:
REMARK  status: ('A' for Active; 'I' for Inactive)
REMARK    1  A    between atoms: C_1  and  C_2
REMARK    2  A    between atoms: C_2  and  N_3
REMARK    3  A    between atoms: N_9  and  C_10
REMARK    4  A    between atoms: C_10  and  C_11
REMARK    5  A    between atoms: C_10  and  C_12
REMARK    6  A    between atoms: C_15  and  O_16
REMARK    7  A    between atoms: O_16  and  C_17
REMARK    8  A    between atoms: C_17  and  C_18
REMARK                            x       y       z     vdW  Elec       q    Type
REMARK                         _______ _______ _______ _____ _____    ______ ____
ROOT
ATOM      1  C   UNL     1      35.393  18.776  15.568  0.00  0.00    +0.102 C 
ATOM      2  C   UNL     1      36.635  19.616  15.875  0.00  0.00    +0.033 C 
ENDROOT
BRANCH   1   9
ATOM      3  N   UNL     1      33.594  14.585  12.604  0.00  0.00    -0.299 N 
ATOM      4  C   UNL     1      33.499  13.956  13.920  0.00  0.00    +0.127 C 
ATOM      5  C   UNL     1      34.720  14.269  14.790  0.00  0.00    +0.129 C 
ATOM      6  N   UNL     1      34.888  15.718  14.931  0.00  0.00    -0.275 N 
ATOM      7  C   UNL     1      35.148  16.242  16.165  0.00  0.00    +0.303 C 
ATOM      8  O   UNL     1      35.224  15.524  17.167  0.00  0.00    -0.253 OA
ATOM      9  N   UNL     1      35.323  17.564  16.380  0.00  0.00    -0.293 N 
ATOM     10  C   UNL     1      34.772  16.465  13.688  0.00  0.00    +0.205 C 
ATOM     11  C   UNL     1      34.302  15.755  12.419  0.00  0.00    +0.233 C 
ATOM     12  O   UNL     1      34.450  16.292  11.318  0.00  0.00    -0.274 OA
ATOM     13  H   UNL     1      35.479  17.709  17.370  0.00  0.00    +0.151 HD
BRANCH   3  15
ATOM     14  C   UNL     1      33.220  12.509  11.363  0.00  0.00    +0.024 C 
ATOM     15  C   UNL     1      32.907  13.990  11.472  0.00  0.00    +0.104 C 
ENDBRANCH   3  15
ENDBRANCH   1   9
BRANCH   1  16
ATOM     16  C   UNL     1      34.112  19.576  15.715  0.00  0.00    -0.024 A 
ATOM     17  C   UNL     1      33.894  20.420  16.810  0.00  0.00    +0.009 A 
ATOM     18  C   UNL     1      32.701  21.133  16.939  0.00  0.00    +0.049 A 
ATOM     19  C   UNL     1      31.679  20.983  15.993  0.00  0.00    +0.156 A 
ATOM     20  C   UNL     1      31.910  20.173  14.884  0.00  0.00    +0.165 A 
ATOM     21  F   UNL     1      30.971  20.036  13.934  0.00  0.00    -0.202 F 
ATOM     22  C   UNL     1      33.102  19.465  14.744  0.00  0.00    +0.047 A 
BRANCH  19  23
ATOM     23  O   UNL     1      30.451  21.577  16.082  0.00  0.00    -0.489 OA
BRANCH  23  24
ATOM     24  C   UNL     1      30.443  22.984  15.836  0.00  0.00    +0.232 C 
BRANCH  24  25
ATOM     25  C   UNL     1      30.126  23.233  14.395  0.00  0.00    +0.027 C 
ATOM     26  C   UNL     1      31.255  23.376  13.407  0.00  0.00    +0.007 C 
ATOM     27  C   UNL     1      30.422  24.574  13.772  0.00  0.00    +0.007 C 
ENDBRANCH  24  25
ENDBRANCH  23  24
ENDBRANCH  19  23
ENDBRANCH   1  16
TORSDOF 6
ENDMDL
MODEL 3
REMARK VINA RESULT:      -6.2      1.613      2.081
REMARK  Name = ZINC000543478179
REMARK  8 active torsions:
REMARK  status: ('A' for Active; 'I' for Inactive)
REMARK    1  A    between atoms: C_1  and  C_2
REMARK    2  A    between atoms: C_2  and  N_3
REMARK    3  A    between atoms: N_9  and  C_10
REMARK    4  A    between atoms: C_10  and  C_11
REMARK    5  A    between atoms: C_10  and  C_12
REMARK    6  A    between atoms: C_15  and  O_16
REMARK    7  A    between atoms: O_16  and  C_17
REMARK    8  A    between atoms: C_17  and  C_18
REMARK                            x       y       z     vdW  Elec       q    Type
REMARK                         _______ _______ _______ _____ _____    ______ ____
ROOT
ATOM      1  C   UNL     1      33.238  23.934   9.724  0.00  0.00    +0.102 C 
ATOM      2  C   UNL     1      32.140  24.741   9.028  0.00  0.00    +0.033 C 
ENDROOT
BRANCH   1   9
ATOM      3  N   UNL     1      37.255  21.095   7.402  0.00  0.00    -0.299 N 
ATOM      4  C   UNL     1      38.078  22.114   8.051  0.00  0.00    +0.127 C 
ATOM      5  C   UNL     1      37.469  23.512   7.909  0.00  0.00    +0.129 C 
ATOM      6  N   UNL     1      36.109  23.534   8.456  0.00  0.00    -0.275 N 
ATOM      7  C   UNL     1      35.735  24.566   9.269  0.00  0.00    +0.303 C 
ATOM      8  O   UNL     1      36.522  25.469   9.570  0.00  0.00    -0.253 OA
ATOM      9  N   UNL     1      34.500  24.665   9.809  0.00  0.00    -0.293 N 
ATOM     10  C   UNL     1      35.271  22.420   8.040  0.00  0.00    +0.205 C 
ATOM     11  C   UNL     1      35.890  21.253   7.271  0.00  0.00    +0.233 C 
ATOM     12  O   UNL     1      35.165  20.443   6.688  0.00  0.00    -0.274 OA
ATOM     13  H   UNL     1      34.470  25.495  10.387  0.00  0.00    +0.151 HD
BRANCH   3  15
ATOM     14  C   UNL     1      38.507  20.101   5.549  0.00  0.00    +0.024 C 
ATOM     15  C   UNL     1      37.874  19.878   6.910  0.00  0.00    +0.104 C 
ENDBRANCH   3  15
ENDBRANCH   1   9
BRANCH   1  16
ATOM     16  C   UNL     1      32.815  23.465  11.104  0.00  0.00    -0.024 A 
ATOM     17  C   UNL     1      33.215  22.224  11.613  0.00  0.00    +0.009 A 
ATOM     18  C   UNL     1      32.799  21.801  12.876  0.00  0.00    +0.049 A 
ATOM     19  C   UNL     1      31.937  22.596  13.643  0.00  0.00    +0.156 A 
ATOM     20  C   UNL     1      31.571  23.847  13.154  0.00  0.00    +0.165 A 
ATOM     21  F   UNL     1      30.780  24.656  13.877  0.00  0.00    -0.202 F 
ATOM     22  C   UNL     1      31.989  24.280  11.896  0.00  0.00    +0.047 A 
BRANCH  19  23
ATOM     23  O   UNL     1      31.417  22.226  14.852  0.00  0.00    -0.489 OA
BRANCH  23  24
ATOM     24  C   UNL     1      32.347  22.234  15.936  0.00  0.00    +0.232 C 
BRANCH  24  25
ATOM     25  C   UNL     1      32.429  20.863  16.529  0.00  0.00    +0.027 C 
ATOM     26  C   UNL     1      33.429  20.594  17.626  0.00  0.00    +0.007 C 
ATOM     27  C   UNL     1      33.630  19.990  16.263  0.00  0.00    +0.007 C 
ENDBRANCH  24  25
ENDBRANCH  23  24
ENDBRANCH  19  23
ENDBRANCH   1  16
TORSDOF 6
ENDMDL
MODEL 4
REMARK VINA RESULT:      -6.2      5.388      8.269
REMARK  Name = ZINC000543478179
REMARK  8 active torsions:
REMARK  status: ('A' for Active; 'I' for Inactive)
REMARK    1  A    between atoms: C_1  and  C_2
REMARK    2  A    between atoms: C_2  and  N_3
REMARK    3  A    between atoms: N_9  and  C_10
REMARK    4  A    between atoms: C_10  and  C_11
REMARK    5  A    between atoms: C_10  and  C_12
REMARK    6  A    between atoms: C_15  and  O_16
REMARK    7  A    between atoms: O_16  and  C_17
REMARK    8  A    between atoms: C_17  and  C_18
REMARK                            x       y       z     vdW  Elec       q    Type
REMARK                         _______ _______ _______ _____ _____    ______ ____
ROOT
ATOM      1  C   UNL     1      33.818  20.886  17.141  0.00  0.00    +0.102 C 
ATOM      2  C   UNL     1      34.178  19.460  17.568  0.00  0.00    +0.033 C 
ENDROOT
BRANCH   1   9
ATOM      3  N   UNL     1      32.896  23.619  12.530  0.00  0.00    -0.299 N 
ATOM      4  C   UNL     1      31.538  23.673  13.071  0.00  0.00    +0.127 C 
ATOM      5  C   UNL     1      31.116  22.334  13.681  0.00  0.00    +0.129 C 
ATOM      6  N   UNL     1      32.062  21.927  14.725  0.00  0.00    -0.275 N 
ATOM      7  C   UNL     1      31.581  21.460  15.915  0.00  0.00    +0.303 C 
ATOM      8  O   UNL     1      30.368  21.392  16.139  0.00  0.00    -0.253 OA
ATOM      9  N   UNL     1      32.384  21.059  16.925  0.00  0.00    -0.293 N 
ATOM     10  C   UNL     1      33.463  22.054  14.354  0.00  0.00    +0.205 C 
ATOM     11  C   UNL     1      33.841  22.759  13.052  0.00  0.00    +0.233 C 
ATOM     12  O   UNL     1      34.981  22.646  12.595  0.00  0.00    -0.274 OA
ATOM     13  H   UNL     1      31.801  20.779  17.704  0.00  0.00    +0.151 HD
BRANCH   3  15
ATOM     14  C   UNL     1      32.546  24.135  10.164  0.00  0.00    +0.024 C 
ATOM     15  C   UNL     1      33.272  24.505  11.444  0.00  0.00    +0.104 C 
ENDBRANCH   3  15
ENDBRANCH   1   9
BRANCH   1  16
ATOM     16  C   UNL     1      34.324  21.922  18.128  0.00  0.00    -0.024 A 
ATOM     17  C   UNL     1      34.736  21.568  19.419  0.00  0.00    +0.009 A 
ATOM     18  C   UNL     1      35.179  22.538  20.319  0.00  0.00    +0.049 A 
ATOM     19  C   UNL     1      35.181  23.893  19.961  0.00  0.00    +0.156 A 
ATOM     20  C   UNL     1      34.808  24.240  18.664  0.00  0.00    +0.165 A 
ATOM     21  F   UNL     1      34.836  25.523  18.269  0.00  0.00    -0.202 F 
ATOM     22  C   UNL     1      34.372  23.276  17.757  0.00  0.00    +0.047 A 
BRANCH  19  23
ATOM     23  O   UNL     1      35.521  24.914  20.804  0.00  0.00    -0.489 OA
BRANCH  23  24
ATOM     24  C   UNL     1      34.443  25.441  21.578  0.00  0.00    +0.232 C 
BRANCH  24  25
ATOM     25  C   UNL     1      34.224  26.874  21.212  0.00  0.00    +0.027 C 
ATOM     26  C   UNL     1      35.407  27.725  20.825  0.00  0.00    +0.007 C 
ATOM     27  C   UNL     1      34.698  27.974  22.128  0.00  0.00    +0.007 C 
ENDBRANCH  24  25
ENDBRANCH  23  24
ENDBRANCH  19  23
ENDBRANCH   1  16
TORSDOF 6
ENDMDL
MODEL 5
REMARK VINA RESULT:      -6.2      5.404      8.221
REMARK  Name = ZINC000543478179
REMARK  8 active torsions:
REMARK  status: ('A' for Active; 'I' for Inactive)
REMARK    1  A    between atoms: C_1  and  C_2
REMARK    2  A    between atoms: C_2  and  N_3
REMARK    3  A    between atoms: N_9  and  C_10
REMARK    4  A    between atoms: C_10  and  C_11
REMARK    5  A    between atoms: C_10  and  C_12
REMARK    6  A    between atoms: C_15  and  O_16
REMARK    7  A    between atoms: O_16  and  C_17
REMARK    8  A    between atoms: C_17  and  C_18
REMARK                            x       y       z     vdW  Elec       q    Type
REMARK                         _______ _______ _______ _____ _____    ______ ____
ROOT
ATOM      1  C   UNL     1      33.834  20.922  17.115  0.00  0.00    +0.102 C 
ATOM      2  C   UNL     1      34.207  19.493  17.516  0.00  0.00    +0.033 C 
ENDROOT
BRANCH   1   9
ATOM      3  N   UNL     1      32.919  23.634  12.489  0.00  0.00    -0.299 N 
ATOM      4  C   UNL     1      31.559  23.679  13.021  0.00  0.00    +0.127 C 
ATOM      5  C   UNL     1      31.142  22.338  13.633  0.00  0.00    +0.129 C 
ATOM      6  N   UNL     1      32.085  21.942  14.684  0.00  0.00    -0.275 N 
ATOM      7  C   UNL     1      31.601  21.476  15.873  0.00  0.00    +0.303 C 
ATOM      8  O   UNL     1      30.387  21.399  16.089  0.00  0.00    -0.253 OA
ATOM      9  N   UNL     1      32.401  21.084  16.889  0.00  0.00    -0.293 N 
ATOM     10  C   UNL     1      33.488  22.079  14.322  0.00  0.00    +0.205 C 
ATOM     11  C   UNL     1      33.868  22.783  13.020  0.00  0.00    +0.233 C 
ATOM     12  O   UNL     1      35.012  22.677  12.570  0.00  0.00    -0.274 OA
ATOM     13  H   UNL     1      31.815  20.802  17.665  0.00  0.00    +0.151 HD
BRANCH   3  15
ATOM     14  C   UNL     1      32.598  24.125  10.114  0.00  0.00    +0.024 C 
ATOM     15  C   UNL     1      33.295  24.519  11.403  0.00  0.00    +0.104 C 
ENDBRANCH   3  15
ENDBRANCH   1   9
BRANCH   1  16
ATOM     16  C   UNL     1      34.320  21.944  18.127  0.00  0.00    -0.024 A 
ATOM     17  C   UNL     1      34.789  21.562  19.390  0.00  0.00    +0.009 A 
ATOM     18  C   UNL     1      35.212  22.517  20.315  0.00  0.00    +0.049 A 
ATOM     19  C   UNL     1      35.136  23.883  20.011  0.00  0.00    +0.156 A 
ATOM     20  C   UNL     1      34.706  24.261  18.742  0.00  0.00    +0.165 A 
ATOM     21  F   UNL     1      34.657  25.558  18.398  0.00  0.00    -0.202 F 
ATOM     22  C   UNL     1      34.289  23.312  17.810  0.00  0.00    +0.047 A 
BRANCH  19  23
ATOM     23  O   UNL     1      35.452  24.886  20.884  0.00  0.00    -0.489 OA
BRANCH  23  24
ATOM     24  C   UNL     1      34.359  25.372  21.665  0.00  0.00    +0.232 C 
BRANCH  24  25
ATOM     25  C   UNL     1      34.562  24.989  23.096  0.00  0.00    +0.027 C 
ATOM     26  C   UNL     1      33.998  23.683  23.596  0.00  0.00    +0.007 C 
ATOM     27  C   UNL     1      33.398  24.983  24.055  0.00  0.00    +0.007 C 
ENDBRANCH  24  25
ENDBRANCH  23  24
ENDBRANCH  19  23
ENDBRANCH   1  16
TORSDOF 6
ENDMDL
MODEL 6
REMARK VINA RESULT:      -6.1      3.700      5.675
REMARK  Name = ZINC000543478179
REMARK  8 active torsions:
REMARK  status: ('A' for Active; 'I' for Inactive)
REMARK    1  A    between atoms: C_1  and  C_2
REMARK    2  A    between atoms: C_2  and  N_3
REMARK    3  A    between atoms: N_9  and  C_10
REMARK    4  A    between atoms: C_10  and  C_11
REMARK    5  A    between atoms: C_10  and  C_12
REMARK    6  A    between atoms: C_15  and  O_16
REMARK    7  A    between atoms: O_16  and  C_17
REMARK    8  A    between atoms: C_17  and  C_18
REMARK                            x       y       z     vdW  Elec       q    Type
REMARK                         _______ _______ _______ _____ _____    ______ ____
ROOT
ATOM      1  C   UNL     1      35.540  23.882  10.301  0.00  0.00    +0.102 C 
ATOM      2  C   UNL     1      35.756  23.089   9.009  0.00  0.00    +0.033 C 
ENDROOT
BRANCH   1   9
ATOM      3  N   UNL     1      37.032  26.395  14.888  0.00  0.00    -0.299 N 
ATOM      4  C   UNL     1      36.648  27.581  14.124  0.00  0.00    +0.127 C 
ATOM      5  C   UNL     1      37.141  27.510  12.676  0.00  0.00    +0.129 C 
ATOM      6  N   UNL     1      36.633  26.300  12.023  0.00  0.00    -0.275 N 
ATOM      7  C   UNL     1      36.107  26.391  10.766  0.00  0.00    +0.303 C 
ATOM      8  O   UNL     1      36.032  27.474  10.176  0.00  0.00    -0.253 OA
ATOM      9  N   UNL     1      35.625  25.324  10.092  0.00  0.00    -0.293 N 
ATOM     10  C   UNL     1      36.768  25.084  12.812  0.00  0.00    +0.205 C 
ATOM     11  C   UNL     1      37.214  25.174  14.271  0.00  0.00    +0.233 C 
ATOM     12  O   UNL     1      37.586  24.160  14.868  0.00  0.00    -0.274 OA
ATOM     13  H   UNL     1      35.272  25.644   9.198  0.00  0.00    +0.151 HD
BRANCH   3  15
ATOM     14  C   UNL     1      37.655  27.878  16.732  0.00  0.00    +0.024 C 
ATOM     15  C   UNL     1      37.197  26.489  16.326  0.00  0.00    +0.104 C 
ENDBRANCH   3  15
ENDBRANCH   1   9
BRANCH   1  16
ATOM     16  C   UNL     1      34.225  23.530  10.973  0.00  0.00    -0.024 A 
ATOM     17  C   UNL     1      33.120  24.387  10.919  0.00  0.00    +0.009 A 
ATOM     18  C   UNL     1      31.925  24.057  11.561  0.00  0.00    +0.049 A 
ATOM     19  C   UNL     1      31.823  22.875  12.307  0.00  0.00    +0.156 A 
ATOM     20  C   UNL     1      32.910  22.004  12.329  0.00  0.00    +0.165 A 
ATOM     21  F   UNL     1      32.838  20.843  12.999  0.00  0.00    -0.202 F 
ATOM     22  C   UNL     1      34.103  22.324  11.684  0.00  0.00    +0.047 A 
BRANCH  19  23
ATOM     23  O   UNL     1      30.722  22.512  13.031  0.00  0.00    -0.489 OA
BRANCH  23  24
ATOM     24  C   UNL     1      30.456  23.328  14.173  0.00  0.00    +0.232 C 
BRANCH  24  25
ATOM     25  C   UNL     1      30.749  22.551  15.417  0.00  0.00    +0.027 C 
ATOM     26  C   UNL     1      30.624  21.048  15.393  0.00  0.00    +0.007 C 
ATOM     27  C   UNL     1      29.633  21.871  16.170  0.00  0.00    +0.007 C 
ENDBRANCH  24  25
ENDBRANCH  23  24
ENDBRANCH  19  23
ENDBRANCH   1  16
TORSDOF 6
ENDMDL
MODEL 7
REMARK VINA RESULT:      -6.0      6.446      9.336
REMARK  Name = ZINC000543478179
REMARK  8 active torsions:
REMARK  status: ('A' for Active; 'I' for Inactive)
REMARK    1  A    between atoms: C_1  and  C_2
REMARK    2  A    between atoms: C_2  and  N_3
REMARK    3  A    between atoms: N_9  and  C_10
REMARK    4  A    between atoms: C_10  and  C_11
REMARK    5  A    between atoms: C_10  and  C_12
REMARK    6  A    between atoms: C_15  and  O_16
REMARK    7  A    between atoms: O_16  and  C_17
REMARK    8  A    between atoms: C_17  and  C_18
REMARK                            x       y       z     vdW  Elec       q    Type
REMARK                         _______ _______ _______ _____ _____    ______ ____
ROOT
ATOM      1  C   UNL     1      34.439  17.381  13.045  0.00  0.00    +0.102 C 
ATOM      2  C   UNL     1      35.894  17.362  13.517  0.00  0.00    +0.033 C 
ENDROOT
BRANCH   1   9
ATOM      3  N   UNL     1      31.753  21.605  15.173  0.00  0.00    -0.299 N 
ATOM      4  C   UNL     1      31.618  21.969  13.764  0.00  0.00    +0.127 C 
ATOM      5  C   UNL     1      32.920  21.747  12.991  0.00  0.00    +0.129 C 
ATOM      6  N   UNL     1      33.355  20.352  13.114  0.00  0.00    -0.275 N 
ATOM      7  C   UNL     1      33.773  19.683  11.999  0.00  0.00    +0.303 C 
ATOM      8  O   UNL     1      33.772  20.220  10.887  0.00  0.00    -0.253 OA
ATOM      9  N   UNL     1      34.195  18.400  12.028  0.00  0.00    -0.293 N 
ATOM     10  C   UNL     1      33.309  19.821  14.468  0.00  0.00    +0.205 C 
ATOM     11  C   UNL     1      32.651  20.638  15.580  0.00  0.00    +0.233 C 
ATOM     12  O   UNL     1      32.833  20.334  16.762  0.00  0.00    -0.274 OA
ATOM     13  H   UNL     1      34.428  18.120  11.083  0.00  0.00    +0.151 HD
BRANCH   3  15
ATOM     14  C   UNL     1      29.543  21.587  16.224  0.00  0.00    +0.024 C 
ATOM     15  C   UNL     1      30.910  22.245  16.165  0.00  0.00    +0.104 C 
ENDBRANCH   3  15
ENDBRANCH   1   9
BRANCH   1  16
ATOM     16  C   UNL     1      33.984  16.023  12.540  0.00  0.00    -0.024 A 
ATOM     17  C   UNL     1      33.989  15.707  11.176  0.00  0.00    +0.009 A 
ATOM     18  C   UNL     1      33.548  14.460  10.729  0.00  0.00    +0.049 A 
ATOM     19  C   UNL     1      33.053  13.515  11.636  0.00  0.00    +0.156 A 
ATOM     20  C   UNL     1      33.084  13.815  12.996  0.00  0.00    +0.165 A 
ATOM     21  F   UNL     1      32.656  12.920  13.900  0.00  0.00    -0.202 F 
ATOM     22  C   UNL     1      33.530  15.054  13.450  0.00  0.00    +0.047 A 
BRANCH  19  23
ATOM     23  O   UNL     1      32.527  12.304  11.279  0.00  0.00    -0.489 OA
BRANCH  23  24
ATOM     24  C   UNL     1      33.457  11.221  11.278  0.00  0.00    +0.232 C 
BRANCH  24  25
ATOM     25  C   UNL     1      32.722   9.937  11.500  0.00  0.00    +0.027 C 
ATOM     26  C   UNL     1      31.560   9.910  12.461  0.00  0.00    +0.007 C 
ATOM     27  C   UNL     1      32.843   9.209  12.815  0.00  0.00    +0.007 C 
ENDBRANCH  24  25
ENDBRANCH  23  24
ENDBRANCH  19  23
ENDBRANCH   1  16
TORSDOF 6
ENDMDL
MODEL 8
REMARK VINA RESULT:      -6.0      2.424      3.838
REMARK  Name = ZINC000543478179
REMARK  8 active torsions:
REMARK  status: ('A' for Active; 'I' for Inactive)
REMARK    1  A    between atoms: C_1  and  C_2
REMARK    2  A    between atoms: C_2  and  N_3
REMARK    3  A    between atoms: N_9  and  C_10
REMARK    4  A    between atoms: C_10  and  C_11
REMARK    5  A    between atoms: C_10  and  C_12
REMARK    6  A    between atoms: C_15  and  O_16
REMARK    7  A    between atoms: O_16  and  C_17
REMARK    8  A    between atoms: C_17  and  C_18
REMARK                            x       y       z     vdW  Elec       q    Type
REMARK                         _______ _______ _______ _____ _____    ______ ____
ROOT
ATOM      1  C   UNL     1      36.049  21.914   9.591  0.00  0.00    +0.102 C 
ATOM      2  C   UNL     1      37.112  21.211  10.439  0.00  0.00    +0.033 C 
ENDROOT
BRANCH   1   9
ATOM      3  N   UNL     1      37.507  24.804   5.220  0.00  0.00    -0.299 N 
ATOM      4  C   UNL     1      36.732  23.773   4.531  0.00  0.00    +0.127 C 
ATOM      5  C   UNL     1      37.014  22.377   5.094  0.00  0.00    +0.129 C 
ATOM      6  N   UNL     1      36.737  22.343   6.533  0.00  0.00    -0.275 N 
ATOM      7  C   UNL     1      36.030  21.295   7.051  0.00  0.00    +0.303 C 
ATOM      8  O   UNL     1      35.602  20.387   6.330  0.00  0.00    -0.253 OA
ATOM      9  N   UNL     1      35.739  21.183   8.365  0.00  0.00    -0.293 N 
ATOM     10  C   UNL     1      37.284  23.464   7.282  0.00  0.00    +0.205 C 
ATOM     11  C   UNL     1      37.898  24.646   6.534  0.00  0.00    +0.233 C 
ATOM     12  O   UNL     1      38.594  25.467   7.138  0.00  0.00    -0.274 OA
ATOM     13  H   UNL     1      35.192  20.341   8.501  0.00  0.00    +0.151 HD
BRANCH   3  15
ATOM     14  C   UNL     1      38.472  25.736   3.174  0.00  0.00    +0.024 C 
ATOM     15  C   UNL     1      37.848  26.031   4.525  0.00  0.00    +0.104 C 
ENDBRANCH   3  15
ENDBRANCH   1   9
BRANCH   1  16
ATOM     16  C   UNL     1      34.776  22.178  10.375  0.00  0.00    -0.024 A 
ATOM     17  C   UNL     1      34.433  21.415  11.498  0.00  0.00    +0.009 A 
ATOM     18  C   UNL     1      33.248  21.659  12.194  0.00  0.00    +0.049 A 
ATOM     19  C   UNL     1      32.358  22.649  11.756  0.00  0.00    +0.156 A 
ATOM     20  C   UNL     1      32.718  23.433  10.663  0.00  0.00    +0.165 A 
ATOM     21  F   UNL     1      31.912  24.419  10.237  0.00  0.00    -0.202 F 
ATOM     22  C   UNL     1      33.903  23.200   9.967  0.00  0.00    +0.047 A 
BRANCH  19  23
ATOM     23  O   UNL     1      31.142  22.901  12.327  0.00  0.00    -0.489 OA
BRANCH  23  24
ATOM     24  C   UNL     1      31.137  22.910  13.755  0.00  0.00    +0.232 C 
BRANCH  24  25
ATOM     25  C   UNL     1      30.306  21.772  14.255  0.00  0.00    +0.027 C 
ATOM     26  C   UNL     1      30.017  21.664  15.731  0.00  0.00    +0.007 C 
ATOM     27  C   UNL     1      30.935  20.672  15.073  0.00  0.00    +0.007 C 
ENDBRANCH  24  25
ENDBRANCH  23  24
ENDBRANCH  19  23
ENDBRANCH   1  16
TORSDOF 6
ENDMDL
MODEL 9
REMARK VINA RESULT:      -6.0      2.919      8.346
REMARK  Name = ZINC000543478179
REMARK  8 active torsions:
REMARK  status: ('A' for Active; 'I' for Inactive)
REMARK    1  A    between atoms: C_1  and  C_2
REMARK    2  A    between atoms: C_2  and  N_3
REMARK    3  A    between atoms: N_9  and  C_10
REMARK    4  A    between atoms: C_10  and  C_11
REMARK    5  A    between atoms: C_10  and  C_12
REMARK    6  A    between atoms: C_15  and  O_16
REMARK    7  A    between atoms: O_16  and  C_17
REMARK    8  A    between atoms: C_17  and  C_18
REMARK                            x       y       z     vdW  Elec       q    Type
REMARK                         _______ _______ _______ _____ _____    ______ ____
ROOT
ATOM      1  C   UNL     1      33.707  23.636  11.551  0.00  0.00    +0.102 C 
ATOM      2  C   UNL     1      33.953  25.134  11.360  0.00  0.00    +0.033 C 
ENDROOT
BRANCH   1   9
ATOM      3  N   UNL     1      33.592  20.843  16.218  0.00  0.00    -0.299 N 
ATOM      4  C   UNL     1      32.189  20.672  15.846  0.00  0.00    +0.127 C 
ATOM      5  C   UNL     1      31.582  21.968  15.302  0.00  0.00    +0.129 C 
ATOM      6  N   UNL     1      32.355  22.452  14.155  0.00  0.00    -0.275 N 
ATOM      7  C   UNL     1      31.694  22.874  13.036  0.00  0.00    +0.303 C 
ATOM      8  O   UNL     1      30.462  22.836  12.962  0.00  0.00    -0.253 OA
ATOM      9  N   UNL     1      32.331  23.340  11.939  0.00  0.00    -0.293 N 
ATOM     10  C   UNL     1      33.797  22.447  14.351  0.00  0.00    +0.205 C 
ATOM     11  C   UNL     1      34.390  21.780  15.591  0.00  0.00    +0.233 C 
ATOM     12  O   UNL     1      35.563  21.992  15.907  0.00  0.00    -0.274 OA
ATOM     13  H   UNL     1      31.635  23.567  11.239  0.00  0.00    +0.151 HD
BRANCH   3  15
ATOM     14  C   UNL     1      33.782  20.472  18.629  0.00  0.00    +0.024 C 
ATOM     15  C   UNL     1      34.172  19.995  17.242  0.00  0.00    +0.104 C 
ENDBRANCH   3  15
ENDBRANCH   1   9
BRANCH   1  16
ATOM     16  C   UNL     1      34.084  22.834  10.319  0.00  0.00    -0.024 A 
ATOM     17  C   UNL     1      35.264  23.086   9.609  0.00  0.00    +0.009 A 
ATOM     18  C   UNL     1      35.584  22.352   8.466  0.00  0.00    +0.049 A 
ATOM     19  C   UNL     1      34.705  21.373   7.983  0.00  0.00    +0.156 A 
ATOM     20  C   UNL     1      33.551  21.095   8.710  0.00  0.00    +0.165 A 
ATOM     21  F   UNL     1      32.704  20.136   8.302  0.00  0.00    -0.202 F 
ATOM     22  C   UNL     1      33.229  21.819   9.856  0.00  0.00    +0.047 A 
BRANCH  19  23
ATOM     23  O   UNL     1      34.899  20.664   6.830  0.00  0.00    -0.489 OA
BRANCH  23  24
ATOM     24  C   UNL     1      35.897  19.646   6.908  0.00  0.00    +0.232 C 
BRANCH  24  25
ATOM     25  C   UNL     1      36.495  19.432   5.554  0.00  0.00    +0.027 C 
ATOM     26  C   UNL     1      37.285  18.175   5.288  0.00  0.00    +0.007 C 
ATOM     27  C   UNL     1      37.989  19.503   5.361  0.00  0.00    +0.007 C 
ENDBRANCH  24  25
ENDBRANCH  23  24
ENDBRANCH  19  23
ENDBRANCH   1  16
TORSDOF 6
ENDMDL
