MODEL 1
REMARK VINA RESULT:      -6.6      0.000      0.000
REMARK  Name = ZINC000435351830
REMARK  5 active torsions:
REMARK  status: ('A' for Active; 'I' for Inactive)
REMARK    1  A    between atoms: C_2  and  C_3
REMARK    2  A    between atoms: C_7  and  C_8
REMARK    3  A    between atoms: C_8  and  C_9
REMARK    4  A    between atoms: N_11  and  C_12
REMARK    5  A    between atoms: C_12  and  C_13
REMARK                            x       y       z     vdW  Elec       q    Type
REMARK                         _______ _______ _______ _____ _____    ______ ____
ROOT
ATOM      1  C   UNL     1      31.029  16.836  13.755  0.00  0.00    +0.224 C 
ATOM      2  O   UNL     1      30.505  16.150  12.885  0.00  0.00    -0.275 OA
ATOM      3  N   UNL     1      30.372  17.340  14.847  0.00  0.00    -0.309 N 
ATOM      4  H   UNL     1      30.881  17.869  15.540  0.00  0.00    +0.149 HD
ENDROOT
BRANCH   1   5
ATOM      5  C   UNL     1      32.478  17.237  13.647  0.00  0.00    +0.072 C 
ATOM      6  C   UNL     1      33.387  17.007  14.849  0.00  0.00    +0.022 C 
ATOM      7  C   UNL     1      33.514  16.107  13.664  0.00  0.00    +0.022 C 
BRANCH   5  12
ATOM      8  C   UNL     1      32.858  20.749  12.151  0.00  0.00    +0.052 A 
ATOM      9  C   UNL     1      33.164  20.474  10.818  0.00  0.00    +0.019 A 
ATOM     10  C   UNL     1      33.309  19.152  10.399  0.00  0.00    +0.002 A 
ATOM     11  C   UNL     1      33.123  18.103  11.304  0.00  0.00    +0.005 A 
ATOM     12  C   UNL     1      32.781  18.350  12.645  0.00  0.00    -0.031 A 
ATOM     13  C   UNL     1      32.685  19.694  13.052  0.00  0.00    +0.023 A 
BRANCH   8  15
ATOM     14  N   UNL     1      32.536  23.190  12.966  0.00  0.00    -0.191 NA
ATOM     15  C   UNL     1      32.684  22.099  12.594  0.00  0.00    +0.099 C 
ENDBRANCH   8  15
ENDBRANCH   5  12
ENDBRANCH   1   5
BRANCH   3  16
ATOM     16  C   UNL     1      28.945  17.174  15.017  0.00  0.00    +0.159 C 
BRANCH  16  17
ATOM     17  C   UNL     1      28.246  18.438  15.466  0.00  0.00    +0.058 A 
ATOM     18  C   UNL     1      27.091  18.362  16.249  0.00  0.00    +0.028 A 
ATOM     19  C   UNL     1      26.450  19.540  16.628  0.00  0.00    +0.042 A 
ATOM     20  C   UNL     1      26.984  20.750  16.221  0.00  0.00    +0.141 A 
ATOM     21  F   UNL     1      26.391  21.902  16.561  0.00  0.00    -0.204 F 
ATOM     22  C   UNL     1      28.137  20.750  15.457  0.00  0.00    +0.149 A 
ATOM     23  N   UNL     1      28.785  19.623  15.073  0.00  0.00    -0.255 NA
ENDBRANCH  16  17
ENDBRANCH   3  16
TORSDOF 5
ENDMDL
MODEL 2
REMARK VINA RESULT:      -6.5      4.335      6.689
REMARK  Name = ZINC000435351830
REMARK  5 active torsions:
REMARK  status: ('A' for Active; 'I' for Inactive)
REMARK    1  A    between atoms: C_2  and  C_3
REMARK    2  A    between atoms: C_7  and  C_8
REMARK    3  A    between atoms: C_8  and  C_9
REMARK    4  A    between atoms: N_11  and  C_12
REMARK    5  A    between atoms: C_12  and  C_13
REMARK                            x       y       z     vdW  Elec       q    Type
REMARK                         _______ _______ _______ _____ _____    ______ ____
ROOT
ATOM      1  C   UNL     1      31.930  22.199  15.682  0.00  0.00    +0.224 C 
ATOM      2  O   UNL     1      32.770  21.326  15.872  0.00  0.00    -0.275 OA
ATOM      3  N   UNL     1      31.870  23.381  16.372  0.00  0.00    -0.309 N 
ATOM      4  H   UNL     1      31.168  24.067  16.134  0.00  0.00    +0.149 HD
ENDROOT
BRANCH   1   5
ATOM      5  C   UNL     1      30.826  21.997  14.675  0.00  0.00    +0.072 C 
ATOM      6  C   UNL     1      30.639  23.044  13.583  0.00  0.00    +0.022 C 
ATOM      7  C   UNL     1      31.249  21.728  13.226  0.00  0.00    +0.022 C 
BRANCH   5  12
ATOM      8  C   UNL     1      28.514  18.977  15.175  0.00  0.00    +0.052 A 
ATOM      9  C   UNL     1      27.430  19.539  15.849  0.00  0.00    +0.019 A 
ATOM     10  C   UNL     1      27.458  20.888  16.202  0.00  0.00    +0.002 A 
ATOM     11  C   UNL     1      28.556  21.683  15.859  0.00  0.00    +0.005 A 
ATOM     12  C   UNL     1      29.647  21.150  15.151  0.00  0.00    -0.031 A 
ATOM     13  C   UNL     1      29.613  19.776  14.847  0.00  0.00    +0.023 A 
BRANCH   8  15
ATOM     14  N   UNL     1      28.492  16.483  14.463  0.00  0.00    -0.191 NA
ATOM     15  C   UNL     1      28.494  17.600  14.785  0.00  0.00    +0.099 C 
ENDBRANCH   8  15
ENDBRANCH   5  12
ENDBRANCH   1   5
BRANCH   3  16
ATOM     16  C   UNL     1      32.764  23.662  17.475  0.00  0.00    +0.159 C 
BRANCH  16  17
ATOM     17  C   UNL     1      32.266  23.127  18.798  0.00  0.00    +0.058 A 
ATOM     18  C   UNL     1      30.900  23.139  19.093  0.00  0.00    +0.028 A 
ATOM     19  C   UNL     1      30.468  22.663  20.330  0.00  0.00    +0.042 A 
ATOM     20  C   UNL     1      31.410  22.188  21.227  0.00  0.00    +0.141 A 
ATOM     21  F   UNL     1      31.031  21.730  22.427  0.00  0.00    -0.204 F 
ATOM     22  C   UNL     1      32.744  22.195  20.863  0.00  0.00    +0.149 A 
ATOM     23  N   UNL     1      33.196  22.647  19.668  0.00  0.00    -0.255 NA
ENDBRANCH  16  17
ENDBRANCH   3  16
TORSDOF 5
ENDMDL
MODEL 3
REMARK VINA RESULT:      -6.5      2.507      5.632
REMARK  Name = ZINC000435351830
REMARK  5 active torsions:
REMARK  status: ('A' for Active; 'I' for Inactive)
REMARK    1  A    between atoms: C_2  and  C_3
REMARK    2  A    between atoms: C_7  and  C_8
REMARK    3  A    between atoms: C_8  and  C_9
REMARK    4  A    between atoms: N_11  and  C_12
REMARK    5  A    between atoms: C_12  and  C_13
REMARK                            x       y       z     vdW  Elec       q    Type
REMARK                         _______ _______ _______ _____ _____    ______ ____
ROOT
ATOM      1  C   UNL     1      32.669  19.451  14.082  0.00  0.00    +0.224 C 
ATOM      2  O   UNL     1      33.043  19.733  15.215  0.00  0.00    -0.275 OA
ATOM      3  N   UNL     1      32.885  20.232  12.977  0.00  0.00    -0.309 N 
ATOM      4  H   UNL     1      32.576  19.915  12.069  0.00  0.00    +0.149 HD
ENDROOT
BRANCH   1   5
ATOM      5  C   UNL     1      31.862  18.203  13.827  0.00  0.00    +0.072 C 
ATOM      6  C   UNL     1      32.243  17.321  12.644  0.00  0.00    +0.022 C 
ATOM      7  C   UNL     1      32.578  16.862  14.024  0.00  0.00    +0.022 C 
BRANCH   5  12
ATOM      8  C   UNL     1      28.573  19.524  15.295  0.00  0.00    +0.052 A 
ATOM      9  C   UNL     1      27.835  18.354  15.474  0.00  0.00    +0.019 A 
ATOM     10  C   UNL     1      28.368  17.130  15.070  0.00  0.00    +0.002 A 
ATOM     11  C   UNL     1      29.647  17.070  14.510  0.00  0.00    +0.005 A 
ATOM     12  C   UNL     1      30.426  18.229  14.348  0.00  0.00    -0.031 A 
ATOM     13  C   UNL     1      29.847  19.456  14.724  0.00  0.00    +0.023 A 
BRANCH   8  15
ATOM     14  N   UNL     1      27.618  21.803  16.081  0.00  0.00    -0.191 NA
ATOM     15  C   UNL     1      28.052  20.786  15.724  0.00  0.00    +0.099 C 
ENDBRANCH   8  15
ENDBRANCH   5  12
ENDBRANCH   1   5
BRANCH   3  16
ATOM     16  C   UNL     1      33.509  21.533  13.078  0.00  0.00    +0.159 C 
BRANCH  16  17
ATOM     17  C   UNL     1      32.574  22.673  12.740  0.00  0.00    +0.058 A 
ATOM     18  C   UNL     1      32.890  23.558  11.706  0.00  0.00    +0.028 A 
ATOM     19  C   UNL     1      32.025  24.616  11.430  0.00  0.00    +0.042 A 
ATOM     20  C   UNL     1      30.875  24.751  12.188  0.00  0.00    +0.141 A 
ATOM     21  F   UNL     1      30.025  25.759  11.955  0.00  0.00    -0.204 F 
ATOM     22  C   UNL     1      30.620  23.830  13.187  0.00  0.00    +0.149 A 
ATOM     23  N   UNL     1      31.439  22.790  13.479  0.00  0.00    -0.255 NA
ENDBRANCH  16  17
ENDBRANCH   3  16
TORSDOF 5
ENDMDL
MODEL 4
REMARK VINA RESULT:      -6.4      1.470      2.440
REMARK  Name = ZINC000435351830
REMARK  5 active torsions:
REMARK  status: ('A' for Active; 'I' for Inactive)
REMARK    1  A    between atoms: C_2  and  C_3
REMARK    2  A    between atoms: C_7  and  C_8
REMARK    3  A    between atoms: C_8  and  C_9
REMARK    4  A    between atoms: N_11  and  C_12
REMARK    5  A    between atoms: C_12  and  C_13
REMARK                            x       y       z     vdW  Elec       q    Type
REMARK                         _______ _______ _______ _____ _____    ______ ____
ROOT
ATOM      1  C   UNL     1      30.668  16.670  13.642  0.00  0.00    +0.224 C 
ATOM      2  O   UNL     1      30.082  16.006  12.794  0.00  0.00    -0.275 OA
ATOM      3  N   UNL     1      30.067  17.237  14.735  0.00  0.00    -0.309 N 
ATOM      4  H   UNL     1      30.624  17.742  15.409  0.00  0.00    +0.149 HD
ENDROOT
BRANCH   1   5
ATOM      5  C   UNL     1      32.139  16.969  13.501  0.00  0.00    +0.072 C 
ATOM      6  C   UNL     1      33.019  15.960  12.773  0.00  0.00    +0.022 C 
ATOM      7  C   UNL     1      32.661  17.236  12.084  0.00  0.00    +0.022 C 
BRANCH   5  12
ATOM      8  C   UNL     1      33.088  20.168  15.393  0.00  0.00    +0.052 A 
ATOM      9  C   UNL     1      33.915  19.682  16.406  0.00  0.00    +0.019 A 
ATOM     10  C   UNL     1      34.129  18.309  16.526  0.00  0.00    +0.002 A 
ATOM     11  C   UNL     1      33.540  17.423  15.619  0.00  0.00    +0.005 A 
ATOM     12  C   UNL     1      32.729  17.888  14.569  0.00  0.00    -0.031 A 
ATOM     13  C   UNL     1      32.493  19.274  14.499  0.00  0.00    +0.023 A 
BRANCH   8  15
ATOM     14  N   UNL     1      32.712  22.719  15.111  0.00  0.00    -0.191 NA
ATOM     15  C   UNL     1      32.874  21.575  15.242  0.00  0.00    +0.099 C 
ENDBRANCH   8  15
ENDBRANCH   5  12
ENDBRANCH   1   5
BRANCH   3  16
ATOM     16  C   UNL     1      28.636  17.172  14.933  0.00  0.00    +0.159 C 
BRANCH  16  17
ATOM     17  C   UNL     1      28.044  18.467  15.443  0.00  0.00    +0.058 A 
ATOM     18  C   UNL     1      26.903  18.449  16.249  0.00  0.00    +0.028 A 
ATOM     19  C   UNL     1      26.361  19.657  16.685  0.00  0.00    +0.042 A 
ATOM     20  C   UNL     1      26.977  20.838  16.308  0.00  0.00    +0.141 A 
ATOM     21  F   UNL     1      26.480  22.017  16.704  0.00  0.00    -0.204 F 
ATOM     22  C   UNL     1      28.110  20.779  15.519  0.00  0.00    +0.149 A 
ATOM     23  N   UNL     1      28.663  19.622  15.080  0.00  0.00    -0.255 NA
ENDBRANCH  16  17
ENDBRANCH   3  16
TORSDOF 5
ENDMDL
MODEL 5
REMARK VINA RESULT:      -6.4      1.964      3.200
REMARK  Name = ZINC000435351830
REMARK  5 active torsions:
REMARK  status: ('A' for Active; 'I' for Inactive)
REMARK    1  A    between atoms: C_2  and  C_3
REMARK    2  A    between atoms: C_7  and  C_8
REMARK    3  A    between atoms: C_8  and  C_9
REMARK    4  A    between atoms: N_11  and  C_12
REMARK    5  A    between atoms: C_12  and  C_13
REMARK                            x       y       z     vdW  Elec       q    Type
REMARK                         _______ _______ _______ _____ _____    ______ ____
ROOT
ATOM      1  C   UNL     1      30.935  16.784  13.613  0.00  0.00    +0.224 C 
ATOM      2  O   UNL     1      30.377  16.015  12.838  0.00  0.00    -0.275 OA
ATOM      3  N   UNL     1      30.334  17.363  14.699  0.00  0.00    -0.309 N 
ATOM      4  H   UNL     1      30.870  17.961  15.312  0.00  0.00    +0.149 HD
ENDROOT
BRANCH   1   5
ATOM      5  C   UNL     1      32.363  17.209  13.378  0.00  0.00    +0.072 C 
ATOM      6  C   UNL     1      33.301  16.242  12.666  0.00  0.00    +0.022 C 
ATOM      7  C   UNL     1      32.790  17.432  11.923  0.00  0.00    +0.022 C 
BRANCH   5  12
ATOM      8  C   UNL     1      34.361  18.748  16.269  0.00  0.00    +0.052 A 
ATOM      9  C   UNL     1      33.866  20.051  16.314  0.00  0.00    +0.019 A 
ATOM     10  C   UNL     1      32.922  20.467  15.374  0.00  0.00    +0.002 A 
ATOM     11  C   UNL     1      32.453  19.574  14.406  0.00  0.00    +0.005 A 
ATOM     12  C   UNL     1      32.911  18.245  14.358  0.00  0.00    -0.031 A 
ATOM     13  C   UNL     1      33.896  17.866  15.290  0.00  0.00    +0.023 A 
BRANCH   8  15
ATOM     14  N   UNL     1      36.080  17.941  18.035  0.00  0.00    -0.191 NA
ATOM     15  C   UNL     1      35.313  18.298  17.238  0.00  0.00    +0.099 C 
ENDBRANCH   8  15
ENDBRANCH   5  12
ENDBRANCH   1   5
BRANCH   3  16
ATOM     16  C   UNL     1      28.926  17.178  14.975  0.00  0.00    +0.159 C 
BRANCH  16  17
ATOM     17  C   UNL     1      28.240  18.439  15.452  0.00  0.00    +0.058 A 
ATOM     18  C   UNL     1      27.096  18.359  16.251  0.00  0.00    +0.028 A 
ATOM     19  C   UNL     1      26.467  19.535  16.656  0.00  0.00    +0.042 A 
ATOM     20  C   UNL     1      27.001  20.747  16.257  0.00  0.00    +0.141 A 
ATOM     21  F   UNL     1      26.419  21.897  16.623  0.00  0.00    -0.204 F 
ATOM     22  C   UNL     1      28.143  20.752  15.477  0.00  0.00    +0.149 A 
ATOM     23  N   UNL     1      28.780  19.627  15.068  0.00  0.00    -0.255 NA
ENDBRANCH  16  17
ENDBRANCH   3  16
TORSDOF 5
ENDMDL
MODEL 6
REMARK VINA RESULT:      -6.4      4.706      6.526
REMARK  Name = ZINC000435351830
REMARK  5 active torsions:
REMARK  status: ('A' for Active; 'I' for Inactive)
REMARK    1  A    between atoms: C_2  and  C_3
REMARK    2  A    between atoms: C_7  and  C_8
REMARK    3  A    between atoms: C_8  and  C_9
REMARK    4  A    between atoms: N_11  and  C_12
REMARK    5  A    between atoms: C_12  and  C_13
REMARK                            x       y       z     vdW  Elec       q    Type
REMARK                         _______ _______ _______ _____ _____    ______ ____
ROOT
ATOM      1  C   UNL     1      31.093  23.311  17.558  0.00  0.00    +0.224 C 
ATOM      2  O   UNL     1      30.441  23.603  18.555  0.00  0.00    -0.275 OA
ATOM      3  N   UNL     1      30.549  22.972  16.347  0.00  0.00    -0.309 N 
ATOM      4  H   UNL     1      31.153  22.777  15.562  0.00  0.00    +0.149 HD
ENDROOT
BRANCH   1   5
ATOM      5  C   UNL     1      32.598  23.244  17.618  0.00  0.00    +0.072 C 
ATOM      6  C   UNL     1      33.398  23.871  16.482  0.00  0.00    +0.022 C 
ATOM      7  C   UNL     1      33.345  24.571  17.799  0.00  0.00    +0.022 C 
BRANCH   5  12
ATOM      8  C   UNL     1      34.291  19.902  18.445  0.00  0.00    +0.052 A 
ATOM      9  C   UNL     1      34.129  19.820  19.828  0.00  0.00    +0.019 A 
ATOM     10  C   UNL     1      33.523  20.870  20.519  0.00  0.00    +0.002 A 
ATOM     11  C   UNL     1      33.054  21.990  19.825  0.00  0.00    +0.005 A 
ATOM     12  C   UNL     1      33.175  22.085  18.428  0.00  0.00    -0.031 A 
ATOM     13  C   UNL     1      33.830  21.032  17.762  0.00  0.00    +0.023 A 
BRANCH   8  15
ATOM     14  N   UNL     1      35.391  17.953  17.136  0.00  0.00    -0.191 NA
ATOM     15  C   UNL     1      34.891  18.826  17.718  0.00  0.00    +0.099 C 
ENDBRANCH   8  15
ENDBRANCH   5  12
ENDBRANCH   1   5
BRANCH   3  16
ATOM     16  C   UNL     1      29.120  22.840  16.167  0.00  0.00    +0.159 C 
BRANCH  16  17
ATOM     17  C   UNL     1      28.683  21.422  15.874  0.00  0.00    +0.058 A 
ATOM     18  C   UNL     1      27.554  20.890  16.502  0.00  0.00    +0.028 A 
ATOM     19  C   UNL     1      27.186  19.572  16.235  0.00  0.00    +0.042 A 
ATOM     20  C   UNL     1      27.952  18.834  15.350  0.00  0.00    +0.141 A 
ATOM     21  F   UNL     1      27.632  17.562  15.075  0.00  0.00    -0.204 F 
ATOM     22  C   UNL     1      29.050  19.429  14.756  0.00  0.00    +0.149 A 
ATOM     23  N   UNL     1      29.432  20.708  14.992  0.00  0.00    -0.255 NA
ENDBRANCH  16  17
ENDBRANCH   3  16
TORSDOF 5
ENDMDL
MODEL 7
REMARK VINA RESULT:      -6.4      3.780      6.835
REMARK  Name = ZINC000435351830
REMARK  5 active torsions:
REMARK  status: ('A' for Active; 'I' for Inactive)
REMARK    1  A    between atoms: C_2  and  C_3
REMARK    2  A    between atoms: C_7  and  C_8
REMARK    3  A    between atoms: C_8  and  C_9
REMARK    4  A    between atoms: N_11  and  C_12
REMARK    5  A    between atoms: C_12  and  C_13
REMARK                            x       y       z     vdW  Elec       q    Type
REMARK                         _______ _______ _______ _____ _____    ______ ____
ROOT
ATOM      1  C   UNL     1      30.857  17.310  14.431  0.00  0.00    +0.224 C 
ATOM      2  O   UNL     1      31.723  17.687  15.212  0.00  0.00    -0.275 OA
ATOM      3  N   UNL     1      31.108  16.754  13.204  0.00  0.00    -0.309 N 
ATOM      4  H   UNL     1      30.340  16.434  12.631  0.00  0.00    +0.149 HD
ENDROOT
BRANCH   1   5
ATOM      5  C   UNL     1      29.397  17.494  14.756  0.00  0.00    +0.072 C 
ATOM      6  C   UNL     1      28.399  16.472  14.223  0.00  0.00    +0.022 C 
ATOM      7  C   UNL     1      28.752  16.447  15.674  0.00  0.00    +0.022 C 
BRANCH   5  12
ATOM      8  C   UNL     1      29.437  21.328  14.872  0.00  0.00    +0.052 A 
ATOM      9  C   UNL     1      28.322  21.615  15.660  0.00  0.00    +0.019 A 
ATOM     10  C   UNL     1      27.510  20.577  16.115  0.00  0.00    +0.002 A 
ATOM     11  C   UNL     1      27.825  19.250  15.806  0.00  0.00    +0.005 A 
ATOM     12  C   UNL     1      28.961  18.930  15.042  0.00  0.00    -0.031 A 
ATOM     13  C   UNL     1      29.738  20.000  14.558  0.00  0.00    +0.023 A 
BRANCH   8  15
ATOM     14  N   UNL     1      30.978  23.240  14.038  0.00  0.00    -0.191 NA
ATOM     15  C   UNL     1      30.294  22.379  14.414  0.00  0.00    +0.099 C 
ENDBRANCH   8  15
ENDBRANCH   5  12
ENDBRANCH   1   5
BRANCH   3  16
ATOM     16  C   UNL     1      32.452  16.648  12.679  0.00  0.00    +0.159 C 
BRANCH  16  17
ATOM     17  C   UNL     1      32.725  15.325  11.999  0.00  0.00    +0.058 A 
ATOM     18  C   UNL     1      34.035  14.860  11.866  0.00  0.00    +0.028 A 
ATOM     19  C   UNL     1      34.264  13.650  11.212  0.00  0.00    +0.042 A 
ATOM     20  C   UNL     1      33.180  12.945  10.720  0.00  0.00    +0.141 A 
ATOM     21  F   UNL     1      33.362  11.782  10.080  0.00  0.00    -0.204 F 
ATOM     22  C   UNL     1      31.909  13.460  10.898  0.00  0.00    +0.149 A 
ATOM     23  N   UNL     1      31.653  14.631  11.531  0.00  0.00    -0.255 NA
ENDBRANCH  16  17
ENDBRANCH   3  16
TORSDOF 5
ENDMDL
MODEL 8
REMARK VINA RESULT:      -6.4      2.214      3.571
REMARK  Name = ZINC000435351830
REMARK  5 active torsions:
REMARK  status: ('A' for Active; 'I' for Inactive)
REMARK    1  A    between atoms: C_2  and  C_3
REMARK    2  A    between atoms: C_7  and  C_8
REMARK    3  A    between atoms: C_8  and  C_9
REMARK    4  A    between atoms: N_11  and  C_12
REMARK    5  A    between atoms: C_12  and  C_13
REMARK                            x       y       z     vdW  Elec       q    Type
REMARK                         _______ _______ _______ _____ _____    ______ ____
ROOT
ATOM      1  C   UNL     1      30.945  16.768  13.653  0.00  0.00    +0.224 C 
ATOM      2  O   UNL     1      30.398  16.014  12.856  0.00  0.00    -0.275 OA
ATOM      3  N   UNL     1      30.310  17.388  14.697  0.00  0.00    -0.309 N 
ATOM      4  H   UNL     1      30.838  17.968  15.333  0.00  0.00    +0.149 HD
ENDROOT
BRANCH   1   5
ATOM      5  C   UNL     1      32.402  17.124  13.497  0.00  0.00    +0.072 C 
ATOM      6  C   UNL     1      32.983  18.215  14.389  0.00  0.00    +0.022 C 
ATOM      7  C   UNL     1      33.328  16.790  14.672  0.00  0.00    +0.022 C 
BRANCH   5  12
ATOM      8  C   UNL     1      34.027  15.228  10.585  0.00  0.00    +0.052 A 
ATOM      9  C   UNL     1      34.281  16.249   9.668  0.00  0.00    +0.019 A 
ATOM     10  C   UNL     1      33.877  17.553   9.954  0.00  0.00    +0.002 A 
ATOM     11  C   UNL     1      33.245  17.843  11.167  0.00  0.00    +0.005 A 
ATOM     12  C   UNL     1      33.006  16.840  12.123  0.00  0.00    -0.031 A 
ATOM     13  C   UNL     1      33.383  15.526  11.789  0.00  0.00    +0.023 A 
BRANCH   8  15
ATOM     14  N   UNL     1      34.804  12.799  10.115  0.00  0.00    -0.191 NA
ATOM     15  C   UNL     1      34.453  13.888  10.318  0.00  0.00    +0.099 C 
ENDBRANCH   8  15
ENDBRANCH   5  12
ENDBRANCH   1   5
BRANCH   3  16
ATOM     16  C   UNL     1      28.882  17.270  14.893  0.00  0.00    +0.159 C 
BRANCH  16  17
ATOM     17  C   UNL     1      28.241  18.545  15.394  0.00  0.00    +0.058 A 
ATOM     18  C   UNL     1      27.105  18.490  16.206  0.00  0.00    +0.028 A 
ATOM     19  C   UNL     1      26.517  19.679  16.635  0.00  0.00    +0.042 A 
ATOM     20  C   UNL     1      27.084  20.880  16.244  0.00  0.00    +0.141 A 
ATOM     21  F   UNL     1      26.542  22.042  16.631  0.00  0.00    -0.204 F 
ATOM     22  C   UNL     1      28.216  20.859  15.449  0.00  0.00    +0.149 A 
ATOM     23  N   UNL     1      28.813  19.721  15.019  0.00  0.00    -0.255 NA
ENDBRANCH  16  17
ENDBRANCH   3  16
TORSDOF 5
ENDMDL
MODEL 9
REMARK VINA RESULT:      -6.4      5.407      7.061
REMARK  Name = ZINC000435351830
REMARK  5 active torsions:
REMARK  status: ('A' for Active; 'I' for Inactive)
REMARK    1  A    between atoms: C_2  and  C_3
REMARK    2  A    between atoms: C_7  and  C_8
REMARK    3  A    between atoms: C_8  and  C_9
REMARK    4  A    between atoms: N_11  and  C_12
REMARK    5  A    between atoms: C_12  and  C_13
REMARK                            x       y       z     vdW  Elec       q    Type
REMARK                         _______ _______ _______ _____ _____    ______ ____
ROOT
ATOM      1  C   UNL     1      30.856  23.389  17.487  0.00  0.00    +0.224 C 
ATOM      2  O   UNL     1      30.098  23.782  18.367  0.00  0.00    -0.275 OA
ATOM      3  N   UNL     1      30.447  22.892  16.277  0.00  0.00    -0.309 N 
ATOM      4  H   UNL     1      31.134  22.621  15.587  0.00  0.00    +0.149 HD
ENDROOT
BRANCH   1   5
ATOM      5  C   UNL     1      32.347  23.371  17.708  0.00  0.00    +0.072 C 
ATOM      6  C   UNL     1      33.254  23.872  16.589  0.00  0.00    +0.022 C 
ATOM      7  C   UNL     1      33.052  24.730  17.794  0.00  0.00    +0.022 C 
BRANCH   5  12
ATOM      8  C   UNL     1      33.014  21.604  21.047  0.00  0.00    +0.052 A 
ATOM      9  C   UNL     1      33.871  20.569  20.671  0.00  0.00    +0.019 A 
ATOM     10  C   UNL     1      34.198  20.394  19.327  0.00  0.00    +0.002 A 
ATOM     11  C   UNL     1      33.691  21.268  18.360  0.00  0.00    +0.005 A 
ATOM     12  C   UNL     1      32.851  22.338  18.714  0.00  0.00    -0.031 A 
ATOM     13  C   UNL     1      32.502  22.465  20.072  0.00  0.00    +0.023 A 
BRANCH   8  15
ATOM     14  N   UNL     1      32.409  21.968  23.542  0.00  0.00    -0.191 NA
ATOM     15  C   UNL     1      32.684  21.812  22.424  0.00  0.00    +0.099 C 
ENDBRANCH   8  15
ENDBRANCH   5  12
ENDBRANCH   1   5
BRANCH   3  16
ATOM     16  C   UNL     1      29.047  22.701  15.969  0.00  0.00    +0.159 C 
BRANCH  16  17
ATOM     17  C   UNL     1      28.680  21.253  15.735  0.00  0.00    +0.058 A 
ATOM     18  C   UNL     1      27.536  20.712  16.328  0.00  0.00    +0.028 A 
ATOM     19  C   UNL     1      27.232  19.368  16.118  0.00  0.00    +0.042 A 
ATOM     20  C   UNL     1      28.074  18.612  15.321  0.00  0.00    +0.141 A 
ATOM     21  F   UNL     1      27.817  17.316  15.104  0.00  0.00    -0.204 F 
ATOM     22  C   UNL     1      29.182  19.216  14.756  0.00  0.00    +0.149 A 
ATOM     23  N   UNL     1      29.504  20.520  14.938  0.00  0.00    -0.255 NA
ENDBRANCH  16  17
ENDBRANCH   3  16
TORSDOF 5
ENDMDL
