MODEL 1
REMARK VINA RESULT:      -6.8      0.000      0.000
REMARK  Name = ZINC000583127796
REMARK  2 active torsions:
REMARK  status: ('A' for Active; 'I' for Inactive)
REMARK    1  A    between atoms: C_2  and  C_4
REMARK    2  A    between atoms: C_7  and  C_8
REMARK                            x       y       z     vdW  Elec       q    Type
REMARK                         _______ _______ _______ _____ _____    ______ ____
ROOT
ATOM      1  C   UNL     1      30.396  16.047  13.705  0.00  0.00    +0.247 C 
ATOM      2  O   UNL     1      29.982  15.233  12.878  0.00  0.00    -0.270 OA
ATOM      3  N   UNL     1      31.751  16.157  14.055  0.00  0.00    -0.297 N 
ATOM      4  C   UNL     1      32.331  17.087  15.024  0.00  0.00    +0.108 C 
ATOM      5  C   UNL     1      33.457  17.917  14.436  0.00  0.00    +0.020 C 
ATOM      6  C   UNL     1      34.480  17.051  13.723  0.00  0.00    +0.011 C 
ATOM      7  C   UNL     1      33.846  16.087  12.691  0.00  0.00    -0.004 C 
ATOM      8  C   UNL     1      34.984  15.188  12.162  0.00  0.00    +0.020 C 
ATOM      9  C   UNL     1      34.629  14.659  10.790  0.00  0.00    +0.070 C 
ATOM     10  S   UNL     1      33.853  16.059   9.966  0.00  0.00    -0.160 S 
ATOM     11  C   UNL     1      33.261  16.855  11.485  0.00  0.00    +0.077 C 
ATOM     12  C   UNL     1      32.727  15.271  13.392  0.00  0.00    +0.115 C 
ENDROOT
BRANCH   1  16
ATOM     13  C   UNL     1      27.822  18.900  15.593  0.00  0.00    +0.037 A 
ATOM     14  C   UNL     1      27.638  17.539  15.852  0.00  0.00    +0.014 A 
ATOM     15  C   UNL     1      28.390  16.592  15.154  0.00  0.00    +0.014 A 
ATOM     16  C   UNL     1      29.401  17.002  14.283  0.00  0.00    +0.037 A 
ATOM     17  C   UNL     1      29.517  18.360  13.952  0.00  0.00    +0.014 A 
ATOM     18  C   UNL     1      28.717  19.307  14.600  0.00  0.00    +0.014 A 
BRANCH  13  20
ATOM     19  N   UNL     1      26.143  19.486  17.251  0.00  0.00    -0.325 N 
ATOM     20  C   UNL     1      27.077  19.935  16.360  0.00  0.00    +0.242 C 
ATOM     21  O   UNL     1      27.324  21.123  16.239  0.00  0.00    -0.270 OA
ATOM     22  H   UNL     1      25.732  20.189  17.854  0.00  0.00    +0.145 HD
ATOM     23  H   UNL     1      26.120  18.529  17.575  0.00  0.00    +0.145 HD
ENDBRANCH  13  20
ENDBRANCH   1  16
TORSDOF 2
ENDMDL
MODEL 2
REMARK VINA RESULT:      -6.3      5.917     10.869
REMARK  Name = ZINC000583127796
REMARK  2 active torsions:
REMARK  status: ('A' for Active; 'I' for Inactive)
REMARK    1  A    between atoms: C_2  and  C_4
REMARK    2  A    between atoms: C_7  and  C_8
REMARK                            x       y       z     vdW  Elec       q    Type
REMARK                         _______ _______ _______ _____ _____    ______ ____
ROOT
ATOM      1  C   UNL     1      26.162  22.013  18.749  0.00  0.00    +0.247 C 
ATOM      2  O   UNL     1      26.692  21.961  19.861  0.00  0.00    -0.270 OA
ATOM      3  N   UNL     1      24.908  22.604  18.528  0.00  0.00    -0.297 N 
ATOM      4  C   UNL     1      24.203  22.708  17.250  0.00  0.00    +0.108 C 
ATOM      5  C   UNL     1      23.809  24.134  16.914  0.00  0.00    +0.020 C 
ATOM      6  C   UNL     1      23.091  24.805  18.071  0.00  0.00    +0.011 C 
ATOM      7  C   UNL     1      23.863  24.697  19.409  0.00  0.00    -0.004 C 
ATOM      8  C   UNL     1      22.949  25.295  20.501  0.00  0.00    +0.020 C 
ATOM      9  C   UNL     1      23.784  25.779  21.666  0.00  0.00    +0.070 C 
ATOM     10  S   UNL     1      25.222  26.536  20.893  0.00  0.00    -0.160 S 
ATOM     11  C   UNL     1      25.162  25.533  19.381  0.00  0.00    +0.077 C 
ATOM     12  C   UNL     1      24.198  23.205  19.673  0.00  0.00    +0.115 C 
ENDROOT
BRANCH   1  16
ATOM     13  C   UNL     1      28.529  20.233  15.658  0.00  0.00    +0.037 A 
ATOM     14  C   UNL     1      28.968  21.416  16.257  0.00  0.00    +0.014 A 
ATOM     15  C   UNL     1      28.151  22.071  17.180  0.00  0.00    +0.014 A 
ATOM     16  C   UNL     1      26.950  21.490  17.590  0.00  0.00    +0.037 A 
ATOM     17  C   UNL     1      26.468  20.358  16.919  0.00  0.00    +0.014 A 
ATOM     18  C   UNL     1      27.254  19.737  15.943  0.00  0.00    +0.014 A 
BRANCH  13  20
ATOM     19  N   UNL     1      28.867  19.189  13.488  0.00  0.00    -0.325 N 
ATOM     20  C   UNL     1      29.399  19.481  14.713  0.00  0.00    +0.242 C 
ATOM     21  O   UNL     1      30.548  19.185  14.997  0.00  0.00    -0.270 OA
ATOM     22  H   UNL     1      29.506  18.788  12.811  0.00  0.00    +0.145 HD
ATOM     23  H   UNL     1      28.048  19.659  13.128  0.00  0.00    +0.145 HD
ENDBRANCH  13  20
ENDBRANCH   1  16
TORSDOF 2
ENDMDL
MODEL 3
REMARK VINA RESULT:      -6.3      3.533      4.672
REMARK  Name = ZINC000583127796
REMARK  2 active torsions:
REMARK  status: ('A' for Active; 'I' for Inactive)
REMARK    1  A    between atoms: C_2  and  C_4
REMARK    2  A    between atoms: C_7  and  C_8
REMARK                            x       y       z     vdW  Elec       q    Type
REMARK                         _______ _______ _______ _____ _____    ______ ____
ROOT
ATOM      1  C   UNL     1      31.467  19.987  14.986  0.00  0.00    +0.247 C 
ATOM      2  O   UNL     1      32.643  20.003  14.616  0.00  0.00    -0.270 OA
ATOM      3  N   UNL     1      30.518  19.093  14.468  0.00  0.00    -0.297 N 
ATOM      4  C   UNL     1      29.105  19.004  14.842  0.00  0.00    +0.108 C 
ATOM      5  C   UNL     1      28.702  17.605  15.271  0.00  0.00    +0.020 C 
ATOM      6  C   UNL     1      29.140  16.560  14.261  0.00  0.00    +0.011 C 
ATOM      7  C   UNL     1      30.640  16.663  13.892  0.00  0.00    -0.004 C 
ATOM      8  C   UNL     1      30.895  15.639  12.766  0.00  0.00    +0.020 C 
ATOM      9  C   UNL     1      32.353  15.236  12.753  0.00  0.00    +0.070 C 
ATOM     10  S   UNL     1      32.786  15.093  14.493  0.00  0.00    -0.160 S 
ATOM     11  C   UNL     1      31.543  16.276  15.085  0.00  0.00    +0.077 C 
ATOM     12  C   UNL     1      30.946  18.118  13.447  0.00  0.00    +0.115 C 
ENDROOT
BRANCH   1  16
ATOM     13  C   UNL     1      30.189  22.352  18.318  0.00  0.00    +0.037 A 
ATOM     14  C   UNL     1      29.604  22.563  17.067  0.00  0.00    +0.014 A 
ATOM     15  C   UNL     1      30.093  21.886  15.949  0.00  0.00    +0.014 A 
ATOM     16  C   UNL     1      31.085  20.915  16.095  0.00  0.00    +0.037 A 
ATOM     17  C   UNL     1      31.735  20.775  17.329  0.00  0.00    +0.014 A 
ATOM     18  C   UNL     1      31.294  21.504  18.438  0.00  0.00    +0.014 A 
BRANCH  13  20
ATOM     19  N   UNL     1      28.474  23.691  19.404  0.00  0.00    -0.325 N 
ATOM     20  C   UNL     1      29.655  23.015  19.539  0.00  0.00    +0.242 C 
ATOM     21  O   UNL     1      30.215  22.918  20.618  0.00  0.00    -0.270 OA
ATOM     22  H   UNL     1      28.059  24.033  20.262  0.00  0.00    +0.145 HD
ATOM     23  H   UNL     1      27.857  23.550  18.615  0.00  0.00    +0.145 HD
ENDBRANCH  13  20
ENDBRANCH   1  16
TORSDOF 2
ENDMDL
MODEL 4
REMARK VINA RESULT:      -6.2     20.165     22.351
REMARK  Name = ZINC000583127796
REMARK  2 active torsions:
REMARK  status: ('A' for Active; 'I' for Inactive)
REMARK    1  A    between atoms: C_2  and  C_4
REMARK    2  A    between atoms: C_7  and  C_8
REMARK                            x       y       z     vdW  Elec       q    Type
REMARK                         _______ _______ _______ _____ _____    ______ ____
ROOT
ATOM      1  C   UNL     1      11.396  18.802   5.336  0.00  0.00    +0.247 C 
ATOM      2  O   UNL     1      12.401  19.517   5.331  0.00  0.00    -0.270 OA
ATOM      3  N   UNL     1      10.347  18.956   4.416  0.00  0.00    -0.297 N 
ATOM      4  C   UNL     1       9.120  18.161   4.348  0.00  0.00    +0.108 C 
ATOM      5  C   UNL     1       8.891  17.558   2.975  0.00  0.00    +0.020 C 
ATOM      6  C   UNL     1       9.014  18.598   1.877  0.00  0.00    +0.011 C 
ATOM      7  C   UNL     1      10.326  19.415   1.959  0.00  0.00    -0.004 C 
ATOM      8  C   UNL     1      10.238  20.511   0.875  0.00  0.00    +0.020 C 
ATOM      9  C   UNL     1      11.628  20.951   0.471  0.00  0.00    +0.070 C 
ATOM     10  S   UNL     1      12.577  19.424   0.422  0.00  0.00    -0.160 S 
ATOM     11  C   UNL     1      11.558  18.540   1.636  0.00  0.00    +0.077 C 
ATOM     12  C   UNL     1      10.457  20.008   3.387  0.00  0.00    +0.115 C 
ENDROOT
BRANCH   1  16
ATOM     13  C   UNL     1      11.571  15.761   8.344  0.00  0.00    +0.037 A 
ATOM     14  C   UNL     1      12.049  15.480   7.062  0.00  0.00    +0.014 A 
ATOM     15  C   UNL     1      11.890  16.419   6.041  0.00  0.00    +0.014 A 
ATOM     16  C   UNL     1      11.359  17.679   6.323  0.00  0.00    +0.037 A 
ATOM     17  C   UNL     1      10.793  17.922   7.582  0.00  0.00    +0.014 A 
ATOM     18  C   UNL     1      10.889  16.956   8.589  0.00  0.00    +0.014 A 
BRANCH  13  20
ATOM     19  N   UNL     1      13.056  14.652   9.918  0.00  0.00    -0.325 N 
ATOM     20  C   UNL     1      11.775  14.806   9.467  0.00  0.00    +0.242 C 
ATOM     21  O   UNL     1      10.839  14.228   9.995  0.00  0.00    -0.270 OA
ATOM     22  H   UNL     1      13.167  14.097  10.758  0.00  0.00    +0.145 HD
ATOM     23  H   UNL     1      13.789  15.314   9.701  0.00  0.00    +0.145 HD
ENDBRANCH  13  20
ENDBRANCH   1  16
TORSDOF 2
ENDMDL
MODEL 5
REMARK VINA RESULT:      -6.0      2.444      3.834
REMARK  Name = ZINC000583127796
REMARK  2 active torsions:
REMARK  status: ('A' for Active; 'I' for Inactive)
REMARK    1  A    between atoms: C_2  and  C_4
REMARK    2  A    between atoms: C_7  and  C_8
REMARK                            x       y       z     vdW  Elec       q    Type
REMARK                         _______ _______ _______ _____ _____    ______ ____
ROOT
ATOM      1  C   UNL     1      30.411  19.963  14.933  0.00  0.00    +0.247 C 
ATOM      2  O   UNL     1      31.461  20.601  14.831  0.00  0.00    -0.270 OA
ATOM      3  N   UNL     1      30.137  18.820  14.166  0.00  0.00    -0.297 N 
ATOM      4  C   UNL     1      28.922  18.004  14.216  0.00  0.00    +0.108 C 
ATOM      5  C   UNL     1      29.214  16.536  14.461  0.00  0.00    +0.020 C 
ATOM      6  C   UNL     1      30.273  16.008  13.511  0.00  0.00    +0.011 C 
ATOM      7  C   UNL     1      31.555  16.876  13.487  0.00  0.00    -0.004 C 
ATOM      8  C   UNL     1      32.466  16.296  12.384  0.00  0.00    +0.020 C 
ATOM      9  C   UNL     1      33.909  16.650  12.668  0.00  0.00    +0.070 C 
ATOM     10  S   UNL     1      34.070  16.454  14.449  0.00  0.00    -0.160 S 
ATOM     11  C   UNL     1      32.325  16.783  14.824  0.00  0.00    +0.077 C 
ATOM     12  C   UNL     1      31.155  18.349  13.208  0.00  0.00    +0.115 C 
ENDROOT
BRANCH   1  16
ATOM     13  C   UNL     1      27.501  21.464  17.691  0.00  0.00    +0.037 A 
ATOM     14  C   UNL     1      28.848  21.789  17.876  0.00  0.00    +0.014 A 
ATOM     15  C   UNL     1      29.820  21.211  17.057  0.00  0.00    +0.014 A 
ATOM     16  C   UNL     1      29.443  20.401  15.984  0.00  0.00    +0.037 A 
ATOM     17  C   UNL     1      28.105  20.000  15.861  0.00  0.00    +0.014 A 
ATOM     18  C   UNL     1      27.136  20.524  16.724  0.00  0.00    +0.014 A 
BRANCH  13  20
ATOM     19  N   UNL     1      26.850  22.873  19.563  0.00  0.00    -0.325 N 
ATOM     20  C   UNL     1      26.437  22.106  18.509  0.00  0.00    +0.242 C 
ATOM     21  O   UNL     1      25.256  21.997  18.224  0.00  0.00    -0.270 OA
ATOM     22  H   UNL     1      26.128  23.401  20.036  0.00  0.00    +0.145 HD
ATOM     23  H   UNL     1      27.800  23.208  19.649  0.00  0.00    +0.145 HD
ENDBRANCH  13  20
ENDBRANCH   1  16
TORSDOF 2
ENDMDL
MODEL 6
REMARK VINA RESULT:      -6.0      4.415      5.345
REMARK  Name = ZINC000583127796
REMARK  2 active torsions:
REMARK  status: ('A' for Active; 'I' for Inactive)
REMARK    1  A    between atoms: C_2  and  C_4
REMARK    2  A    between atoms: C_7  and  C_8
REMARK                            x       y       z     vdW  Elec       q    Type
REMARK                         _______ _______ _______ _____ _____    ______ ____
ROOT
ATOM      1  C   UNL     1      31.795  20.903  13.731  0.00  0.00    +0.247 C 
ATOM      2  O   UNL     1      32.672  20.037  13.707  0.00  0.00    -0.270 OA
ATOM      3  N   UNL     1      31.969  22.179  13.173  0.00  0.00    -0.297 N 
ATOM      4  C   UNL     1      30.990  23.268  13.157  0.00  0.00    +0.108 C 
ATOM      5  C   UNL     1      30.730  23.798  11.760  0.00  0.00    +0.020 C 
ATOM      6  C   UNL     1      32.022  24.119  11.031  0.00  0.00    +0.011 C 
ATOM      7  C   UNL     1      33.035  22.949  11.046  0.00  0.00    -0.004 C 
ATOM      8  C   UNL     1      34.334  23.474  10.397  0.00  0.00    +0.020 C 
ATOM      9  C   UNL     1      35.132  22.320   9.832  0.00  0.00    +0.070 C 
ATOM     10  S   UNL     1      33.890  21.242   9.102  0.00  0.00    -0.160 S 
ATOM     11  C   UNL     1      32.537  21.760  10.195  0.00  0.00    +0.077 C 
ATOM     12  C   UNL     1      33.251  22.495  12.515  0.00  0.00    +0.115 C 
ENDROOT
BRANCH   1  16
ATOM     13  C   UNL     1      28.185  19.540  15.585  0.00  0.00    +0.037 A 
ATOM     14  C   UNL     1      28.398  19.274  14.230  0.00  0.00    +0.014 A 
ATOM     15  C   UNL     1      29.512  19.814  13.584  0.00  0.00    +0.014 A 
ATOM     16  C   UNL     1      30.471  20.522  14.311  0.00  0.00    +0.037 A 
ATOM     17  C   UNL     1      30.207  20.868  15.644  0.00  0.00    +0.014 A 
ATOM     18  C   UNL     1      29.056  20.386  16.276  0.00  0.00    +0.014 A 
BRANCH  13  20
ATOM     19  N   UNL     1      26.436  19.711  17.265  0.00  0.00    -0.325 N 
ATOM     20  C   UNL     1      27.039  18.934  16.315  0.00  0.00    +0.242 C 
ATOM     21  O   UNL     1      26.623  17.820  16.045  0.00  0.00    -0.270 OA
ATOM     22  H   UNL     1      25.585  19.338  17.668  0.00  0.00    +0.145 HD
ATOM     23  H   UNL     1      26.568  20.712  17.309  0.00  0.00    +0.145 HD
ENDBRANCH  13  20
ENDBRANCH   1  16
TORSDOF 2
ENDMDL
MODEL 7
REMARK VINA RESULT:      -6.0      5.203      6.222
REMARK  Name = ZINC000583127796
REMARK  2 active torsions:
REMARK  status: ('A' for Active; 'I' for Inactive)
REMARK    1  A    between atoms: C_2  and  C_4
REMARK    2  A    between atoms: C_7  and  C_8
REMARK                            x       y       z     vdW  Elec       q    Type
REMARK                         _______ _______ _______ _____ _____    ______ ____
ROOT
ATOM      1  C   UNL     1      32.384  22.009  13.432  0.00  0.00    +0.247 C 
ATOM      2  O   UNL     1      33.349  21.244  13.386  0.00  0.00    -0.270 OA
ATOM      3  N   UNL     1      32.310  23.190  12.677  0.00  0.00    -0.297 N 
ATOM      4  C   UNL     1      31.211  24.156  12.669  0.00  0.00    +0.108 C 
ATOM      5  C   UNL     1      30.680  24.425  11.273  0.00  0.00    +0.020 C 
ATOM      6  C   UNL     1      31.798  24.755  10.301  0.00  0.00    +0.011 C 
ATOM      7  C   UNL     1      32.942  23.711  10.314  0.00  0.00    -0.004 C 
ATOM      8  C   UNL     1      34.052  24.255   9.390  0.00  0.00    +0.020 C 
ATOM      9  C   UNL     1      34.896  23.112   8.870  0.00  0.00    +0.070 C 
ATOM     10  S   UNL     1      33.706  21.809   8.518  0.00  0.00    -0.160 S 
ATOM     11  C   UNL     1      32.476  22.356   9.736  0.00  0.00    +0.077 C 
ATOM     12  C   UNL     1      33.430  23.524  11.775  0.00  0.00    +0.115 C 
ENDROOT
BRANCH   1  16
ATOM     13  C   UNL     1      28.842  21.065  15.644  0.00  0.00    +0.037 A 
ATOM     14  C   UNL     1      29.855  21.803  16.261  0.00  0.00    +0.014 A 
ATOM     15  C   UNL     1      31.063  22.015  15.594  0.00  0.00    +0.014 A 
ATOM     16  C   UNL     1      31.220  21.593  14.273  0.00  0.00    +0.037 A 
ATOM     17  C   UNL     1      30.243  20.771  13.693  0.00  0.00    +0.014 A 
ATOM     18  C   UNL     1      29.059  20.498  14.385  0.00  0.00    +0.014 A 
BRANCH  13  20
ATOM     19  N   UNL     1      27.002  21.945  16.967  0.00  0.00    -0.325 N 
ATOM     20  C   UNL     1      27.523  20.869  16.304  0.00  0.00    +0.242 C 
ATOM     21  O   UNL     1      26.911  19.817  16.214  0.00  0.00    -0.270 OA
ATOM     22  H   UNL     1      26.053  21.839  17.306  0.00  0.00    +0.145 HD
ATOM     23  H   UNL     1      27.338  22.887  16.819  0.00  0.00    +0.145 HD
ENDBRANCH  13  20
ENDBRANCH   1  16
TORSDOF 2
ENDMDL
MODEL 8
REMARK VINA RESULT:      -6.0      7.221      8.370
REMARK  Name = ZINC000583127796
REMARK  2 active torsions:
REMARK  status: ('A' for Active; 'I' for Inactive)
REMARK    1  A    between atoms: C_2  and  C_4
REMARK    2  A    between atoms: C_7  and  C_8
REMARK                            x       y       z     vdW  Elec       q    Type
REMARK                         _______ _______ _______ _____ _____    ______ ____
ROOT
ATOM      1  C   UNL     1      33.176  24.233   9.143  0.00  0.00    +0.247 C 
ATOM      2  O   UNL     1      33.617  25.381   9.049  0.00  0.00    -0.270 OA
ATOM      3  N   UNL     1      33.342  23.268   8.137  0.00  0.00    -0.297 N 
ATOM      4  C   UNL     1      32.852  21.889   8.160  0.00  0.00    +0.108 C 
ATOM      5  C   UNL     1      33.953  20.875   7.911  0.00  0.00    +0.020 C 
ATOM      6  C   UNL     1      34.767  21.220   6.678  0.00  0.00    +0.011 C 
ATOM      7  C   UNL     1      35.288  22.678   6.683  0.00  0.00    -0.004 C 
ATOM      8  C   UNL     1      35.967  22.915   5.317  0.00  0.00    +0.020 C 
ATOM      9  C   UNL     1      36.988  24.025   5.432  0.00  0.00    +0.070 C 
ATOM     10  S   UNL     1      37.779  23.732   7.022  0.00  0.00    -0.160 S 
ATOM     11  C   UNL     1      36.358  22.892   7.777  0.00  0.00    +0.077 C 
ATOM     12  C   UNL     1      34.090  23.636   6.920  0.00  0.00    +0.115 C 
ENDROOT
BRANCH   1  16
ATOM     13  C   UNL     1      31.174  22.835  12.659  0.00  0.00    +0.037 A 
ATOM     14  C   UNL     1      30.605  23.873  11.918  0.00  0.00    +0.014 A 
ATOM     15  C   UNL     1      31.304  24.420  10.840  0.00  0.00    +0.014 A 
ATOM     16  C   UNL     1      32.514  23.858  10.430  0.00  0.00    +0.037 A 
ATOM     17  C   UNL     1      33.127  22.884  11.231  0.00  0.00    +0.014 A 
ATOM     18  C   UNL     1      32.461  22.382  12.353  0.00  0.00    +0.014 A 
BRANCH  13  20
ATOM     19  N   UNL     1      30.748  22.609  15.043  0.00  0.00    -0.325 N 
ATOM     20  C   UNL     1      30.433  22.193  13.779  0.00  0.00    +0.242 C 
ATOM     21  O   UNL     1      29.550  21.376  13.578  0.00  0.00    -0.270 OA
ATOM     22  H   UNL     1      30.155  22.259  15.785  0.00  0.00    +0.145 HD
ATOM     23  H   UNL     1      31.253  23.467  15.220  0.00  0.00    +0.145 HD
ENDBRANCH  13  20
ENDBRANCH   1  16
TORSDOF 2
ENDMDL
MODEL 9
REMARK VINA RESULT:      -5.9      6.192      8.450
REMARK  Name = ZINC000583127796
REMARK  2 active torsions:
REMARK  status: ('A' for Active; 'I' for Inactive)
REMARK    1  A    between atoms: C_2  and  C_4
REMARK    2  A    between atoms: C_7  and  C_8
REMARK                            x       y       z     vdW  Elec       q    Type
REMARK                         _______ _______ _______ _____ _____    ______ ____
ROOT
ATOM      1  C   UNL     1      31.062  22.991  12.273  0.00  0.00    +0.247 C 
ATOM      2  O   UNL     1      29.868  23.223  12.075  0.00  0.00    -0.270 OA
ATOM      3  N   UNL     1      31.554  22.517  13.499  0.00  0.00    -0.297 N 
ATOM      4  C   UNL     1      32.950  22.218  13.825  0.00  0.00    +0.108 C 
ATOM      5  C   UNL     1      33.137  20.809  14.356  0.00  0.00    +0.020 C 
ATOM      6  C   UNL     1      32.161  20.496  15.475  0.00  0.00    +0.011 C 
ATOM      7  C   UNL     1      30.690  20.804  15.103  0.00  0.00    -0.004 C 
ATOM      8  C   UNL     1      29.849  20.571  16.376  0.00  0.00    +0.020 C 
ATOM      9  C   UNL     1      28.417  20.260  16.000  0.00  0.00    +0.070 C 
ATOM     10  S   UNL     1      28.562  19.190  14.561  0.00  0.00    -0.160 S 
ATOM     11  C   UNL     1      30.168  19.837  14.017  0.00  0.00    +0.077 C 
ATOM     12  C   UNL     1      30.599  22.268  14.596  0.00  0.00    +0.115 C 
ENDROOT
BRANCH   1  16
ATOM     13  C   UNL     1      33.424  23.557   8.747  0.00  0.00    +0.037 A 
ATOM     14  C   UNL     1      33.164  22.258   9.193  0.00  0.00    +0.014 A 
ATOM     15  C   UNL     1      32.498  22.060  10.404  0.00  0.00    +0.014 A 
ATOM     16  C   UNL     1      31.992  23.152  11.113  0.00  0.00    +0.037 A 
ATOM     17  C   UNL     1      32.339  24.451  10.717  0.00  0.00    +0.014 A 
ATOM     18  C   UNL     1      33.066  24.652   9.539  0.00  0.00    +0.014 A 
BRANCH  13  20
ATOM     19  N   UNL     1      34.842  24.933   7.330  0.00  0.00    -0.325 N 
ATOM     20  C   UNL     1      34.081  23.802   7.435  0.00  0.00    +0.242 C 
ATOM     21  O   UNL     1      33.990  23.007   6.514  0.00  0.00    -0.270 OA
ATOM     22  H   UNL     1      35.381  25.027   6.478  0.00  0.00    +0.145 HD
ATOM     23  H   UNL     1      35.163  25.446   8.140  0.00  0.00    +0.145 HD
ENDBRANCH  13  20
ENDBRANCH   1  16
TORSDOF 2
ENDMDL
