MODEL 1
REMARK VINA RESULT:      -6.5      0.000      0.000
REMARK  Name = ZINC000870248439
REMARK  2 active torsions:
REMARK  status: ('A' for Active; 'I' for Inactive)
REMARK    1  A    between atoms: C_2  and  C_4
REMARK    2  A    between atoms: C_7  and  C_8
REMARK                            x       y       z     vdW  Elec       q    Type
REMARK                         _______ _______ _______ _____ _____    ______ ____
ROOT
ATOM      1  C   UNL     1      32.225  21.779  13.817  0.00  0.00    +0.247 C 
ATOM      2  O   UNL     1      32.824  20.726  14.038  0.00  0.00    -0.270 OA
ATOM      3  N   UNL     1      32.614  22.688  12.824  0.00  0.00    -0.297 N 
ATOM      4  C   UNL     1      31.939  23.942  12.503  0.00  0.00    +0.108 C 
ATOM      5  C   UNL     1      31.783  24.182  11.015  0.00  0.00    +0.026 C 
ATOM      6  C   UNL     1      33.110  24.035  10.249  0.00  0.00    -0.025 C 
ATOM      7  C   UNL     1      32.779  24.075   8.740  0.00  0.00    +0.017 C 
ATOM      8  C   UNL     1      33.994  24.000   7.824  0.00  0.00    +0.069 C 
ATOM      9  S   UNL     1      35.158  25.366   8.098  0.00  0.00    -0.161 S 
ATOM     10  C   UNL     1      35.373  25.222   9.892  0.00  0.00    +0.069 C 
ATOM     11  C   UNL     1      34.034  25.226  10.613  0.00  0.00    +0.017 C 
ATOM     12  C   UNL     1      33.722  22.659  10.634  0.00  0.00    +0.026 C 
ATOM     13  C   UNL     1      33.886  22.475  12.142  0.00  0.00    +0.108 C 
ENDROOT
BRANCH   1  17
ATOM     14  C   UNL     1      28.826  22.348  16.339  0.00  0.00    +0.037 A 
ATOM     15  C   UNL     1      28.735  21.476  15.253  0.00  0.00    +0.014 A 
ATOM     16  C   UNL     1      29.798  21.377  14.364  0.00  0.00    +0.014 A 
ATOM     17  C   UNL     1      30.998  22.055  14.609  0.00  0.00    +0.037 A 
ATOM     18  C   UNL     1      31.067  22.979  15.658  0.00  0.00    +0.014 A 
ATOM     19  C   UNL     1      29.974  23.132  16.516  0.00  0.00    +0.014 A 
BRANCH  14  21
ATOM     20  N   UNL     1      27.993  22.976  18.532  0.00  0.00    -0.325 N 
ATOM     21  C   UNL     1      27.702  22.459  17.297  0.00  0.00    +0.242 C 
ATOM     22  O   UNL     1      26.563  22.133  16.988  0.00  0.00    -0.270 OA
ATOM     23  H   UNL     1      27.193  23.133  19.139  0.00  0.00    +0.145 HD
ATOM     24  H   UNL     1      28.834  23.497  18.719  0.00  0.00    +0.145 HD
ENDBRANCH  14  21
ENDBRANCH   1  17
TORSDOF 2
ENDMDL
MODEL 2
REMARK VINA RESULT:      -6.3      6.107      8.631
REMARK  Name = ZINC000870248439
REMARK  2 active torsions:
REMARK  status: ('A' for Active; 'I' for Inactive)
REMARK    1  A    between atoms: C_2  and  C_4
REMARK    2  A    between atoms: C_7  and  C_8
REMARK                            x       y       z     vdW  Elec       q    Type
REMARK                         _______ _______ _______ _____ _____    ______ ____
ROOT
ATOM      1  C   UNL     1      32.330  23.832  18.174  0.00  0.00    +0.247 C 
ATOM      2  O   UNL     1      32.823  24.759  17.531  0.00  0.00    -0.270 OA
ATOM      3  N   UNL     1      33.010  23.166  19.203  0.00  0.00    -0.297 N 
ATOM      4  C   UNL     1      32.476  22.073  20.011  0.00  0.00    +0.108 C 
ATOM      5  C   UNL     1      32.779  22.210  21.489  0.00  0.00    +0.026 C 
ATOM      6  C   UNL     1      34.273  22.451  21.768  0.00  0.00    -0.025 C 
ATOM      7  C   UNL     1      34.413  22.798  23.268  0.00  0.00    +0.017 C 
ATOM      8  C   UNL     1      35.846  23.012  23.736  0.00  0.00    +0.069 C 
ATOM      9  S   UNL     1      36.888  21.547  23.482  0.00  0.00    -0.161 S 
ATOM     10  C   UNL     1      36.551  21.240  21.728  0.00  0.00    +0.069 C 
ATOM     11  C   UNL     1      35.057  21.149  21.458  0.00  0.00    +0.017 C 
ATOM     12  C   UNL     1      34.726  23.650  20.889  0.00  0.00    +0.026 C 
ATOM     13  C   UNL     1      34.425  23.453  19.404  0.00  0.00    +0.108 C 
ENDROOT
BRANCH   1  17
ATOM     14  C   UNL     1      28.377  22.412  17.405  0.00  0.00    +0.037 A 
ATOM     15  C   UNL     1      29.266  22.570  16.342  0.00  0.00    +0.014 A 
ATOM     16  C   UNL     1      30.512  23.141  16.571  0.00  0.00    +0.014 A 
ATOM     17  C   UNL     1      30.925  23.453  17.873  0.00  0.00    +0.037 A 
ATOM     18  C   UNL     1      30.011  23.358  18.928  0.00  0.00    +0.014 A 
ATOM     19  C   UNL     1      28.731  22.847  18.689  0.00  0.00    +0.014 A 
BRANCH  14  21
ATOM     20  N   UNL     1      26.983  20.432  17.212  0.00  0.00    -0.325 N 
ATOM     21  C   UNL     1      27.047  21.800  17.176  0.00  0.00    +0.242 C 
ATOM     22  O   UNL     1      26.050  22.487  16.992  0.00  0.00    -0.270 OA
ATOM     23  H   UNL     1      26.049  20.037  17.148  0.00  0.00    +0.145 HD
ATOM     24  H   UNL     1      27.705  19.865  17.623  0.00  0.00    +0.145 HD
ENDBRANCH  14  21
ENDBRANCH   1  17
TORSDOF 2
ENDMDL
MODEL 3
REMARK VINA RESULT:      -6.2      4.636      6.963
REMARK  Name = ZINC000870248439
REMARK  2 active torsions:
REMARK  status: ('A' for Active; 'I' for Inactive)
REMARK    1  A    between atoms: C_2  and  C_4
REMARK    2  A    between atoms: C_7  and  C_8
REMARK                            x       y       z     vdW  Elec       q    Type
REMARK                         _______ _______ _______ _____ _____    ______ ____
ROOT
ATOM      1  C   UNL     1      30.238  21.488  15.064  0.00  0.00    +0.247 C 
ATOM      2  O   UNL     1      29.073  21.877  15.146  0.00  0.00    -0.270 OA
ATOM      3  N   UNL     1      31.315  22.162  15.656  0.00  0.00    -0.297 N 
ATOM      4  C   UNL     1      32.714  21.745  15.609  0.00  0.00    +0.108 C 
ATOM      5  C   UNL     1      33.425  21.865  16.941  0.00  0.00    +0.026 C 
ATOM      6  C   UNL     1      33.265  23.257  17.576  0.00  0.00    -0.025 C 
ATOM      7  C   UNL     1      33.831  23.178  19.012  0.00  0.00    +0.017 C 
ATOM      8  C   UNL     1      33.806  24.496  19.776  0.00  0.00    +0.069 C 
ATOM      9  S   UNL     1      34.766  25.796  18.950  0.00  0.00    -0.161 S 
ATOM     10  C   UNL     1      34.038  25.702  17.294  0.00  0.00    +0.069 C 
ATOM     11  C   UNL     1      34.081  24.283  16.749  0.00  0.00    +0.017 C 
ATOM     12  C   UNL     1      31.745  23.584  17.610  0.00  0.00    +0.026 C 
ATOM     13  C   UNL     1      31.078  23.478  16.239  0.00  0.00    +0.108 C 
ENDROOT
BRANCH   1  17
ATOM     14  C   UNL     1      31.219  17.746  13.254  0.00  0.00    +0.037 A 
ATOM     15  C   UNL     1      31.726  18.926  12.706  0.00  0.00    +0.014 A 
ATOM     16  C   UNL     1      31.316  20.150  13.220  0.00  0.00    +0.014 A 
ATOM     17  C   UNL     1      30.491  20.208  14.351  0.00  0.00    +0.037 A 
ATOM     18  C   UNL     1      29.931  19.032  14.858  0.00  0.00    +0.014 A 
ATOM     19  C   UNL     1      30.288  17.800  14.299  0.00  0.00    +0.014 A 
BRANCH  14  21
ATOM     20  N   UNL     1      33.000  16.189  12.703  0.00  0.00    -0.325 N 
ATOM     21  C   UNL     1      31.652  16.435  12.719  0.00  0.00    +0.242 C 
ATOM     22  O   UNL     1      30.841  15.600  12.338  0.00  0.00    -0.270 OA
ATOM     23  H   UNL     1      33.269  15.249  12.423  0.00  0.00    +0.145 HD
ATOM     24  H   UNL     1      33.656  16.722  13.248  0.00  0.00    +0.145 HD
ENDBRANCH  14  21
ENDBRANCH   1  17
TORSDOF 2
ENDMDL
MODEL 4
REMARK VINA RESULT:      -6.2      4.152      7.659
REMARK  Name = ZINC000870248439
REMARK  2 active torsions:
REMARK  status: ('A' for Active; 'I' for Inactive)
REMARK    1  A    between atoms: C_2  and  C_4
REMARK    2  A    between atoms: C_7  and  C_8
REMARK                            x       y       z     vdW  Elec       q    Type
REMARK                         _______ _______ _______ _____ _____    ______ ____
ROOT
ATOM      1  C   UNL     1      31.104  23.422  13.312  0.00  0.00    +0.247 C 
ATOM      2  O   UNL     1      30.052  22.787  13.247  0.00  0.00    -0.270 OA
ATOM      3  N   UNL     1      31.878  23.505  14.477  0.00  0.00    -0.297 N 
ATOM      4  C   UNL     1      33.140  24.228  14.614  0.00  0.00    +0.108 C 
ATOM      5  C   UNL     1      34.202  23.453  15.367  0.00  0.00    +0.026 C 
ATOM      6  C   UNL     1      33.699  22.919  16.720  0.00  0.00    -0.025 C 
ATOM      7  C   UNL     1      34.785  21.968  17.273  0.00  0.00    +0.017 C 
ATOM      8  C   UNL     1      34.476  21.388  18.647  0.00  0.00    +0.069 C 
ATOM      9  S   UNL     1      34.269  22.671  19.914  0.00  0.00    -0.161 S 
ATOM     10  C   UNL     1      33.044  23.718  19.084  0.00  0.00    +0.069 C 
ATOM     11  C   UNL     1      33.507  24.113  17.690  0.00  0.00    +0.017 C 
ATOM     12  C   UNL     1      32.380  22.141  16.454  0.00  0.00    +0.026 C 
ATOM     13  C   UNL     1      31.330  22.972  15.719  0.00  0.00    +0.108 C 
ENDROOT
BRANCH   1  17
ATOM     14  C   UNL     1      32.777  25.438   9.939  0.00  0.00    +0.037 A 
ATOM     15  C   UNL     1      31.704  26.015  10.619  0.00  0.00    +0.014 A 
ATOM     16  C   UNL     1      31.083  25.310  11.641  0.00  0.00    +0.014 A 
ATOM     17  C   UNL     1      31.593  24.078  12.071  0.00  0.00    +0.037 A 
ATOM     18  C   UNL     1      32.624  23.469  11.348  0.00  0.00    +0.014 A 
ATOM     19  C   UNL     1      33.208  24.147  10.273  0.00  0.00    +0.014 A 
BRANCH  14  21
ATOM     20  N   UNL     1      33.394  25.628   7.598  0.00  0.00    -0.325 N 
ATOM     21  C   UNL     1      33.452  26.181   8.850  0.00  0.00    +0.242 C 
ATOM     22  O   UNL     1      34.008  27.252   9.055  0.00  0.00    -0.270 OA
ATOM     23  H   UNL     1      33.779  26.199   6.850  0.00  0.00    +0.145 HD
ATOM     24  H   UNL     1      32.731  24.914   7.349  0.00  0.00    +0.145 HD
ENDBRANCH  14  21
ENDBRANCH   1  17
TORSDOF 2
ENDMDL
MODEL 5
REMARK VINA RESULT:      -5.9      4.198      5.489
REMARK  Name = ZINC000870248439
REMARK  2 active torsions:
REMARK  status: ('A' for Active; 'I' for Inactive)
REMARK    1  A    between atoms: C_2  and  C_4
REMARK    2  A    between atoms: C_7  and  C_8
REMARK                            x       y       z     vdW  Elec       q    Type
REMARK                         _______ _______ _______ _____ _____    ______ ____
ROOT
ATOM      1  C   UNL     1      32.068  23.328  14.972  0.00  0.00    +0.247 C 
ATOM      2  O   UNL     1      32.100  23.374  13.742  0.00  0.00    -0.270 OA
ATOM      3  N   UNL     1      33.103  23.809  15.784  0.00  0.00    -0.297 N 
ATOM      4  C   UNL     1      33.118  23.799  17.245  0.00  0.00    +0.108 C 
ATOM      5  C   UNL     1      33.618  25.093  17.853  0.00  0.00    +0.026 C 
ATOM      6  C   UNL     1      34.970  25.539  17.271  0.00  0.00    -0.025 C 
ATOM      7  C   UNL     1      35.253  26.964  17.798  0.00  0.00    +0.017 C 
ATOM      8  C   UNL     1      36.592  27.545  17.363  0.00  0.00    +0.069 C 
ATOM      9  S   UNL     1      37.999  26.539  17.917  0.00  0.00    -0.161 S 
ATOM     10  C   UNL     1      37.475  24.921  17.293  0.00  0.00    +0.069 C 
ATOM     11  C   UNL     1      36.074  24.570  17.769  0.00  0.00    +0.017 C 
ATOM     12  C   UNL     1      34.833  25.550  15.723  0.00  0.00    +0.026 C 
ATOM     13  C   UNL     1      34.354  24.215  15.153  0.00  0.00    +0.108 C 
ENDROOT
BRANCH   1  17
ATOM     14  C   UNL     1      28.350  21.976  16.581  0.00  0.00    +0.037 A 
ATOM     15  C   UNL     1      29.051  22.989  17.235  0.00  0.00    +0.014 A 
ATOM     16  C   UNL     1      30.313  23.351  16.782  0.00  0.00    +0.014 A 
ATOM     17  C   UNL     1      30.839  22.789  15.611  0.00  0.00    +0.037 A 
ATOM     18  C   UNL     1      30.168  21.728  14.994  0.00  0.00    +0.014 A 
ATOM     19  C   UNL     1      28.927  21.314  15.489  0.00  0.00    +0.014 A 
BRANCH  14  21
ATOM     20  N   UNL     1      26.137  22.601  17.363  0.00  0.00    -0.325 N 
ATOM     21  C   UNL     1      27.001  21.584  17.050  0.00  0.00    +0.242 C 
ATOM     22  O   UNL     1      26.666  20.409  17.126  0.00  0.00    -0.270 OA
ATOM     23  H   UNL     1      25.189  22.314  17.590  0.00  0.00    +0.145 HD
ATOM     24  H   UNL     1      26.280  23.549  17.058  0.00  0.00    +0.145 HD
ENDBRANCH  14  21
ENDBRANCH   1  17
TORSDOF 2
ENDMDL
MODEL 6
REMARK VINA RESULT:      -5.9      4.393      5.819
REMARK  Name = ZINC000870248439
REMARK  2 active torsions:
REMARK  status: ('A' for Active; 'I' for Inactive)
REMARK    1  A    between atoms: C_2  and  C_4
REMARK    2  A    between atoms: C_7  and  C_8
REMARK                            x       y       z     vdW  Elec       q    Type
REMARK                         _______ _______ _______ _____ _____    ______ ____
ROOT
ATOM      1  C   UNL     1      32.604  21.840  13.820  0.00  0.00    +0.247 C 
ATOM      2  O   UNL     1      32.481  22.237  12.661  0.00  0.00    -0.270 OA
ATOM      3  N   UNL     1      33.378  22.506  14.780  0.00  0.00    -0.297 N 
ATOM      4  C   UNL     1      33.552  22.096  16.171  0.00  0.00    +0.108 C 
ATOM      5  C   UNL     1      33.456  23.244  17.156  0.00  0.00    +0.026 C 
ATOM      6  C   UNL     1      34.377  24.420  16.787  0.00  0.00    -0.025 C 
ATOM      7  C   UNL     1      34.021  25.597  17.723  0.00  0.00    +0.017 C 
ATOM      8  C   UNL     1      34.883  26.839  17.534  0.00  0.00    +0.069 C 
ATOM      9  S   UNL     1      36.645  26.512  17.822  0.00  0.00    -0.161 S 
ATOM     10  C   UNL     1      36.869  25.086  16.726  0.00  0.00    +0.069 C 
ATOM     11  C   UNL     1      35.850  23.995  17.019  0.00  0.00    +0.017 C 
ATOM     12  C   UNL     1      34.086  24.796  15.307  0.00  0.00    +0.026 C 
ATOM     13  C   UNL     1      34.223  23.614  14.349  0.00  0.00    +0.108 C 
ENDROOT
BRANCH   1  17
ATOM     14  C   UNL     1      30.388  18.279  14.625  0.00  0.00    +0.037 A 
ATOM     15  C   UNL     1      29.730  19.510  14.622  0.00  0.00    +0.014 A 
ATOM     16  C   UNL     1      30.465  20.679  14.477  0.00  0.00    +0.014 A 
ATOM     17  C   UNL     1      31.842  20.628  14.221  0.00  0.00    +0.037 A 
ATOM     18  C   UNL     1      32.512  19.403  14.290  0.00  0.00    +0.014 A 
ATOM     19  C   UNL     1      31.784  18.229  14.505  0.00  0.00    +0.014 A 
BRANCH  14  21
ATOM     20  N   UNL     1      29.077  16.775  16.009  0.00  0.00    -0.325 N 
ATOM     21  C   UNL     1      29.615  17.025  14.774  0.00  0.00    +0.242 C 
ATOM     22  O   UNL     1      29.442  16.264  13.831  0.00  0.00    -0.270 OA
ATOM     23  H   UNL     1      28.472  15.960  16.065  0.00  0.00    +0.145 HD
ATOM     24  H   UNL     1      28.967  17.489  16.709  0.00  0.00    +0.145 HD
ENDBRANCH  14  21
ENDBRANCH   1  17
TORSDOF 2
ENDMDL
MODEL 7
REMARK VINA RESULT:      -5.9      5.053      6.638
REMARK  Name = ZINC000870248439
REMARK  2 active torsions:
REMARK  status: ('A' for Active; 'I' for Inactive)
REMARK    1  A    between atoms: C_2  and  C_4
REMARK    2  A    between atoms: C_7  and  C_8
REMARK                            x       y       z     vdW  Elec       q    Type
REMARK                         _______ _______ _______ _____ _____    ______ ____
ROOT
ATOM      1  C   UNL     1      31.873  18.916  12.895  0.00  0.00    +0.247 C 
ATOM      2  O   UNL     1      31.783  18.832  11.670  0.00  0.00    -0.270 OA
ATOM      3  N   UNL     1      32.795  18.178  13.648  0.00  0.00    -0.297 N 
ATOM      4  C   UNL     1      32.961  18.245  15.098  0.00  0.00    +0.108 C 
ATOM      5  C   UNL     1      34.410  18.289  15.538  0.00  0.00    +0.026 C 
ATOM      6  C   UNL     1      35.254  17.162  14.917  0.00  0.00    -0.025 C 
ATOM      7  C   UNL     1      36.734  17.451  15.257  0.00  0.00    +0.017 C 
ATOM      8  C   UNL     1      37.714  16.395  14.764  0.00  0.00    +0.069 C 
ATOM      9  S   UNL     1      37.373  14.752  15.459  0.00  0.00    -0.161 S 
ATOM     10  C   UNL     1      35.614  14.610  15.045  0.00  0.00    +0.069 C 
ATOM     11  C   UNL     1      34.828  15.811  15.548  0.00  0.00    +0.017 C 
ATOM     12  C   UNL     1      35.032  17.204  13.379  0.00  0.00    +0.026 C 
ATOM     13  C   UNL     1      33.558  17.128  12.984  0.00  0.00    +0.108 C 
ENDROOT
BRANCH   1  17
ATOM     14  C   UNL     1      29.561  21.699  15.165  0.00  0.00    +0.037 A 
ATOM     15  C   UNL     1      29.119  20.381  15.041  0.00  0.00    +0.014 A 
ATOM     16  C   UNL     1      29.804  19.505  14.209  0.00  0.00    +0.014 A 
ATOM     17  C   UNL     1      30.995  19.898  13.586  0.00  0.00    +0.037 A 
ATOM     18  C   UNL     1      31.403  21.234  13.656  0.00  0.00    +0.014 A 
ATOM     19  C   UNL     1      30.676  22.137  14.438  0.00  0.00    +0.014 A 
BRANCH  14  21
ATOM     20  N   UNL     1      29.470  23.828  16.329  0.00  0.00    -0.325 N 
ATOM     21  C   UNL     1      28.843  22.642  16.053  0.00  0.00    +0.242 C 
ATOM     22  O   UNL     1      27.730  22.385  16.493  0.00  0.00    -0.270 OA
ATOM     23  H   UNL     1      28.921  24.500  16.860  0.00  0.00    +0.145 HD
ATOM     24  H   UNL     1      30.236  24.179  15.779  0.00  0.00    +0.145 HD
ENDBRANCH  14  21
ENDBRANCH   1  17
TORSDOF 2
ENDMDL
MODEL 8
REMARK VINA RESULT:      -5.8      6.610      9.360
REMARK  Name = ZINC000870248439
REMARK  2 active torsions:
REMARK  status: ('A' for Active; 'I' for Inactive)
REMARK    1  A    between atoms: C_2  and  C_4
REMARK    2  A    between atoms: C_7  and  C_8
REMARK                            x       y       z     vdW  Elec       q    Type
REMARK                         _______ _______ _______ _____ _____    ______ ____
ROOT
ATOM      1  C   UNL     1      33.538  24.169  18.530  0.00  0.00    +0.247 C 
ATOM      2  O   UNL     1      33.851  25.333  18.280  0.00  0.00    -0.270 OA
ATOM      3  N   UNL     1      34.009  23.474  19.652  0.00  0.00    -0.297 N 
ATOM      4  C   UNL     1      33.663  22.101  20.012  0.00  0.00    +0.108 C 
ATOM      5  C   UNL     1      33.359  21.921  21.486  0.00  0.00    +0.026 C 
ATOM      6  C   UNL     1      34.464  22.490  22.393  0.00  0.00    -0.025 C 
ATOM      7  C   UNL     1      33.935  22.451  23.845  0.00  0.00    +0.017 C 
ATOM      8  C   UNL     1      34.930  22.929  24.894  0.00  0.00    +0.069 C 
ATOM      9  S   UNL     1      36.452  21.939  24.910  0.00  0.00    -0.161 S 
ATOM     10  C   UNL     1      36.885  22.025  23.153  0.00  0.00    +0.069 C 
ATOM     11  C   UNL     1      35.723  21.593  22.273  0.00  0.00    +0.017 C 
ATOM     12  C   UNL     1      34.725  23.957  21.949  0.00  0.00    +0.026 C 
ATOM     13  C   UNL     1      35.056  24.084  20.463  0.00  0.00    +0.108 C 
ENDROOT
BRANCH   1  17
ATOM     14  C   UNL     1      30.806  22.523  15.691  0.00  0.00    +0.037 A 
ATOM     15  C   UNL     1      30.313  23.259  16.769  0.00  0.00    +0.014 A 
ATOM     16  C   UNL     1      31.187  23.696  17.756  0.00  0.00    +0.014 A 
ATOM     17  C   UNL     1      32.568  23.504  17.622  0.00  0.00    +0.037 A 
ATOM     18  C   UNL     1      33.056  22.711  16.579  0.00  0.00    +0.014 A 
ATOM     19  C   UNL     1      32.170  22.210  15.619  0.00  0.00    +0.014 A 
BRANCH  14  21
ATOM     20  N   UNL     1      30.032  22.624  13.391  0.00  0.00    -0.325 N 
ATOM     21  C   UNL     1      29.886  22.055  14.629  0.00  0.00    +0.242 C 
ATOM     22  O   UNL     1      29.056  21.181  14.841  0.00  0.00    -0.270 OA
ATOM     23  H   UNL     1      29.457  22.222  12.655  0.00  0.00    +0.145 HD
ATOM     24  H   UNL     1      30.859  23.127  13.118  0.00  0.00    +0.145 HD
ENDBRANCH  14  21
ENDBRANCH   1  17
TORSDOF 2
ENDMDL
MODEL 9
REMARK VINA RESULT:      -5.8      6.802      8.717
REMARK  Name = ZINC000870248439
REMARK  2 active torsions:
REMARK  status: ('A' for Active; 'I' for Inactive)
REMARK    1  A    between atoms: C_2  and  C_4
REMARK    2  A    between atoms: C_7  and  C_8
REMARK                            x       y       z     vdW  Elec       q    Type
REMARK                         _______ _______ _______ _____ _____    ______ ____
ROOT
ATOM      1  C   UNL     1      34.378  22.607  20.540  0.00  0.00    +0.247 C 
ATOM      2  O   UNL     1      34.829  23.329  21.429  0.00  0.00    -0.270 OA
ATOM      3  N   UNL     1      35.068  21.499  20.029  0.00  0.00    -0.297 N 
ATOM      4  C   UNL     1      34.582  20.597  18.988  0.00  0.00    +0.108 C 
ATOM      5  C   UNL     1      34.830  19.133  19.294  0.00  0.00    +0.026 C 
ATOM      6  C   UNL     1      36.295  18.844  19.663  0.00  0.00    -0.025 C 
ATOM      7  C   UNL     1      36.365  17.385  20.168  0.00  0.00    +0.017 C 
ATOM      8  C   UNL     1      37.766  16.907  20.527  0.00  0.00    +0.069 C 
ATOM      9  S   UNL     1      38.909  16.984  19.119  0.00  0.00    -0.161 S 
ATOM     10  C   UNL     1      38.648  18.705  18.614  0.00  0.00    +0.069 C 
ATOM     11  C   UNL     1      37.172  19.001  18.394  0.00  0.00    +0.017 C 
ATOM     12  C   UNL     1      36.695  19.831  20.797  0.00  0.00    +0.026 C 
ATOM     13  C   UNL     1      36.455  21.294  20.431  0.00  0.00    +0.108 C 
ENDROOT
BRANCH   1  17
ATOM     14  C   UNL     1      30.445  23.126  18.959  0.00  0.00    +0.037 A 
ATOM     15  C   UNL     1      31.537  23.643  18.262  0.00  0.00    +0.014 A 
ATOM     16  C   UNL     1      32.803  23.580  18.828  0.00  0.00    +0.014 A 
ATOM     17  C   UNL     1      33.010  22.902  20.037  0.00  0.00    +0.037 A 
ATOM     18  C   UNL     1      31.910  22.442  20.767  0.00  0.00    +0.014 A 
ATOM     19  C   UNL     1      30.624  22.566  20.231  0.00  0.00    +0.014 A 
BRANCH  14  21
ATOM     20  N   UNL     1      28.067  23.563  19.193  0.00  0.00    -0.325 N 
ATOM     21  C   UNL     1      29.090  23.183  18.364  0.00  0.00    +0.242 C 
ATOM     22  O   UNL     1      28.899  22.931  17.181  0.00  0.00    -0.270 OA
ATOM     23  H   UNL     1      27.164  23.688  18.743  0.00  0.00    +0.145 HD
ATOM     24  H   UNL     1      28.224  24.031  20.069  0.00  0.00    +0.145 HD
ENDBRANCH  14  21
ENDBRANCH   1  17
TORSDOF 2
ENDMDL
