MODEL 1
REMARK VINA RESULT:      -7.0      0.000      0.000
REMARK  Name = ZINC000543478179
REMARK  8 active torsions:
REMARK  status: ('A' for Active; 'I' for Inactive)
REMARK    1  A    between atoms: C_1  and  C_2
REMARK    2  A    between atoms: C_2  and  N_3
REMARK    3  A    between atoms: N_9  and  C_10
REMARK    4  A    between atoms: C_10  and  C_11
REMARK    5  A    between atoms: C_10  and  C_12
REMARK    6  A    between atoms: C_15  and  O_16
REMARK    7  A    between atoms: O_16  and  C_17
REMARK    8  A    between atoms: C_17  and  C_18
REMARK                            x       y       z     vdW  Elec       q    Type
REMARK                         _______ _______ _______ _____ _____    ______ ____
ROOT
ATOM      1  C   UNL     1      29.684  22.503  17.763  0.00  0.00    +0.102 C 
ATOM      2  C   UNL     1      30.722  23.580  17.419  0.00  0.00    +0.033 C 
ENDROOT
BRANCH   1   9
ATOM      3  N   UNL     1      23.839  25.090  17.685  0.00  0.00    -0.299 N 
ATOM      4  C   UNL     1      24.575  25.321  18.928  0.00  0.00    +0.127 C 
ATOM      5  C   UNL     1      25.268  24.049  19.427  0.00  0.00    +0.129 C 
ATOM      6  N   UNL     1      26.182  23.564  18.397  0.00  0.00    -0.275 N 
ATOM      7  C   UNL     1      27.508  23.302  18.712  0.00  0.00    +0.303 C 
ATOM      8  O   UNL     1      27.961  23.417  19.843  0.00  0.00    -0.253 OA
ATOM      9  N   UNL     1      28.289  22.936  17.644  0.00  0.00    -0.293 N 
ATOM     10  C   UNL     1      25.587  23.416  17.068  0.00  0.00    +0.205 C 
ATOM     11  C   UNL     1      24.220  24.077  16.808  0.00  0.00    +0.233 C 
ATOM     12  O   UNL     1      23.581  23.806  15.791  0.00  0.00    -0.274 OA
ATOM     13  H   UNL     1      27.790  22.467  16.908  0.00  0.00    +0.151 HD
BRANCH   3  15
ATOM     14  C   UNL     1      22.718  27.223  18.232  0.00  0.00    +0.024 C 
ATOM     15  C   UNL     1      22.940  26.133  17.192  0.00  0.00    +0.104 C 
ENDBRANCH   3  15
ENDBRANCH   1   9
BRANCH   1  16
ATOM     16  C   UNL     1      29.873  21.298  16.850  0.00  0.00    -0.024 A 
ATOM     17  C   UNL     1      29.987  20.011  17.410  0.00  0.00    +0.009 A 
ATOM     18  C   UNL     1      30.245  18.899  16.614  0.00  0.00    +0.049 A 
ATOM     19  C   UNL     1      30.443  19.051  15.242  0.00  0.00    +0.156 A 
ATOM     20  C   UNL     1      30.268  20.313  14.669  0.00  0.00    +0.165 A 
ATOM     21  F   UNL     1      30.404  20.481  13.345  0.00  0.00    -0.202 F 
ATOM     22  C   UNL     1      29.989  21.432  15.460  0.00  0.00    +0.047 A 
BRANCH  19  23
ATOM     23  O   UNL     1      30.826  18.027  14.415  0.00  0.00    -0.489 OA
BRANCH  23  24
ATOM     24  C   UNL     1      30.661  16.721  14.975  0.00  0.00    +0.232 C 
BRANCH  24  25
ATOM     25  C   UNL     1      29.886  15.877  14.017  0.00  0.00    +0.027 C 
ATOM     26  C   UNL     1      29.084  14.703  14.517  0.00  0.00    +0.007 C 
ATOM     27  C   UNL     1      30.325  14.468  13.700  0.00  0.00    +0.007 C 
ENDBRANCH  24  25
ENDBRANCH  23  24
ENDBRANCH  19  23
ENDBRANCH   1  16
TORSDOF 6
ENDMDL
MODEL 2
REMARK VINA RESULT:      -6.9      4.461      8.561
REMARK  Name = ZINC000543478179
REMARK  8 active torsions:
REMARK  status: ('A' for Active; 'I' for Inactive)
REMARK    1  A    between atoms: C_1  and  C_2
REMARK    2  A    between atoms: C_2  and  N_3
REMARK    3  A    between atoms: N_9  and  C_10
REMARK    4  A    between atoms: C_10  and  C_11
REMARK    5  A    between atoms: C_10  and  C_12
REMARK    6  A    between atoms: C_15  and  O_16
REMARK    7  A    between atoms: O_16  and  C_17
REMARK    8  A    between atoms: C_17  and  C_18
REMARK                            x       y       z     vdW  Elec       q    Type
REMARK                         _______ _______ _______ _____ _____    ______ ____
ROOT
ATOM      1  C   UNL     1      31.503  20.770  15.770  0.00  0.00    +0.102 C 
ATOM      2  C   UNL     1      31.160  19.354  15.288  0.00  0.00    +0.033 C 
ENDROOT
BRANCH   1   9
ATOM      3  N   UNL     1      33.198  24.467  10.837  0.00  0.00    -0.299 N 
ATOM      4  C   UNL     1      34.322  23.799  11.493  0.00  0.00    +0.127 C 
ATOM      5  C   UNL     1      34.226  23.883  13.020  0.00  0.00    +0.129 C 
ATOM      6  N   UNL     1      32.971  23.278  13.457  0.00  0.00    -0.275 N 
ATOM      7  C   UNL     1      32.978  22.294  14.435  0.00  0.00    +0.303 C 
ATOM      8  O   UNL     1      33.997  21.919  15.000  0.00  0.00    -0.253 OA
ATOM      9  N   UNL     1      31.748  21.740  14.699  0.00  0.00    -0.293 N 
ATOM     10  C   UNL     1      31.777  23.779  12.773  0.00  0.00    +0.205 C 
ATOM     11  C   UNL     1      31.971  24.599  11.484  0.00  0.00    +0.233 C 
ATOM     12  O   UNL     1      31.028  25.220  10.993  0.00  0.00    -0.274 OA
ATOM     13  H   UNL     1      30.973  22.360  14.539  0.00  0.00    +0.151 HD
BRANCH   3  15
ATOM     14  C   UNL     1      32.953  23.392   8.627  0.00  0.00    +0.024 C 
ATOM     15  C   UNL     1      33.247  24.676   9.391  0.00  0.00    +0.104 C 
ENDBRANCH   3  15
ENDBRANCH   1   9
BRANCH   1  16
ATOM     16  C   UNL     1      30.366  21.310  16.629  0.00  0.00    -0.024 A 
ATOM     17  C   UNL     1      29.143  20.615  16.683  0.00  0.00    +0.009 A 
ATOM     18  C   UNL     1      28.056  21.122  17.389  0.00  0.00    +0.049 A 
ATOM     19  C   UNL     1      28.148  22.362  18.021  0.00  0.00    +0.156 A 
ATOM     20  C   UNL     1      29.377  23.028  18.028  0.00  0.00    +0.165 A 
ATOM     21  F   UNL     1      29.510  24.199  18.668  0.00  0.00    -0.202 F 
ATOM     22  C   UNL     1      30.480  22.514  17.337  0.00  0.00    +0.047 A 
BRANCH  19  23
ATOM     23  O   UNL     1      27.088  22.984  18.624  0.00  0.00    -0.489 OA
BRANCH  23  24
ATOM     24  C   UNL     1      26.004  23.294  17.743  0.00  0.00    +0.232 C 
BRANCH  24  25
ATOM     25  C   UNL     1      24.849  23.791  18.550  0.00  0.00    +0.027 C 
ATOM     26  C   UNL     1      23.745  24.576  17.891  0.00  0.00    +0.007 C 
ATOM     27  C   UNL     1      24.688  25.263  18.842  0.00  0.00    +0.007 C 
ENDBRANCH  24  25
ENDBRANCH  23  24
ENDBRANCH  19  23
ENDBRANCH   1  16
TORSDOF 6
ENDMDL
MODEL 3
REMARK VINA RESULT:      -6.6      5.872      7.484
REMARK  Name = ZINC000543478179
REMARK  8 active torsions:
REMARK  status: ('A' for Active; 'I' for Inactive)
REMARK    1  A    between atoms: C_1  and  C_2
REMARK    2  A    between atoms: C_2  and  N_3
REMARK    3  A    between atoms: N_9  and  C_10
REMARK    4  A    between atoms: C_10  and  C_11
REMARK    5  A    between atoms: C_10  and  C_12
REMARK    6  A    between atoms: C_15  and  O_16
REMARK    7  A    between atoms: O_16  and  C_17
REMARK    8  A    between atoms: C_17  and  C_18
REMARK                            x       y       z     vdW  Elec       q    Type
REMARK                         _______ _______ _______ _____ _____    ______ ____
ROOT
ATOM      1  C   UNL     1      31.998  20.416  16.000  0.00  0.00    +0.102 C 
ATOM      2  C   UNL     1      33.138  20.495  17.025  0.00  0.00    +0.033 C 
ENDROOT
BRANCH   1   9
ATOM      3  N   UNL     1      33.568  23.531  10.642  0.00  0.00    -0.299 N 
ATOM      4  C   UNL     1      32.827  24.344  11.608  0.00  0.00    +0.127 C 
ATOM      5  C   UNL     1      31.632  23.588  12.196  0.00  0.00    +0.129 C 
ATOM      6  N   UNL     1      32.106  22.367  12.841  0.00  0.00    -0.275 N 
ATOM      7  C   UNL     1      31.747  22.090  14.153  0.00  0.00    +0.303 C 
ATOM      8  O   UNL     1      31.002  22.807  14.807  0.00  0.00    -0.253 OA
ATOM      9  N   UNL     1      32.323  20.959  14.678  0.00  0.00    -0.293 N 
ATOM     10  C   UNL     1      32.970  21.527  12.009  0.00  0.00    +0.205 C 
ATOM     11  C   UNL     1      33.553  22.141  10.722  0.00  0.00    +0.233 C 
ATOM     12  O   UNL     1      34.101  21.423   9.884  0.00  0.00    -0.274 OA
ATOM     13  H   UNL     1      32.536  20.250  13.998  0.00  0.00    +0.151 HD
BRANCH   3  15
ATOM     14  C   UNL     1      34.003  25.205   8.878  0.00  0.00    +0.024 C 
ATOM     15  C   UNL     1      34.597  24.169   9.824  0.00  0.00    +0.104 C 
ENDBRANCH   3  15
ENDBRANCH   1   9
BRANCH   1  16
ATOM     16  C   UNL     1      31.576  18.964  15.810  0.00  0.00    -0.024 A 
ATOM     17  C   UNL     1      32.395  18.092  15.068  0.00  0.00    +0.009 A 
ATOM     18  C   UNL     1      32.002  16.784  14.803  0.00  0.00    +0.049 A 
ATOM     19  C   UNL     1      30.757  16.326  15.233  0.00  0.00    +0.156 A 
ATOM     20  C   UNL     1      29.966  17.163  16.026  0.00  0.00    +0.165 A 
ATOM     21  F   UNL     1      28.785  16.734  16.495  0.00  0.00    -0.202 F 
ATOM     22  C   UNL     1      30.364  18.473  16.313  0.00  0.00    +0.047 A 
BRANCH  19  23
ATOM     23  O   UNL     1      30.246  15.099  14.903  0.00  0.00    -0.489 OA
BRANCH  23  24
ATOM     24  C   UNL     1      30.421  14.735  13.530  0.00  0.00    +0.232 C 
BRANCH  24  25
ATOM     25  C   UNL     1      29.086  14.713  12.860  0.00  0.00    +0.027 C 
ATOM     26  C   UNL     1      27.902  14.086  13.548  0.00  0.00    +0.007 C 
ATOM     27  C   UNL     1      28.504  13.422  12.340  0.00  0.00    +0.007 C 
ENDBRANCH  24  25
ENDBRANCH  23  24
ENDBRANCH  19  23
ENDBRANCH   1  16
TORSDOF 6
ENDMDL
MODEL 4
REMARK VINA RESULT:      -6.5      6.370      8.605
REMARK  Name = ZINC000543478179
REMARK  8 active torsions:
REMARK  status: ('A' for Active; 'I' for Inactive)
REMARK    1  A    between atoms: C_1  and  C_2
REMARK    2  A    between atoms: C_2  and  N_3
REMARK    3  A    between atoms: N_9  and  C_10
REMARK    4  A    between atoms: C_10  and  C_11
REMARK    5  A    between atoms: C_10  and  C_12
REMARK    6  A    between atoms: C_15  and  O_16
REMARK    7  A    between atoms: O_16  and  C_17
REMARK    8  A    between atoms: C_17  and  C_18
REMARK                            x       y       z     vdW  Elec       q    Type
REMARK                         _______ _______ _______ _____ _____    ______ ____
ROOT
ATOM      1  C   UNL     1      32.410  24.622  11.724  0.00  0.00    +0.102 C 
ATOM      2  C   UNL     1      31.162  25.421  11.325  0.00  0.00    +0.033 C 
ENDROOT
BRANCH   1   9
ATOM      3  N   UNL     1      31.228  20.308  16.291  0.00  0.00    -0.299 N 
ATOM      4  C   UNL     1      32.042  21.439  16.738  0.00  0.00    +0.127 C 
ATOM      5  C   UNL     1      33.145  21.782  15.731  0.00  0.00    +0.129 C 
ATOM      6  N   UNL     1      32.538  22.092  14.440  0.00  0.00    -0.275 N 
ATOM      7  C   UNL     1      32.854  23.277  13.791  0.00  0.00    +0.303 C 
ATOM      8  O   UNL     1      33.666  24.083  14.227  0.00  0.00    -0.253 OA
ATOM      9  N   UNL     1      32.156  23.497  12.628  0.00  0.00    -0.293 N 
ATOM     10  C   UNL     1      31.597  21.085  13.946  0.00  0.00    +0.205 C 
ATOM     11  C   UNL     1      31.093  20.018  14.935  0.00  0.00    +0.233 C 
ATOM     12  O   UNL     1      30.479  19.032  14.527  0.00  0.00    -0.274 OA
ATOM     13  H   UNL     1      31.875  22.659  12.150  0.00  0.00    +0.151 HD
BRANCH   3  15
ATOM     14  C   UNL     1      28.968  20.480  17.273  0.00  0.00    +0.024 C 
ATOM     15  C   UNL     1      30.279  19.707  17.227  0.00  0.00    +0.104 C 
ENDBRANCH   3  15
ENDBRANCH   1   9
BRANCH   1  16
ATOM     16  C   UNL     1      33.085  24.067  10.476  0.00  0.00    -0.024 A 
ATOM     17  C   UNL     1      34.489  23.976  10.425  0.00  0.00    +0.009 A 
ATOM     18  C   UNL     1      35.143  23.554   9.271  0.00  0.00    +0.049 A 
ATOM     19  C   UNL     1      34.412  23.257   8.121  0.00  0.00    +0.156 A 
ATOM     20  C   UNL     1      33.016  23.282   8.181  0.00  0.00    +0.165 A 
ATOM     21  F   UNL     1      32.285  22.955   7.106  0.00  0.00    -0.202 F 
ATOM     22  C   UNL     1      32.351  23.686   9.344  0.00  0.00    +0.047 A 
BRANCH  19  23
ATOM     23  O   UNL     1      34.989  22.960   6.914  0.00  0.00    -0.489 OA
BRANCH  23  24
ATOM     24  C   UNL     1      35.624  21.679   6.861  0.00  0.00    +0.232 C 
BRANCH  24  25
ATOM     25  C   UNL     1      34.749  20.735   6.102  0.00  0.00    +0.027 C 
ATOM     26  C   UNL     1      33.738  19.887   6.828  0.00  0.00    +0.007 C 
ATOM     27  C   UNL     1      34.949  19.243   6.208  0.00  0.00    +0.007 C 
ENDBRANCH  24  25
ENDBRANCH  23  24
ENDBRANCH  19  23
ENDBRANCH   1  16
TORSDOF 6
ENDMDL
MODEL 5
REMARK VINA RESULT:      -6.5      4.049      9.693
REMARK  Name = ZINC000543478179
REMARK  8 active torsions:
REMARK  status: ('A' for Active; 'I' for Inactive)
REMARK    1  A    between atoms: C_1  and  C_2
REMARK    2  A    between atoms: C_2  and  N_3
REMARK    3  A    between atoms: N_9  and  C_10
REMARK    4  A    between atoms: C_10  and  C_11
REMARK    5  A    between atoms: C_10  and  C_12
REMARK    6  A    between atoms: C_15  and  O_16
REMARK    7  A    between atoms: O_16  and  C_17
REMARK    8  A    between atoms: C_17  and  C_18
REMARK                            x       y       z     vdW  Elec       q    Type
REMARK                         _______ _______ _______ _____ _____    ______ ____
ROOT
ATOM      1  C   UNL     1      25.755  23.383  18.255  0.00  0.00    +0.102 C 
ATOM      2  C   UNL     1      24.906  23.822  17.054  0.00  0.00    +0.033 C 
ENDROOT
BRANCH   1   9
ATOM      3  N   UNL     1      31.860  22.863  16.434  0.00  0.00    -0.299 N 
ATOM      4  C   UNL     1      31.030  21.716  16.065  0.00  0.00    +0.127 C 
ATOM      5  C   UNL     1      30.127  21.269  17.219  0.00  0.00    +0.129 C 
ATOM      6  N   UNL     1      29.276  22.383  17.623  0.00  0.00    -0.275 N 
ATOM      7  C   UNL     1      27.900  22.213  17.703  0.00  0.00    +0.303 C 
ATOM      8  O   UNL     1      27.345  21.144  17.489  0.00  0.00    -0.253 OA
ATOM      9  N   UNL     1      27.199  23.354  18.008  0.00  0.00    -0.293 N 
ATOM     10  C   UNL     1      29.987  23.633  17.896  0.00  0.00    +0.205 C 
ATOM     11  C   UNL     1      31.448  23.752  17.424  0.00  0.00    +0.233 C 
ATOM     12  O   UNL     1      32.154  24.684  17.812  0.00  0.00    -0.274 OA
ATOM     13  H   UNL     1      27.710  24.018  18.564  0.00  0.00    +0.151 HD
BRANCH   3  15
ATOM     14  C   UNL     1      32.627  22.914  14.086  0.00  0.00    +0.024 C 
ATOM     15  C   UNL     1      32.935  23.276  15.534  0.00  0.00    +0.104 C 
ENDBRANCH   3  15
ENDBRANCH   1   9
BRANCH   1  16
ATOM     16  C   UNL     1      25.506  24.321  19.430  0.00  0.00    -0.024 A 
ATOM     17  C   UNL     1      24.632  25.414  19.276  0.00  0.00    +0.009 A 
ATOM     18  C   UNL     1      24.447  26.339  20.299  0.00  0.00    +0.049 A 
ATOM     19  C   UNL     1      25.168  26.223  21.487  0.00  0.00    +0.156 A 
ATOM     20  C   UNL     1      25.989  25.107  21.674  0.00  0.00    +0.165 A 
ATOM     21  F   UNL     1      26.658  24.943  22.824  0.00  0.00    -0.202 F 
ATOM     22  C   UNL     1      26.164  24.162  20.657  0.00  0.00    +0.047 A 
BRANCH  19  23
ATOM     23  O   UNL     1      25.137  27.160  22.486  0.00  0.00    -0.489 OA
BRANCH  23  24
ATOM     24  C   UNL     1      25.197  28.515  22.028  0.00  0.00    +0.232 C 
BRANCH  24  25
ATOM     25  C   UNL     1      26.618  28.862  21.726  0.00  0.00    +0.027 C 
ATOM     26  C   UNL     1      27.056  30.303  21.693  0.00  0.00    +0.007 C 
ATOM     27  C   UNL     1      26.992  29.511  20.416  0.00  0.00    +0.007 C 
ENDBRANCH  24  25
ENDBRANCH  23  24
ENDBRANCH  19  23
ENDBRANCH   1  16
TORSDOF 6
ENDMDL
MODEL 6
REMARK VINA RESULT:      -6.5      4.746      7.124
REMARK  Name = ZINC000543478179
REMARK  8 active torsions:
REMARK  status: ('A' for Active; 'I' for Inactive)
REMARK    1  A    between atoms: C_1  and  C_2
REMARK    2  A    between atoms: C_2  and  N_3
REMARK    3  A    between atoms: N_9  and  C_10
REMARK    4  A    between atoms: C_10  and  C_11
REMARK    5  A    between atoms: C_10  and  C_12
REMARK    6  A    between atoms: C_15  and  O_16
REMARK    7  A    between atoms: O_16  and  C_17
REMARK    8  A    between atoms: C_17  and  C_18
REMARK                            x       y       z     vdW  Elec       q    Type
REMARK                         _______ _______ _______ _____ _____    ______ ____
ROOT
ATOM      1  C   UNL     1      30.227  20.457  16.071  0.00  0.00    +0.102 C 
ATOM      2  C   UNL     1      29.080  20.574  17.084  0.00  0.00    +0.033 C 
ENDROOT
BRANCH   1   9
ATOM      3  N   UNL     1      35.336  23.571  18.323  0.00  0.00    -0.299 N 
ATOM      4  C   UNL     1      34.324  24.443  17.725  0.00  0.00    +0.127 C 
ATOM      5  C   UNL     1      33.803  23.887  16.396  0.00  0.00    +0.129 C 
ATOM      6  N   UNL     1      33.240  22.559  16.617  0.00  0.00    -0.275 N 
ATOM      7  C   UNL     1      31.955  22.268  16.182  0.00  0.00    +0.303 C 
ATOM      8  O   UNL     1      31.260  23.067  15.569  0.00  0.00    -0.253 OA
ATOM      9  N   UNL     1      31.504  21.016  16.524  0.00  0.00    -0.293 N 
ATOM     10  C   UNL     1      34.120  21.629  17.328  0.00  0.00    +0.205 C 
ATOM     11  C   UNL     1      35.354  22.206  18.047  0.00  0.00    +0.233 C 
ATOM     12  O   UNL     1      36.234  21.456  18.471  0.00  0.00    -0.274 OA
ATOM     13  H   UNL     1      32.229  20.326  16.616  0.00  0.00    +0.151 HD
BRANCH   3  15
ATOM     14  C   UNL     1      35.265  24.035  20.748  0.00  0.00    +0.024 C 
ATOM     15  C   UNL     1      36.097  24.057  19.473  0.00  0.00    +0.104 C 
ENDBRANCH   3  15
ENDBRANCH   1   9
BRANCH   1  16
ATOM     16  C   UNL     1      30.462  18.991  15.728  0.00  0.00    -0.024 A 
ATOM     17  C   UNL     1      31.362  18.651  14.700  0.00  0.00    +0.009 A 
ATOM     18  C   UNL     1      31.538  17.329  14.303  0.00  0.00    +0.049 A 
ATOM     19  C   UNL     1      30.781  16.315  14.890  0.00  0.00    +0.156 A 
ATOM     20  C   UNL     1      29.934  16.634  15.954  0.00  0.00    +0.165 A 
ATOM     21  F   UNL     1      29.229  15.673  16.571  0.00  0.00    -0.202 F 
ATOM     22  C   UNL     1      29.767  17.959  16.373  0.00  0.00    +0.047 A 
BRANCH  19  23
ATOM     23  O   UNL     1      30.804  15.013  14.466  0.00  0.00    -0.489 OA
BRANCH  23  24
ATOM     24  C   UNL     1      30.577  14.842  13.064  0.00  0.00    +0.232 C 
BRANCH  24  25
ATOM     25  C   UNL     1      29.105  14.794  12.813  0.00  0.00    +0.027 C 
ATOM     26  C   UNL     1      28.202  14.022  13.739  0.00  0.00    +0.007 C 
ATOM     27  C   UNL     1      28.444  13.522  12.340  0.00  0.00    +0.007 C 
ENDBRANCH  24  25
ENDBRANCH  23  24
ENDBRANCH  19  23
ENDBRANCH   1  16
TORSDOF 6
ENDMDL
MODEL 7
REMARK VINA RESULT:      -6.4      4.110      9.618
REMARK  Name = ZINC000543478179
REMARK  8 active torsions:
REMARK  status: ('A' for Active; 'I' for Inactive)
REMARK    1  A    between atoms: C_1  and  C_2
REMARK    2  A    between atoms: C_2  and  N_3
REMARK    3  A    between atoms: N_9  and  C_10
REMARK    4  A    between atoms: C_10  and  C_11
REMARK    5  A    between atoms: C_10  and  C_12
REMARK    6  A    between atoms: C_15  and  O_16
REMARK    7  A    between atoms: O_16  and  C_17
REMARK    8  A    between atoms: C_17  and  C_18
REMARK                            x       y       z     vdW  Elec       q    Type
REMARK                         _______ _______ _______ _____ _____    ______ ____
ROOT
ATOM      1  C   UNL     1      25.778  23.377  18.287  0.00  0.00    +0.102 C 
ATOM      2  C   UNL     1      24.901  23.745  17.082  0.00  0.00    +0.033 C 
ENDROOT
BRANCH   1   9
ATOM      3  N   UNL     1      31.841  22.803  16.341  0.00  0.00    -0.299 N 
ATOM      4  C   UNL     1      30.998  21.654  16.009  0.00  0.00    +0.127 C 
ATOM      5  C   UNL     1      30.119  21.229  17.189  0.00  0.00    +0.129 C 
ATOM      6  N   UNL     1      29.281  22.353  17.594  0.00  0.00    -0.275 N 
ATOM      7  C   UNL     1      27.907  22.190  17.706  0.00  0.00    +0.303 C 
ATOM      8  O   UNL     1      27.343  21.120  17.521  0.00  0.00    -0.253 OA
ATOM      9  N   UNL     1      27.217  23.339  18.008  0.00  0.00    -0.293 N 
ATOM     10  C   UNL     1      30.003  23.604  17.832  0.00  0.00    +0.205 C 
ATOM     11  C   UNL     1      31.454  23.710  17.325  0.00  0.00    +0.233 C 
ATOM     12  O   UNL     1      32.171  24.644  17.684  0.00  0.00    -0.274 OA
ATOM     13  H   UNL     1      27.743  24.009  18.542  0.00  0.00    +0.151 HD
BRANCH   3  15
ATOM     14  C   UNL     1      32.444  23.080  13.962  0.00  0.00    +0.024 C 
ATOM     15  C   UNL     1      32.897  23.197  15.411  0.00  0.00    +0.104 C 
ENDBRANCH   3  15
ENDBRANCH   1   9
BRANCH   1  16
ATOM     16  C   UNL     1      25.553  24.381  19.411  0.00  0.00    -0.024 A 
ATOM     17  C   UNL     1      26.199  24.197  20.648  0.00  0.00    +0.009 A 
ATOM     18  C   UNL     1      25.951  25.045  21.724  0.00  0.00    +0.049 A 
ATOM     19  C   UNL     1      25.014  26.071  21.605  0.00  0.00    +0.156 A 
ATOM     20  C   UNL     1      24.417  26.301  20.363  0.00  0.00    +0.165 A 
ATOM     21  F   UNL     1      23.548  27.311  20.205  0.00  0.00    -0.202 F 
ATOM     22  C   UNL     1      24.676  25.465  19.272  0.00  0.00    +0.047 A 
BRANCH  19  23
ATOM     23  O   UNL     1      24.623  26.863  22.652  0.00  0.00    -0.489 OA
BRANCH  23  24
ATOM     24  C   UNL     1      23.411  26.447  23.289  0.00  0.00    +0.232 C 
BRANCH  24  25
ATOM     25  C   UNL     1      23.740  25.873  24.629  0.00  0.00    +0.027 C 
ATOM     26  C   UNL     1      23.903  24.385  24.798  0.00  0.00    +0.007 C 
ATOM     27  C   UNL     1      22.714  25.081  25.402  0.00  0.00    +0.007 C 
ENDBRANCH  24  25
ENDBRANCH  23  24
ENDBRANCH  19  23
ENDBRANCH   1  16
TORSDOF 6
ENDMDL
MODEL 8
REMARK VINA RESULT:      -6.4      4.682      8.366
REMARK  Name = ZINC000543478179
REMARK  8 active torsions:
REMARK  status: ('A' for Active; 'I' for Inactive)
REMARK    1  A    between atoms: C_1  and  C_2
REMARK    2  A    between atoms: C_2  and  N_3
REMARK    3  A    between atoms: N_9  and  C_10
REMARK    4  A    between atoms: C_10  and  C_11
REMARK    5  A    between atoms: C_10  and  C_12
REMARK    6  A    between atoms: C_15  and  O_16
REMARK    7  A    between atoms: O_16  and  C_17
REMARK    8  A    between atoms: C_17  and  C_18
REMARK                            x       y       z     vdW  Elec       q    Type
REMARK                         _______ _______ _______ _____ _____    ______ ____
ROOT
ATOM      1  C   UNL     1      22.526  27.948  17.780  0.00  0.00    +0.102 C 
ATOM      2  C   UNL     1      21.671  28.150  16.521  0.00  0.00    +0.033 C 
ENDROOT
BRANCH   1   9
ATOM      3  N   UNL     1      18.659  28.550  22.834  0.00  0.00    -0.299 N 
ATOM      4  C   UNL     1      18.629  29.694  21.923  0.00  0.00    +0.127 C 
ATOM      5  C   UNL     1      20.036  30.117  21.488  0.00  0.00    +0.129 C 
ATOM      6  N   UNL     1      20.698  28.989  20.840  0.00  0.00    -0.275 N 
ATOM      7  C   UNL     1      21.265  29.145  19.583  0.00  0.00    +0.303 C 
ATOM      8  O   UNL     1      21.281  30.212  18.984  0.00  0.00    -0.253 OA
ATOM      9  N   UNL     1      21.781  27.993  19.041  0.00  0.00    -0.293 N 
ATOM     10  C   UNL     1      20.679  27.742  21.608  0.00  0.00    +0.205 C 
ATOM     11  C   UNL     1      19.715  27.643  22.805  0.00  0.00    +0.233 C 
ATOM     12  O   UNL     1      19.812  26.713  23.606  0.00  0.00    -0.274 OA
ATOM     13  H   UNL     1      22.108  27.327  19.719  0.00  0.00    +0.151 HD
BRANCH   3  15
ATOM     14  C   UNL     1      16.507  27.357  22.609  0.00  0.00    +0.024 C 
ATOM     15  C   UNL     1      17.428  28.160  23.519  0.00  0.00    +0.104 C 
ENDBRANCH   3  15
ENDBRANCH   1   9
BRANCH   1  16
ATOM     16  C   UNL     1      23.233  26.599  17.710  0.00  0.00    -0.024 A 
ATOM     17  C   UNL     1      24.118  26.222  18.737  0.00  0.00    +0.009 A 
ATOM     18  C   UNL     1      24.844  25.037  18.665  0.00  0.00    +0.049 A 
ATOM     19  C   UNL     1      24.740  24.220  17.540  0.00  0.00    +0.156 A 
ATOM     20  C   UNL     1      23.816  24.552  16.545  0.00  0.00    +0.165 A 
ATOM     21  F   UNL     1      23.659  23.761  15.474  0.00  0.00    -0.202 F 
ATOM     22  C   UNL     1      23.068  25.732  16.621  0.00  0.00    +0.047 A 
BRANCH  19  23
ATOM     23  O   UNL     1      25.515  23.108  17.338  0.00  0.00    -0.489 OA
BRANCH  23  24
ATOM     24  C   UNL     1      26.721  23.080  18.107  0.00  0.00    +0.232 C 
BRANCH  24  25
ATOM     25  C   UNL     1      27.819  22.514  17.267  0.00  0.00    +0.027 C 
ATOM     26  C   UNL     1      28.187  21.057  17.380  0.00  0.00    +0.007 C 
ATOM     27  C   UNL     1      29.135  22.111  17.886  0.00  0.00    +0.007 C 
ENDBRANCH  24  25
ENDBRANCH  23  24
ENDBRANCH  19  23
ENDBRANCH   1  16
TORSDOF 6
ENDMDL
MODEL 9
REMARK VINA RESULT:      -6.3      4.046      6.453
REMARK  Name = ZINC000543478179
REMARK  8 active torsions:
REMARK  status: ('A' for Active; 'I' for Inactive)
REMARK    1  A    between atoms: C_1  and  C_2
REMARK    2  A    between atoms: C_2  and  N_3
REMARK    3  A    between atoms: N_9  and  C_10
REMARK    4  A    between atoms: C_10  and  C_11
REMARK    5  A    between atoms: C_10  and  C_12
REMARK    6  A    between atoms: C_15  and  O_16
REMARK    7  A    between atoms: O_16  and  C_17
REMARK    8  A    between atoms: C_17  and  C_18
REMARK                            x       y       z     vdW  Elec       q    Type
REMARK                         _______ _______ _______ _____ _____    ______ ____
ROOT
ATOM      1  C   UNL     1      29.727  21.898  16.113  0.00  0.00    +0.102 C 
ATOM      2  C   UNL     1      28.458  21.959  16.976  0.00  0.00    +0.033 C 
ENDROOT
BRANCH   1   9
ATOM      3  N   UNL     1      34.664  25.350  18.251  0.00  0.00    -0.299 N 
ATOM      4  C   UNL     1      34.342  25.583  16.843  0.00  0.00    +0.127 C 
ATOM      5  C   UNL     1      34.088  24.273  16.090  0.00  0.00    +0.129 C 
ATOM      6  N   UNL     1      32.994  23.552  16.734  0.00  0.00    -0.275 N 
ATOM      7  C   UNL     1      31.911  23.118  15.982  0.00  0.00    +0.303 C 
ATOM      8  O   UNL     1      31.835  23.269  14.770  0.00  0.00    -0.253 OA
ATOM      9  N   UNL     1      30.906  22.530  16.711  0.00  0.00    -0.293 N 
ATOM     10  C   UNL     1      33.144  23.370  18.179  0.00  0.00    +0.205 C 
ATOM     11  C   UNL     1      34.210  24.209  18.908  0.00  0.00    +0.233 C 
ATOM     12  O   UNL     1      34.524  23.943  20.068  0.00  0.00    -0.274 OA
ATOM     13  H   UNL     1      31.217  22.076  17.553  0.00  0.00    +0.151 HD
BRANCH   3  15
ATOM     14  C   UNL     1      35.417  27.703  18.208  0.00  0.00    +0.024 C 
ATOM     15  C   UNL     1      35.152  26.467  19.058  0.00  0.00    +0.104 C 
ENDBRANCH   3  15
ENDBRANCH   1   9
BRANCH   1  16
ATOM     16  C   UNL     1      30.080  20.444  15.823  0.00  0.00    -0.024 A 
ATOM     17  C   UNL     1      29.787  19.452  16.777  0.00  0.00    +0.009 A 
ATOM     18  C   UNL     1      30.171  18.128  16.583  0.00  0.00    +0.049 A 
ATOM     19  C   UNL     1      30.902  17.771  15.450  0.00  0.00    +0.156 A 
ATOM     20  C   UNL     1      31.142  18.735  14.467  0.00  0.00    +0.165 A 
ATOM     21  F   UNL     1      31.800  18.410  13.345  0.00  0.00    -0.202 F 
ATOM     22  C   UNL     1      30.741  20.063  14.647  0.00  0.00    +0.047 A 
BRANCH  19  23
ATOM     23  O   UNL     1      31.425  16.520  15.251  0.00  0.00    -0.489 OA
BRANCH  23  24
ATOM     24  C   UNL     1      30.447  15.489  15.090  0.00  0.00    +0.232 C 
BRANCH  24  25
ATOM     25  C   UNL     1      30.096  15.374  13.642  0.00  0.00    +0.027 C 
ATOM     26  C   UNL     1      28.805  14.719  13.224  0.00  0.00    +0.007 C 
ATOM     27  C   UNL     1      30.116  14.035  12.947  0.00  0.00    +0.007 C 
ENDBRANCH  24  25
ENDBRANCH  23  24
ENDBRANCH  19  23
ENDBRANCH   1  16
TORSDOF 6
ENDMDL
