MODEL 1
REMARK VINA RESULT:      -6.3      0.000      0.000
REMARK  Name = ZINC000543478179
REMARK  8 active torsions:
REMARK  status: ('A' for Active; 'I' for Inactive)
REMARK    1  A    between atoms: C_1  and  C_2
REMARK    2  A    between atoms: C_2  and  N_3
REMARK    3  A    between atoms: N_9  and  C_10
REMARK    4  A    between atoms: C_10  and  C_11
REMARK    5  A    between atoms: C_10  and  C_12
REMARK    6  A    between atoms: C_15  and  O_16
REMARK    7  A    between atoms: O_16  and  C_17
REMARK    8  A    between atoms: C_17  and  C_18
REMARK                            x       y       z     vdW  Elec       q    Type
REMARK                         _______ _______ _______ _____ _____    ______ ____
ROOT
ATOM      1  C   UNL     1      35.421  18.749  15.596  0.00  0.00    +0.102 C 
ATOM      2  C   UNL     1      36.663  19.577  15.931  0.00  0.00    +0.033 C 
ENDROOT
BRANCH   1   9
ATOM      3  N   UNL     1      33.743  14.597  12.509  0.00  0.00    -0.299 N 
ATOM      4  C   UNL     1      33.615  13.944  13.811  0.00  0.00    +0.127 C 
ATOM      5  C   UNL     1      34.807  14.252  14.722  0.00  0.00    +0.129 C 
ATOM      6  N   UNL     1      34.959  15.700  14.892  0.00  0.00    -0.275 N 
ATOM      7  C   UNL     1      35.179  16.204  16.143  0.00  0.00    +0.303 C 
ATOM      8  O   UNL     1      35.232  15.469  17.134  0.00  0.00    -0.253 OA
ATOM      9  N   UNL     1      35.336  17.524  16.385  0.00  0.00    -0.293 N 
ATOM     10  C   UNL     1      34.874  16.467  13.659  0.00  0.00    +0.205 C 
ATOM     11  C   UNL     1      34.447  15.775  12.365  0.00  0.00    +0.233 C 
ATOM     12  O   UNL     1      34.623  16.332  11.278  0.00  0.00    -0.274 OA
ATOM     13  H   UNL     1      35.463  17.652  17.382  0.00  0.00    +0.151 HD
BRANCH   3  15
ATOM     14  C   UNL     1      31.762  13.395  11.723  0.00  0.00    +0.024 C 
ATOM     15  C   UNL     1      33.095  14.016  11.348  0.00  0.00    +0.104 C 
ENDBRANCH   3  15
ENDBRANCH   1   9
BRANCH   1  16
ATOM     16  C   UNL     1      34.142  19.553  15.745  0.00  0.00    -0.024 A 
ATOM     17  C   UNL     1      33.932  20.405  16.836  0.00  0.00    +0.009 A 
ATOM     18  C   UNL     1      32.741  21.120  16.967  0.00  0.00    +0.049 A 
ATOM     19  C   UNL     1      31.713  20.967  16.027  0.00  0.00    +0.156 A 
ATOM     20  C   UNL     1      31.937  20.150  14.922  0.00  0.00    +0.165 A 
ATOM     21  F   UNL     1      30.993  20.009  13.978  0.00  0.00    -0.202 F 
ATOM     22  C   UNL     1      33.127  19.438  14.781  0.00  0.00    +0.047 A 
BRANCH  19  23
ATOM     23  O   UNL     1      30.487  21.565  16.120  0.00  0.00    -0.489 OA
BRANCH  23  24
ATOM     24  C   UNL     1      30.479  22.967  15.852  0.00  0.00    +0.232 C 
BRANCH  24  25
ATOM     25  C   UNL     1      30.181  23.194  14.404  0.00  0.00    +0.027 C 
ATOM     26  C   UNL     1      31.323  23.390  13.439  0.00  0.00    +0.007 C 
ATOM     27  C   UNL     1      30.422  24.546  13.781  0.00  0.00    +0.007 C 
ENDBRANCH  24  25
ENDBRANCH  23  24
ENDBRANCH  19  23
ENDBRANCH   1  16
TORSDOF 6
ENDMDL
MODEL 2
REMARK VINA RESULT:      -6.2      6.082      7.758
REMARK  Name = ZINC000543478179
REMARK  8 active torsions:
REMARK  status: ('A' for Active; 'I' for Inactive)
REMARK    1  A    between atoms: C_1  and  C_2
REMARK    2  A    between atoms: C_2  and  N_3
REMARK    3  A    between atoms: N_9  and  C_10
REMARK    4  A    between atoms: C_10  and  C_11
REMARK    5  A    between atoms: C_10  and  C_12
REMARK    6  A    between atoms: C_15  and  O_16
REMARK    7  A    between atoms: O_16  and  C_17
REMARK    8  A    between atoms: C_17  and  C_18
REMARK                            x       y       z     vdW  Elec       q    Type
REMARK                         _______ _______ _______ _____ _____    ______ ____
ROOT
ATOM      1  C   UNL     1      33.326  23.828   9.449  0.00  0.00    +0.102 C 
ATOM      2  C   UNL     1      32.170  24.747   9.045  0.00  0.00    +0.033 C 
ENDROOT
BRANCH   1   9
ATOM      3  N   UNL     1      37.361  20.981   7.169  0.00  0.00    -0.299 N 
ATOM      4  C   UNL     1      38.181  21.982   7.849  0.00  0.00    +0.127 C 
ATOM      5  C   UNL     1      37.589  23.388   7.715  0.00  0.00    +0.129 C 
ATOM      6  N   UNL     1      36.219  23.417   8.235  0.00  0.00    -0.275 N 
ATOM      7  C   UNL     1      35.838  24.441   9.055  0.00  0.00    +0.303 C 
ATOM      8  O   UNL     1      36.628  25.331   9.384  0.00  0.00    -0.253 OA
ATOM      9  N   UNL     1      34.593  24.545   9.570  0.00  0.00    -0.293 N 
ATOM     10  C   UNL     1      35.378  22.317   7.786  0.00  0.00    +0.205 C 
ATOM     11  C   UNL     1      36.001  21.155   7.013  0.00  0.00    +0.233 C 
ATOM     12  O   UNL     1      35.280  20.361   6.403  0.00  0.00    -0.274 OA
ATOM     13  H   UNL     1      34.560  25.367  10.160  0.00  0.00    +0.151 HD
BRANCH   3  15
ATOM     14  C   UNL     1      38.634  19.998   5.324  0.00  0.00    +0.024 C 
ATOM     15  C   UNL     1      37.978  19.765   6.673  0.00  0.00    +0.104 C 
ENDBRANCH   3  15
ENDBRANCH   1   9
BRANCH   1  16
ATOM     16  C   UNL     1      33.033  23.070  10.730  0.00  0.00    -0.024 A 
ATOM     17  C   UNL     1      32.103  23.539  11.665  0.00  0.00    +0.009 A 
ATOM     18  C   UNL     1      31.861  22.839  12.848  0.00  0.00    +0.049 A 
ATOM     19  C   UNL     1      32.578  21.671  13.141  0.00  0.00    +0.156 A 
ATOM     20  C   UNL     1      33.475  21.184  12.194  0.00  0.00    +0.165 A 
ATOM     21  F   UNL     1      34.151  20.046  12.419  0.00  0.00    -0.202 F 
ATOM     22  C   UNL     1      33.716  21.874  11.007  0.00  0.00    +0.047 A 
BRANCH  19  23
ATOM     23  O   UNL     1      32.464  20.968  14.308  0.00  0.00    -0.489 OA
BRANCH  23  24
ATOM     24  C   UNL     1      31.126  20.646  14.689  0.00  0.00    +0.232 C 
BRANCH  24  25
ATOM     25  C   UNL     1      30.817  21.287  16.005  0.00  0.00    +0.027 C 
ATOM     26  C   UNL     1      29.378  21.461  16.419  0.00  0.00    +0.007 C 
ATOM     27  C   UNL     1      30.204  22.664  16.055  0.00  0.00    +0.007 C 
ENDBRANCH  24  25
ENDBRANCH  23  24
ENDBRANCH  19  23
ENDBRANCH   1  16
TORSDOF 6
ENDMDL
MODEL 3
REMARK VINA RESULT:      -6.2      3.611      6.336
REMARK  Name = ZINC000543478179
REMARK  8 active torsions:
REMARK  status: ('A' for Active; 'I' for Inactive)
REMARK    1  A    between atoms: C_1  and  C_2
REMARK    2  A    between atoms: C_2  and  N_3
REMARK    3  A    between atoms: N_9  and  C_10
REMARK    4  A    between atoms: C_10  and  C_11
REMARK    5  A    between atoms: C_10  and  C_12
REMARK    6  A    between atoms: C_15  and  O_16
REMARK    7  A    between atoms: O_16  and  C_17
REMARK    8  A    between atoms: C_17  and  C_18
REMARK                            x       y       z     vdW  Elec       q    Type
REMARK                         _______ _______ _______ _____ _____    ______ ____
ROOT
ATOM      1  C   UNL     1      33.817  18.002  13.052  0.00  0.00    +0.102 C 
ATOM      2  C   UNL     1      34.141  16.564  12.643  0.00  0.00    +0.033 C 
ENDROOT
BRANCH   1   9
ATOM      3  N   UNL     1      31.291  22.261  15.302  0.00  0.00    -0.299 N 
ATOM      4  C   UNL     1      32.483  22.266  16.147  0.00  0.00    +0.127 C 
ATOM      5  C   UNL     1      32.885  20.850  16.572  0.00  0.00    +0.129 C 
ATOM      6  N   UNL     1      33.101  20.005  15.393  0.00  0.00    -0.275 N 
ATOM      7  C   UNL     1      34.206  19.204  15.341  0.00  0.00    +0.303 C 
ATOM      8  O   UNL     1      35.037  19.192  16.255  0.00  0.00    -0.253 OA
ATOM      9  N   UNL     1      34.475  18.392  14.296  0.00  0.00    -0.293 N 
ATOM     10  C   UNL     1      32.063  20.105  14.379  0.00  0.00    +0.205 C 
ATOM     11  C   UNL     1      30.982  21.178  14.504  0.00  0.00    +0.233 C 
ATOM     12  O   UNL     1      29.961  21.112  13.814  0.00  0.00    -0.274 OA
ATOM     13  H   UNL     1      35.353  17.920  14.477  0.00  0.00    +0.151 HD
BRANCH   3  15
ATOM     14  C   UNL     1      30.641  24.232  14.005  0.00  0.00    +0.024 C 
ATOM     15  C   UNL     1      30.427  23.427  15.274  0.00  0.00    +0.104 C 
ENDBRANCH   3  15
ENDBRANCH   1   9
BRANCH   1  16
ATOM     16  C   UNL     1      34.150  18.997  11.954  0.00  0.00    -0.024 A 
ATOM     17  C   UNL     1      35.136  19.975  12.123  0.00  0.00    +0.009 A 
ATOM     18  C   UNL     1      35.414  20.894  11.110  0.00  0.00    +0.049 A 
ATOM     19  C   UNL     1      34.680  20.880   9.917  0.00  0.00    +0.156 A 
ATOM     20  C   UNL     1      33.725  19.882   9.734  0.00  0.00    +0.165 A 
ATOM     21  F   UNL     1      33.029  19.809   8.588  0.00  0.00    -0.202 F 
ATOM     22  C   UNL     1      33.448  18.957  10.738  0.00  0.00    +0.047 A 
BRANCH  19  23
ATOM     23  O   UNL     1      34.829  21.789   8.908  0.00  0.00    -0.489 OA
BRANCH  23  24
ATOM     24  C   UNL     1      34.524  23.138   9.262  0.00  0.00    +0.232 C 
BRANCH  24  25
ATOM     25  C   UNL     1      33.051  23.272   9.485  0.00  0.00    +0.027 C 
ATOM     26  C   UNL     1      32.424  24.643   9.464  0.00  0.00    +0.007 C 
ATOM     27  C   UNL     1      32.526  23.885  10.759  0.00  0.00    +0.007 C 
ENDBRANCH  24  25
ENDBRANCH  23  24
ENDBRANCH  19  23
ENDBRANCH   1  16
TORSDOF 6
ENDMDL
MODEL 4
REMARK VINA RESULT:      -6.2      6.005      7.871
REMARK  Name = ZINC000543478179
REMARK  8 active torsions:
REMARK  status: ('A' for Active; 'I' for Inactive)
REMARK    1  A    between atoms: C_1  and  C_2
REMARK    2  A    between atoms: C_2  and  N_3
REMARK    3  A    between atoms: N_9  and  C_10
REMARK    4  A    between atoms: C_10  and  C_11
REMARK    5  A    between atoms: C_10  and  C_12
REMARK    6  A    between atoms: C_15  and  O_16
REMARK    7  A    between atoms: O_16  and  C_17
REMARK    8  A    between atoms: C_17  and  C_18
REMARK                            x       y       z     vdW  Elec       q    Type
REMARK                         _______ _______ _______ _____ _____    ______ ____
ROOT
ATOM      1  C   UNL     1      33.315  23.851   9.646  0.00  0.00    +0.102 C 
ATOM      2  C   UNL     1      32.221  24.654   8.939  0.00  0.00    +0.033 C 
ENDROOT
BRANCH   1   9
ATOM      3  N   UNL     1      37.264  21.017   7.204  0.00  0.00    -0.299 N 
ATOM      4  C   UNL     1      38.107  22.022   7.849  0.00  0.00    +0.127 C 
ATOM      5  C   UNL     1      37.504  23.426   7.738  0.00  0.00    +0.129 C 
ATOM      6  N   UNL     1      36.156  23.449   8.314  0.00  0.00    -0.275 N 
ATOM      7  C   UNL     1      35.805  24.473   9.148  0.00  0.00    +0.303 C 
ATOM      8  O   UNL     1      36.605  25.366   9.443  0.00  0.00    -0.253 OA
ATOM      9  N   UNL     1      34.583  24.572   9.714  0.00  0.00    -0.293 N 
ATOM     10  C   UNL     1      35.302  22.346   7.901  0.00  0.00    +0.205 C 
ATOM     11  C   UNL     1      35.897  21.185   7.105  0.00  0.00    +0.233 C 
ATOM     12  O   UNL     1      35.155  20.387   6.526  0.00  0.00    -0.274 OA
ATOM     13  H   UNL     1      34.571  25.395  10.304  0.00  0.00    +0.151 HD
BRANCH   3  15
ATOM     14  C   UNL     1      38.411  20.021   5.285  0.00  0.00    +0.024 C 
ATOM     15  C   UNL     1      37.864  19.802   6.684  0.00  0.00    +0.104 C 
ENDBRANCH   3  15
ENDBRANCH   1   9
BRANCH   1  16
ATOM     16  C   UNL     1      32.893  23.410  11.036  0.00  0.00    -0.024 A 
ATOM     17  C   UNL     1      33.305  22.186  11.576  0.00  0.00    +0.009 A 
ATOM     18  C   UNL     1      32.890  21.788  12.847  0.00  0.00    +0.049 A 
ATOM     19  C   UNL     1      32.017  22.591  13.593  0.00  0.00    +0.156 A 
ATOM     20  C   UNL     1      31.638  23.826  13.072  0.00  0.00    +0.165 A 
ATOM     21  F   UNL     1      30.836  24.643  13.774  0.00  0.00    -0.202 F 
ATOM     22  C   UNL     1      32.055  24.233  11.807  0.00  0.00    +0.047 A 
BRANCH  19  23
ATOM     23  O   UNL     1      31.498  22.244  14.809  0.00  0.00    -0.489 OA
BRANCH  23  24
ATOM     24  C   UNL     1      32.431  22.257  15.889  0.00  0.00    +0.232 C 
BRANCH  24  25
ATOM     25  C   UNL     1      32.465  20.907  16.531  0.00  0.00    +0.027 C 
ATOM     26  C   UNL     1      33.413  20.661  17.679  0.00  0.00    +0.007 C 
ATOM     27  C   UNL     1      33.661  20.007  16.347  0.00  0.00    +0.007 C 
ENDBRANCH  24  25
ENDBRANCH  23  24
ENDBRANCH  19  23
ENDBRANCH   1  16
TORSDOF 6
ENDMDL
MODEL 5
REMARK VINA RESULT:      -6.1      4.933      7.292
REMARK  Name = ZINC000543478179
REMARK  8 active torsions:
REMARK  status: ('A' for Active; 'I' for Inactive)
REMARK    1  A    between atoms: C_1  and  C_2
REMARK    2  A    between atoms: C_2  and  N_3
REMARK    3  A    between atoms: N_9  and  C_10
REMARK    4  A    between atoms: C_10  and  C_11
REMARK    5  A    between atoms: C_10  and  C_12
REMARK    6  A    between atoms: C_15  and  O_16
REMARK    7  A    between atoms: O_16  and  C_17
REMARK    8  A    between atoms: C_17  and  C_18
REMARK                            x       y       z     vdW  Elec       q    Type
REMARK                         _______ _______ _______ _____ _____    ______ ____
ROOT
ATOM      1  C   UNL     1      33.817  20.881  17.151  0.00  0.00    +0.102 C 
ATOM      2  C   UNL     1      34.164  19.455  17.586  0.00  0.00    +0.033 C 
ENDROOT
BRANCH   1   9
ATOM      3  N   UNL     1      32.938  23.605  12.525  0.00  0.00    -0.299 N 
ATOM      4  C   UNL     1      31.579  23.670  13.059  0.00  0.00    +0.127 C 
ATOM      5  C   UNL     1      31.143  22.336  13.672  0.00  0.00    +0.129 C 
ATOM      6  N   UNL     1      32.081  21.927  14.722  0.00  0.00    -0.275 N 
ATOM      7  C   UNL     1      31.591  21.468  15.911  0.00  0.00    +0.303 C 
ATOM      8  O   UNL     1      30.376  21.410  16.129  0.00  0.00    -0.253 OA
ATOM      9  N   UNL     1      32.386  21.065  16.926  0.00  0.00    -0.293 N 
ATOM     10  C   UNL     1      33.485  22.042  14.358  0.00  0.00    +0.205 C 
ATOM     11  C   UNL     1      33.875  22.740  13.055  0.00  0.00    +0.233 C 
ATOM     12  O   UNL     1      35.017  22.616  12.605  0.00  0.00    -0.274 OA
ATOM     13  H   UNL     1      31.797  20.791  17.704  0.00  0.00    +0.151 HD
BRANCH   3  15
ATOM     14  C   UNL     1      32.559  24.155  10.171  0.00  0.00    +0.024 C 
ATOM     15  C   UNL     1      33.327  24.484  11.438  0.00  0.00    +0.104 C 
ENDBRANCH   3  15
ENDBRANCH   1   9
BRANCH   1  16
ATOM     16  C   UNL     1      34.326  21.918  18.136  0.00  0.00    -0.024 A 
ATOM     17  C   UNL     1      34.739  21.566  19.426  0.00  0.00    +0.009 A 
ATOM     18  C   UNL     1      35.185  22.536  20.325  0.00  0.00    +0.049 A 
ATOM     19  C   UNL     1      35.188  23.890  19.964  0.00  0.00    +0.156 A 
ATOM     20  C   UNL     1      34.814  24.236  18.668  0.00  0.00    +0.165 A 
ATOM     21  F   UNL     1      34.843  25.518  18.271  0.00  0.00    -0.202 F 
ATOM     22  C   UNL     1      34.375  23.272  17.763  0.00  0.00    +0.047 A 
BRANCH  19  23
ATOM     23  O   UNL     1      35.531  24.912  20.805  0.00  0.00    -0.489 OA
BRANCH  23  24
ATOM     24  C   UNL     1      34.457  25.433  21.589  0.00  0.00    +0.232 C 
BRANCH  24  25
ATOM     25  C   UNL     1      34.205  26.855  21.202  0.00  0.00    +0.027 C 
ATOM     26  C   UNL     1      35.371  27.733  20.821  0.00  0.00    +0.007 C 
ATOM     27  C   UNL     1      34.637  27.979  22.111  0.00  0.00    +0.007 C 
ENDBRANCH  24  25
ENDBRANCH  23  24
ENDBRANCH  19  23
ENDBRANCH   1  16
TORSDOF 6
ENDMDL
MODEL 6
REMARK VINA RESULT:      -6.1      4.931      7.464
REMARK  Name = ZINC000543478179
REMARK  8 active torsions:
REMARK  status: ('A' for Active; 'I' for Inactive)
REMARK    1  A    between atoms: C_1  and  C_2
REMARK    2  A    between atoms: C_2  and  N_3
REMARK    3  A    between atoms: N_9  and  C_10
REMARK    4  A    between atoms: C_10  and  C_11
REMARK    5  A    between atoms: C_10  and  C_12
REMARK    6  A    between atoms: C_15  and  O_16
REMARK    7  A    between atoms: O_16  and  C_17
REMARK    8  A    between atoms: C_17  and  C_18
REMARK                            x       y       z     vdW  Elec       q    Type
REMARK                         _______ _______ _______ _____ _____    ______ ____
ROOT
ATOM      1  C   UNL     1      33.818  20.922  17.114  0.00  0.00    +0.102 C 
ATOM      2  C   UNL     1      34.178  19.491  17.521  0.00  0.00    +0.033 C 
ENDROOT
BRANCH   1   9
ATOM      3  N   UNL     1      32.935  23.636  12.483  0.00  0.00    -0.299 N 
ATOM      4  C   UNL     1      31.573  23.691  13.011  0.00  0.00    +0.127 C 
ATOM      5  C   UNL     1      31.146  22.354  13.623  0.00  0.00    +0.129 C 
ATOM      6  N   UNL     1      32.083  21.952  14.677  0.00  0.00    -0.275 N 
ATOM      7  C   UNL     1      31.592  21.490  15.865  0.00  0.00    +0.303 C 
ATOM      8  O   UNL     1      30.377  21.423  16.078  0.00  0.00    -0.253 OA
ATOM      9  N   UNL     1      32.386  21.094  16.884  0.00  0.00    -0.293 N 
ATOM     10  C   UNL     1      33.487  22.079  14.319  0.00  0.00    +0.205 C 
ATOM     11  C   UNL     1      33.877  22.779  13.017  0.00  0.00    +0.233 C 
ATOM     12  O   UNL     1      35.021  22.664  12.571  0.00  0.00    -0.274 OA
ATOM     13  H   UNL     1      31.796  20.817  17.659  0.00  0.00    +0.151 HD
BRANCH   3  15
ATOM     14  C   UNL     1      32.539  24.201  10.135  0.00  0.00    +0.024 C 
ATOM     15  C   UNL     1      33.321  24.517  11.397  0.00  0.00    +0.104 C 
ENDBRANCH   3  15
ENDBRANCH   1   9
BRANCH   1  16
ATOM     16  C   UNL     1      34.308  21.944  18.124  0.00  0.00    -0.024 A 
ATOM     17  C   UNL     1      34.766  21.563  19.391  0.00  0.00    +0.009 A 
ATOM     18  C   UNL     1      35.194  22.518  20.314  0.00  0.00    +0.049 A 
ATOM     19  C   UNL     1      35.134  23.884  20.003  0.00  0.00    +0.156 A 
ATOM     20  C   UNL     1      34.715  24.259  18.729  0.00  0.00    +0.165 A 
ATOM     21  F   UNL     1      34.683  25.555  18.379  0.00  0.00    -0.202 F 
ATOM     22  C   UNL     1      34.294  23.311  17.800  0.00  0.00    +0.047 A 
BRANCH  19  23
ATOM     23  O   UNL     1      35.455  24.888  20.873  0.00  0.00    -0.489 OA
BRANCH  23  24
ATOM     24  C   UNL     1      34.377  25.346  21.689  0.00  0.00    +0.232 C 
BRANCH  24  25
ATOM     25  C   UNL     1      34.609  24.920  23.104  0.00  0.00    +0.027 C 
ATOM     26  C   UNL     1      33.944  23.666  23.613  0.00  0.00    +0.007 C 
ATOM     27  C   UNL     1      33.497  25.011  24.118  0.00  0.00    +0.007 C 
ENDBRANCH  24  25
ENDBRANCH  23  24
ENDBRANCH  19  23
ENDBRANCH   1  16
TORSDOF 6
ENDMDL
MODEL 7
REMARK VINA RESULT:      -6.0      6.162      9.105
REMARK  Name = ZINC000543478179
REMARK  8 active torsions:
REMARK  status: ('A' for Active; 'I' for Inactive)
REMARK    1  A    between atoms: C_1  and  C_2
REMARK    2  A    between atoms: C_2  and  N_3
REMARK    3  A    between atoms: N_9  and  C_10
REMARK    4  A    between atoms: C_10  and  C_11
REMARK    5  A    between atoms: C_10  and  C_12
REMARK    6  A    between atoms: C_15  and  O_16
REMARK    7  A    between atoms: O_16  and  C_17
REMARK    8  A    between atoms: C_17  and  C_18
REMARK                            x       y       z     vdW  Elec       q    Type
REMARK                         _______ _______ _______ _____ _____    ______ ____
ROOT
ATOM      1  C   UNL     1      35.552  23.925  10.268  0.00  0.00    +0.102 C 
ATOM      2  C   UNL     1      35.774  23.151   8.967  0.00  0.00    +0.033 C 
ENDROOT
BRANCH   1   9
ATOM      3  N   UNL     1      37.008  26.380  14.898  0.00  0.00    -0.299 N 
ATOM      4  C   UNL     1      36.625  27.575  14.149  0.00  0.00    +0.127 C 
ATOM      5  C   UNL     1      37.127  27.525  12.703  0.00  0.00    +0.129 C 
ATOM      6  N   UNL     1      36.627  26.322  12.030  0.00  0.00    -0.275 N 
ATOM      7  C   UNL     1      36.109  26.430  10.771  0.00  0.00    +0.303 C 
ATOM      8  O   UNL     1      36.033  27.520  10.195  0.00  0.00    -0.253 OA
ATOM      9  N   UNL     1      35.633  25.371  10.080  0.00  0.00    -0.293 N 
ATOM     10  C   UNL     1      36.760  25.097  12.803  0.00  0.00    +0.205 C 
ATOM     11  C   UNL     1      37.197  25.168  14.266  0.00  0.00    +0.233 C 
ATOM     12  O   UNL     1      37.568  24.147  14.851  0.00  0.00    -0.274 OA
ATOM     13  H   UNL     1      35.285  25.702   9.188  0.00  0.00    +0.151 HD
BRANCH   3  15
ATOM     14  C   UNL     1      37.722  27.803  16.756  0.00  0.00    +0.024 C 
ATOM     15  C   UNL     1      37.163  26.455  16.339  0.00  0.00    +0.104 C 
ENDBRANCH   3  15
ENDBRANCH   1   9
BRANCH   1  16
ATOM     16  C   UNL     1      34.236  23.561  10.931  0.00  0.00    -0.024 A 
ATOM     17  C   UNL     1      33.114  24.394  10.846  0.00  0.00    +0.009 A 
ATOM     18  C   UNL     1      31.919  24.053  11.480  0.00  0.00    +0.049 A 
ATOM     19  C   UNL     1      31.831  22.885  12.249  0.00  0.00    +0.156 A 
ATOM     20  C   UNL     1      32.934  22.037  12.302  0.00  0.00    +0.165 A 
ATOM     21  F   UNL     1      32.876  20.888  12.994  0.00  0.00    -0.202 F 
ATOM     22  C   UNL     1      34.129  22.367  11.665  0.00  0.00    +0.047 A 
BRANCH  19  23
ATOM     23  O   UNL     1      30.728  22.515  12.967  0.00  0.00    -0.489 OA
BRANCH  23  24
ATOM     24  C   UNL     1      30.458  23.321  14.114  0.00  0.00    +0.232 C 
BRANCH  24  25
ATOM     25  C   UNL     1      30.794  22.551  15.352  0.00  0.00    +0.027 C 
ATOM     26  C   UNL     1      30.586  21.057  15.369  0.00  0.00    +0.007 C 
ATOM     27  C   UNL     1      29.698  21.948  16.194  0.00  0.00    +0.007 C 
ENDBRANCH  24  25
ENDBRANCH  23  24
ENDBRANCH  19  23
ENDBRANCH   1  16
TORSDOF 6
ENDMDL
MODEL 8
REMARK VINA RESULT:      -5.9      1.868      2.541
REMARK  Name = ZINC000543478179
REMARK  8 active torsions:
REMARK  status: ('A' for Active; 'I' for Inactive)
REMARK    1  A    between atoms: C_1  and  C_2
REMARK    2  A    between atoms: C_2  and  N_3
REMARK    3  A    between atoms: N_9  and  C_10
REMARK    4  A    between atoms: C_10  and  C_11
REMARK    5  A    between atoms: C_10  and  C_12
REMARK    6  A    between atoms: C_15  and  O_16
REMARK    7  A    between atoms: O_16  and  C_17
REMARK    8  A    between atoms: C_17  and  C_18
REMARK                            x       y       z     vdW  Elec       q    Type
REMARK                         _______ _______ _______ _____ _____    ______ ____
ROOT
ATOM      1  C   UNL     1      35.337  17.335  13.769  0.00  0.00    +0.102 C 
ATOM      2  C   UNL     1      36.511  18.002  13.049  0.00  0.00    +0.033 C 
ENDROOT
BRANCH   1   9
ATOM      3  N   UNL     1      32.917  12.682  12.326  0.00  0.00    -0.299 N 
ATOM      4  C   UNL     1      33.474  12.232  13.600  0.00  0.00    +0.127 C 
ATOM      5  C   UNL     1      34.907  12.732  13.803  0.00  0.00    +0.129 C 
ATOM      6  N   UNL     1      34.955  14.195  13.717  0.00  0.00    -0.275 N 
ATOM      7  C   UNL     1      35.663  14.895  14.651  0.00  0.00    +0.303 C 
ATOM      8  O   UNL     1      36.247  14.325  15.579  0.00  0.00    -0.253 OA
ATOM      9  N   UNL     1      35.763  16.242  14.639  0.00  0.00    -0.293 N 
ATOM     10  C   UNL     1      34.228  14.758  12.589  0.00  0.00    +0.205 C 
ATOM     11  C   UNL     1      33.338  13.856  11.735  0.00  0.00    +0.233 C 
ATOM     12  O   UNL     1      32.933  14.247  10.637  0.00  0.00    -0.274 OA
ATOM     13  H   UNL     1      36.316  16.528  15.438  0.00  0.00    +0.151 HD
BRANCH   3  15
ATOM     14  C   UNL     1      31.910  10.458  12.153  0.00  0.00    +0.024 C 
ATOM     15  C   UNL     1      31.880  11.900  11.679  0.00  0.00    +0.104 C 
ENDBRANCH   3  15
ENDBRANCH   1   9
BRANCH   1  16
ATOM     16  C   UNL     1      34.508  18.333  14.555  0.00  0.00    -0.024 A 
ATOM     17  C   UNL     1      33.585  19.178  13.928  0.00  0.00    +0.009 A 
ATOM     18  C   UNL     1      32.846  20.105  14.665  0.00  0.00    +0.049 A 
ATOM     19  C   UNL     1      33.044  20.234  16.046  0.00  0.00    +0.156 A 
ATOM     20  C   UNL     1      33.933  19.366  16.676  0.00  0.00    +0.165 A 
ATOM     21  F   UNL     1      34.120  19.431  18.004  0.00  0.00    -0.202 F 
ATOM     22  C   UNL     1      34.669  18.434  15.947  0.00  0.00    +0.047 A 
BRANCH  19  23
ATOM     23  O   UNL     1      32.424  21.166  16.831  0.00  0.00    -0.489 OA
BRANCH  23  24
ATOM     24  C   UNL     1      32.208  22.431  16.207  0.00  0.00    +0.232 C 
BRANCH  24  25
ATOM     25  C   UNL     1      30.743  22.729  16.182  0.00  0.00    +0.027 C 
ATOM     26  C   UNL     1      29.759  21.586  16.195  0.00  0.00    +0.007 C 
ATOM     27  C   UNL     1      29.924  22.418  14.954  0.00  0.00    +0.007 C 
ENDBRANCH  24  25
ENDBRANCH  23  24
ENDBRANCH  19  23
ENDBRANCH   1  16
TORSDOF 6
ENDMDL
MODEL 9
REMARK VINA RESULT:      -5.9      5.184      8.474
REMARK  Name = ZINC000543478179
REMARK  8 active torsions:
REMARK  status: ('A' for Active; 'I' for Inactive)
REMARK    1  A    between atoms: C_1  and  C_2
REMARK    2  A    between atoms: C_2  and  N_3
REMARK    3  A    between atoms: N_9  and  C_10
REMARK    4  A    between atoms: C_10  and  C_11
REMARK    5  A    between atoms: C_10  and  C_12
REMARK    6  A    between atoms: C_15  and  O_16
REMARK    7  A    between atoms: O_16  and  C_17
REMARK    8  A    between atoms: C_17  and  C_18
REMARK                            x       y       z     vdW  Elec       q    Type
REMARK                         _______ _______ _______ _____ _____    ______ ____
ROOT
ATOM      1  C   UNL     1      33.687  23.672  11.685  0.00  0.00    +0.102 C 
ATOM      2  C   UNL     1      33.961  25.173  11.566  0.00  0.00    +0.033 C 
ENDROOT
BRANCH   1   9
ATOM      3  N   UNL     1      33.460  20.875  16.345  0.00  0.00    -0.299 N 
ATOM      4  C   UNL     1      32.064  20.711  15.944  0.00  0.00    +0.127 C 
ATOM      5  C   UNL     1      31.475  22.011  15.389  0.00  0.00    +0.129 C 
ATOM      6  N   UNL     1      32.275  22.493  14.259  0.00  0.00    -0.275 N 
ATOM      7  C   UNL     1      31.640  22.919  13.127  0.00  0.00    +0.303 C 
ATOM      8  O   UNL     1      30.409  22.888  13.027  0.00  0.00    -0.253 OA
ATOM      9  N   UNL     1      32.302  23.383  12.044  0.00  0.00    -0.293 N 
ATOM     10  C   UNL     1      33.712  22.480  14.485  0.00  0.00    +0.205 C 
ATOM     11  C   UNL     1      34.275  21.808  15.737  0.00  0.00    +0.233 C 
ATOM     12  O   UNL     1      35.443  22.013  16.077  0.00  0.00    -0.274 OA
ATOM     13  H   UNL     1      31.622  23.614  11.330  0.00  0.00    +0.151 HD
BRANCH   3  15
ATOM     14  C   UNL     1      33.700  20.569  18.761  0.00  0.00    +0.024 C 
ATOM     15  C   UNL     1      34.014  20.022  17.380  0.00  0.00    +0.104 C 
ENDBRANCH   3  15
ENDBRANCH   1   9
BRANCH   1  16
ATOM     16  C   UNL     1      34.065  22.920  10.422  0.00  0.00    -0.024 A 
ATOM     17  C   UNL     1      35.226  23.228   9.702  0.00  0.00    +0.009 A 
ATOM     18  C   UNL     1      35.545  22.540   8.531  0.00  0.00    +0.049 A 
ATOM     19  C   UNL     1      34.686  21.553   8.030  0.00  0.00    +0.156 A 
ATOM     20  C   UNL     1      33.552  21.220   8.766  0.00  0.00    +0.165 A 
ATOM     21  F   UNL     1      32.725  20.252   8.340  0.00  0.00    -0.202 F 
ATOM     22  C   UNL     1      33.230  21.898   9.940  0.00  0.00    +0.047 A 
BRANCH  19  23
ATOM     23  O   UNL     1      34.880  20.888   6.851  0.00  0.00    -0.489 OA
BRANCH  23  24
ATOM     24  C   UNL     1      35.775  19.778   6.926  0.00  0.00    +0.232 C 
BRANCH  24  25
ATOM     25  C   UNL     1      36.328  19.495   5.565  0.00  0.00    +0.027 C 
ATOM     26  C   UNL     1      37.167  18.260   5.353  0.00  0.00    +0.007 C 
ATOM     27  C   UNL     1      37.809  19.619   5.305  0.00  0.00    +0.007 C 
ENDBRANCH  24  25
ENDBRANCH  23  24
ENDBRANCH  19  23
ENDBRANCH   1  16
TORSDOF 6
ENDMDL
