MODEL 1
REMARK VINA RESULT:      -6.6      0.000      0.000
REMARK  Name = ZINC000870248439
REMARK  2 active torsions:
REMARK  status: ('A' for Active; 'I' for Inactive)
REMARK    1  A    between atoms: C_2  and  C_4
REMARK    2  A    between atoms: C_7  and  C_8
REMARK                            x       y       z     vdW  Elec       q    Type
REMARK                         _______ _______ _______ _____ _____    ______ ____
ROOT
ATOM      1  C   UNL     1      30.890  22.134  15.538  0.00  0.00    +0.247 C 
ATOM      2  O   UNL     1      29.725  22.389  15.844  0.00  0.00    -0.270 OA
ATOM      3  N   UNL     1      31.633  22.908  14.636  0.00  0.00    -0.297 N 
ATOM      4  C   UNL     1      33.019  22.667  14.245  0.00  0.00    +0.108 C 
ATOM      5  C   UNL     1      33.863  23.924  14.206  0.00  0.00    +0.026 C 
ATOM      6  C   UNL     1      33.220  25.045  13.371  0.00  0.00    -0.025 C 
ATOM      7  C   UNL     1      34.054  26.327  13.598  0.00  0.00    +0.017 C 
ATOM      8  C   UNL     1      33.588  27.534  12.794  0.00  0.00    +0.069 C 
ATOM      9  S   UNL     1      33.637  27.238  11.004  0.00  0.00    -0.161 S 
ATOM     10  C   UNL     1      32.697  25.691  10.929  0.00  0.00    +0.069 C 
ATOM     11  C   UNL     1      33.272  24.647  11.873  0.00  0.00    +0.017 C 
ATOM     12  C   UNL     1      31.769  25.242  13.892  0.00  0.00    +0.026 C 
ATOM     13  C   UNL     1      30.948  23.953  13.885  0.00  0.00    +0.108 C 
ENDROOT
BRANCH   1  17
ATOM     14  C   UNL     1      33.064  18.903  17.291  0.00  0.00    +0.037 A 
ATOM     15  C   UNL     1      32.206  18.650  16.220  0.00  0.00    +0.014 A 
ATOM     16  C   UNL     1      31.410  19.674  15.724  0.00  0.00    +0.014 A 
ATOM     17  C   UNL     1      31.544  20.981  16.211  0.00  0.00    +0.037 A 
ATOM     18  C   UNL     1      32.353  21.222  17.326  0.00  0.00    +0.014 A 
ATOM     19  C   UNL     1      33.105  20.177  17.873  0.00  0.00    +0.014 A 
BRANCH  14  21
ATOM     20  N   UNL     1      35.035  18.205  18.526  0.00  0.00    -0.325 N 
ATOM     21  C   UNL     1      33.921  17.820  17.826  0.00  0.00    +0.242 C 
ATOM     22  O   UNL     1      33.632  16.641  17.675  0.00  0.00    -0.270 OA
ATOM     23  H   UNL     1      35.556  17.450  18.966  0.00  0.00    +0.145 HD
ATOM     24  H   UNL     1      35.151  19.132  18.896  0.00  0.00    +0.145 HD
ENDBRANCH  14  21
ENDBRANCH   1  17
TORSDOF 2
ENDMDL
MODEL 2
REMARK VINA RESULT:      -6.5      2.923      4.521
REMARK  Name = ZINC000870248439
REMARK  2 active torsions:
REMARK  status: ('A' for Active; 'I' for Inactive)
REMARK    1  A    between atoms: C_2  and  C_4
REMARK    2  A    between atoms: C_7  and  C_8
REMARK                            x       y       z     vdW  Elec       q    Type
REMARK                         _______ _______ _______ _____ _____    ______ ____
ROOT
ATOM      1  C   UNL     1      31.927  22.561  16.020  0.00  0.00    +0.247 C 
ATOM      2  O   UNL     1      32.708  21.686  16.395  0.00  0.00    -0.270 OA
ATOM      3  N   UNL     1      32.211  23.443  14.969  0.00  0.00    -0.297 N 
ATOM      4  C   UNL     1      31.322  24.488  14.468  0.00  0.00    +0.108 C 
ATOM      5  C   UNL     1      31.263  24.558  12.956  0.00  0.00    +0.026 C 
ATOM      6  C   UNL     1      32.657  24.636  12.311  0.00  0.00    -0.025 C 
ATOM      7  C   UNL     1      32.471  24.472  10.785  0.00  0.00    +0.017 C 
ATOM      8  C   UNL     1      33.756  24.582   9.975  0.00  0.00    +0.069 C 
ATOM      9  S   UNL     1      34.577  26.187  10.190  0.00  0.00    -0.161 S 
ATOM     10  C   UNL     1      34.646  26.249  11.999  0.00  0.00    +0.069 C 
ATOM     11  C   UNL     1      33.273  26.026  12.615  0.00  0.00    +0.017 C 
ATOM     12  C   UNL     1      33.504  23.464  12.883  0.00  0.00    +0.026 C 
ATOM     13  C   UNL     1      33.557  23.452  14.410  0.00  0.00    +0.108 C 
ENDROOT
BRANCH   1  17
ATOM     14  C   UNL     1      28.248  22.561  18.189  0.00  0.00    +0.037 A 
ATOM     15  C   UNL     1      28.402  21.700  17.102  0.00  0.00    +0.014 A 
ATOM     16  C   UNL     1      29.550  21.779  16.323  0.00  0.00    +0.014 A 
ATOM     17  C   UNL     1      30.600  22.633  16.686  0.00  0.00    +0.037 A 
ATOM     18  C   UNL     1      30.420  23.541  17.734  0.00  0.00    +0.014 A 
ATOM     19  C   UNL     1      29.236  23.512  18.478  0.00  0.00    +0.014 A 
BRANCH  14  21
ATOM     20  N   UNL     1      25.828  22.605  18.387  0.00  0.00    -0.325 N 
ATOM     21  C   UNL     1      27.032  22.484  19.030  0.00  0.00    +0.242 C 
ATOM     22  O   UNL     1      27.100  22.291  20.238  0.00  0.00    -0.270 OA
ATOM     23  H   UNL     1      25.006  22.454  18.966  0.00  0.00    +0.145 HD
ATOM     24  H   UNL     1      25.729  22.490  17.393  0.00  0.00    +0.145 HD
ENDBRANCH  14  21
ENDBRANCH   1  17
TORSDOF 2
ENDMDL
MODEL 3
REMARK VINA RESULT:      -6.5      3.830      7.669
REMARK  Name = ZINC000870248439
REMARK  2 active torsions:
REMARK  status: ('A' for Active; 'I' for Inactive)
REMARK    1  A    between atoms: C_2  and  C_4
REMARK    2  A    between atoms: C_7  and  C_8
REMARK                            x       y       z     vdW  Elec       q    Type
REMARK                         _______ _______ _______ _____ _____    ______ ____
ROOT
ATOM      1  C   UNL     1      31.363  23.152  14.379  0.00  0.00    +0.247 C 
ATOM      2  O   UNL     1      30.240  23.105  14.881  0.00  0.00    -0.270 OA
ATOM      3  N   UNL     1      32.219  22.046  14.311  0.00  0.00    -0.297 N 
ATOM      4  C   UNL     1      33.553  22.034  13.716  0.00  0.00    +0.108 C 
ATOM      5  C   UNL     1      33.820  20.816  12.855  0.00  0.00    +0.026 C 
ATOM      6  C   UNL     1      33.506  19.496  13.581  0.00  0.00    -0.025 C 
ATOM      7  C   UNL     1      33.598  18.361  12.536  0.00  0.00    +0.017 C 
ATOM      8  C   UNL     1      33.370  16.964  13.099  0.00  0.00    +0.069 C 
ATOM      9  S   UNL     1      34.571  16.529  14.389  0.00  0.00    -0.161 S 
ATOM     10  C   UNL     1      34.389  17.974  15.467  0.00  0.00    +0.069 C 
ATOM     11  C   UNL     1      34.564  19.271  14.692  0.00  0.00    +0.017 C 
ATOM     12  C   UNL     1      32.059  19.603  14.141  0.00  0.00    +0.026 C 
ATOM     13  C   UNL     1      31.847  20.830  15.025  0.00  0.00    +0.108 C 
ENDROOT
BRANCH   1  17
ATOM     14  C   UNL     1      32.858  26.664  12.462  0.00  0.00    +0.037 A 
ATOM     15  C   UNL     1      33.190  26.417  13.795  0.00  0.00    +0.014 A 
ATOM     16  C   UNL     1      32.612  25.340  14.456  0.00  0.00    +0.014 A 
ATOM     17  C   UNL     1      31.792  24.438  13.767  0.00  0.00    +0.037 A 
ATOM     18  C   UNL     1      31.406  24.720  12.452  0.00  0.00    +0.014 A 
ATOM     19  C   UNL     1      31.932  25.842  11.805  0.00  0.00    +0.014 A 
BRANCH  14  21
ATOM     20  N   UNL     1      33.473  29.012  12.392  0.00  0.00    -0.325 N 
ATOM     21  C   UNL     1      33.470  27.805  11.744  0.00  0.00    +0.242 C 
ATOM     22  O   UNL     1      33.976  27.668  10.637  0.00  0.00    -0.270 OA
ATOM     23  H   UNL     1      33.981  29.758  11.925  0.00  0.00    +0.145 HD
ATOM     24  H   UNL     1      33.321  29.097  13.383  0.00  0.00    +0.145 HD
ENDBRANCH  14  21
ENDBRANCH   1  17
TORSDOF 2
ENDMDL
MODEL 4
REMARK VINA RESULT:      -6.3      4.540      6.289
REMARK  Name = ZINC000870248439
REMARK  2 active torsions:
REMARK  status: ('A' for Active; 'I' for Inactive)
REMARK    1  A    between atoms: C_2  and  C_4
REMARK    2  A    between atoms: C_7  and  C_8
REMARK                            x       y       z     vdW  Elec       q    Type
REMARK                         _______ _______ _______ _____ _____    ______ ____
ROOT
ATOM      1  C   UNL     1      30.670  22.955  17.310  0.00  0.00    +0.247 C 
ATOM      2  O   UNL     1      29.492  23.282  17.160  0.00  0.00    -0.270 OA
ATOM      3  N   UNL     1      31.492  23.486  18.313  0.00  0.00    -0.297 N 
ATOM      4  C   UNL     1      32.888  23.128  18.551  0.00  0.00    +0.108 C 
ATOM      5  C   UNL     1      33.219  22.927  20.016  0.00  0.00    +0.026 C 
ATOM      6  C   UNL     1      32.775  24.112  20.891  0.00  0.00    -0.025 C 
ATOM      7  C   UNL     1      32.958  23.690  22.367  0.00  0.00    +0.017 C 
ATOM      8  C   UNL     1      32.617  24.774  23.382  0.00  0.00    +0.069 C 
ATOM      9  S   UNL     1      33.636  26.262  23.177  0.00  0.00    -0.161 S 
ATOM     10  C   UNL     1      33.369  26.568  21.411  0.00  0.00    +0.069 C 
ATOM     11  C   UNL     1      33.680  25.332  20.581  0.00  0.00    +0.017 C 
ATOM     12  C   UNL     1      31.274  24.383  20.587  0.00  0.00    +0.026 C 
ATOM     13  C   UNL     1      30.995  24.607  19.101  0.00  0.00    +0.108 C 
ENDROOT
BRANCH   1  17
ATOM     14  C   UNL     1      31.948  19.982  14.523  0.00  0.00    +0.037 A 
ATOM     15  C   UNL     1      31.289  19.590  15.688  0.00  0.00    +0.014 A 
ATOM     16  C   UNL     1      30.976  20.541  16.651  0.00  0.00    +0.014 A 
ATOM     17  C   UNL     1      31.213  21.901  16.412  0.00  0.00    +0.037 A 
ATOM     18  C   UNL     1      31.932  22.288  15.277  0.00  0.00    +0.014 A 
ATOM     19  C   UNL     1      32.310  21.323  14.337  0.00  0.00    +0.014 A 
BRANCH  14  21
ATOM     20  N   UNL     1      32.805  19.455  12.312  0.00  0.00    -0.325 N 
ATOM     21  C   UNL     1      32.283  18.979  13.486  0.00  0.00    +0.242 C 
ATOM     22  O   UNL     1      32.128  17.780  13.682  0.00  0.00    -0.270 OA
ATOM     23  H   UNL     1      33.117  18.746  11.653  0.00  0.00    +0.145 HD
ATOM     24  H   UNL     1      33.193  20.378  12.225  0.00  0.00    +0.145 HD
ENDBRANCH  14  21
ENDBRANCH   1  17
TORSDOF 2
ENDMDL
MODEL 5
REMARK VINA RESULT:      -6.2      4.387      6.131
REMARK  Name = ZINC000870248439
REMARK  2 active torsions:
REMARK  status: ('A' for Active; 'I' for Inactive)
REMARK    1  A    between atoms: C_2  and  C_4
REMARK    2  A    between atoms: C_7  and  C_8
REMARK                            x       y       z     vdW  Elec       q    Type
REMARK                         _______ _______ _______ _____ _____    ______ ____
ROOT
ATOM      1  C   UNL     1      30.296  23.003  17.219  0.00  0.00    +0.247 C 
ATOM      2  O   UNL     1      29.107  23.319  17.187  0.00  0.00    -0.270 OA
ATOM      3  N   UNL     1      31.201  23.516  18.158  0.00  0.00    -0.297 N 
ATOM      4  C   UNL     1      32.617  23.170  18.258  0.00  0.00    +0.108 C 
ATOM      5  C   UNL     1      33.082  22.933  19.680  0.00  0.00    +0.026 C 
ATOM      6  C   UNL     1      32.708  24.086  20.627  0.00  0.00    -0.025 C 
ATOM      7  C   UNL     1      33.029  23.625  22.067  0.00  0.00    +0.017 C 
ATOM      8  C   UNL     1      32.772  24.675  23.139  0.00  0.00    +0.069 C 
ATOM      9  S   UNL     1      33.751  26.183  22.887  0.00  0.00    -0.161 S 
ATOM     10  C   UNL     1      33.322  26.534  21.162  0.00  0.00    +0.069 C 
ATOM     11  C   UNL     1      33.568  25.326  20.271  0.00  0.00    +0.017 C 
ATOM     12  C   UNL     1      31.183  24.346  20.468  0.00  0.00    +0.026 C 
ATOM     13  C   UNL     1      30.767  24.609  19.022  0.00  0.00    +0.108 C 
ENDROOT
BRANCH   1  17
ATOM     14  C   UNL     1      31.942  20.044  14.617  0.00  0.00    +0.037 A 
ATOM     15  C   UNL     1      32.027  21.391  14.263  0.00  0.00    +0.014 A 
ATOM     16  C   UNL     1      31.392  22.346  15.046  0.00  0.00    +0.014 A 
ATOM     17  C   UNL     1      30.766  21.983  16.246  0.00  0.00    +0.037 A 
ATOM     18  C   UNL     1      30.623  20.629  16.567  0.00  0.00    +0.014 A 
ATOM     19  C   UNL     1      31.202  19.659  15.743  0.00  0.00    +0.014 A 
BRANCH  14  21
ATOM     20  N   UNL     1      32.787  19.303  12.463  0.00  0.00    -0.325 N 
ATOM     21  C   UNL     1      32.619  19.016  13.793  0.00  0.00    +0.242 C 
ATOM     22  O   UNL     1      33.033  17.974  14.283  0.00  0.00    -0.270 OA
ATOM     23  H   UNL     1      33.337  18.629  11.937  0.00  0.00    +0.145 HD
ATOM     24  H   UNL     1      32.711  20.236  12.095  0.00  0.00    +0.145 HD
ENDBRANCH  14  21
ENDBRANCH   1  17
TORSDOF 2
ENDMDL
MODEL 6
REMARK VINA RESULT:      -6.1      4.330      6.737
REMARK  Name = ZINC000870248439
REMARK  2 active torsions:
REMARK  status: ('A' for Active; 'I' for Inactive)
REMARK    1  A    between atoms: C_2  and  C_4
REMARK    2  A    between atoms: C_7  and  C_8
REMARK                            x       y       z     vdW  Elec       q    Type
REMARK                         _______ _______ _______ _____ _____    ______ ____
ROOT
ATOM      1  C   UNL     1      31.460  22.317  15.705  0.00  0.00    +0.247 C 
ATOM      2  O   UNL     1      32.076  23.321  15.347  0.00  0.00    -0.270 OA
ATOM      3  N   UNL     1      31.871  21.014  15.393  0.00  0.00    -0.297 N 
ATOM      4  C   UNL     1      31.194  19.785  15.799  0.00  0.00    +0.108 C 
ATOM      5  C   UNL     1      32.140  18.710  16.294  0.00  0.00    +0.026 C 
ATOM      6  C   UNL     1      33.289  18.432  15.309  0.00  0.00    -0.025 C 
ATOM      7  C   UNL     1      34.293  17.498  16.022  0.00  0.00    +0.017 C 
ATOM      8  C   UNL     1      35.476  17.069  15.164  0.00  0.00    +0.069 C 
ATOM      9  S   UNL     1      34.964  16.173  13.670  0.00  0.00    -0.161 S 
ATOM     10  C   UNL     1      33.757  17.354  13.012  0.00  0.00    +0.069 C 
ATOM     11  C   UNL     1      32.714  17.721  14.056  0.00  0.00    +0.017 C 
ATOM     12  C   UNL     1      33.958  19.794  14.973  0.00  0.00    +0.026 C 
ATOM     13  C   UNL     1      32.970  20.836  14.451  0.00  0.00    +0.108 C 
ENDROOT
BRANCH   1  17
ATOM     14  C   UNL     1      28.133  22.617  18.365  0.00  0.00    +0.037 A 
ATOM     15  C   UNL     1      27.998  21.896  17.179  0.00  0.00    +0.014 A 
ATOM     16  C   UNL     1      29.037  21.893  16.257  0.00  0.00    +0.014 A 
ATOM     17  C   UNL     1      30.258  22.511  16.558  0.00  0.00    +0.037 A 
ATOM     18  C   UNL     1      30.371  23.289  17.715  0.00  0.00    +0.014 A 
ATOM     19  C   UNL     1      29.301  23.350  18.613  0.00  0.00    +0.014 A 
BRANCH  14  21
ATOM     20  N   UNL     1      25.766  22.813  18.875  0.00  0.00    -0.325 N 
ATOM     21  C   UNL     1      27.034  22.624  19.358  0.00  0.00    +0.242 C 
ATOM     22  O   UNL     1      27.247  22.439  20.550  0.00  0.00    -0.270 OA
ATOM     23  H   UNL     1      25.019  22.719  19.558  0.00  0.00    +0.145 HD
ATOM     24  H   UNL     1      25.531  22.694  17.904  0.00  0.00    +0.145 HD
ENDBRANCH  14  21
ENDBRANCH   1  17
TORSDOF 2
ENDMDL
MODEL 7
REMARK VINA RESULT:      -6.0      4.006      7.442
REMARK  Name = ZINC000870248439
REMARK  2 active torsions:
REMARK  status: ('A' for Active; 'I' for Inactive)
REMARK    1  A    between atoms: C_2  and  C_4
REMARK    2  A    between atoms: C_7  and  C_8
REMARK                            x       y       z     vdW  Elec       q    Type
REMARK                         _______ _______ _______ _____ _____    ______ ____
ROOT
ATOM      1  C   UNL     1      30.961  23.347  14.663  0.00  0.00    +0.247 C 
ATOM      2  O   UNL     1      30.047  22.548  14.458  0.00  0.00    -0.270 OA
ATOM      3  N   UNL     1      31.486  23.600  15.937  0.00  0.00    -0.297 N 
ATOM      4  C   UNL     1      32.577  24.522  16.243  0.00  0.00    +0.108 C 
ATOM      5  C   UNL     1      33.587  23.959  17.221  0.00  0.00    +0.026 C 
ATOM      6  C   UNL     1      32.931  23.406  18.498  0.00  0.00    -0.025 C 
ATOM      7  C   UNL     1      34.028  22.665  19.297  0.00  0.00    +0.017 C 
ATOM      8  C   UNL     1      33.564  22.098  20.632  0.00  0.00    +0.069 C 
ATOM      9  S   UNL     1      32.935  23.381  21.752  0.00  0.00    -0.161 S 
ATOM     10  C   UNL     1      31.740  24.182  20.651  0.00  0.00    +0.069 C 
ATOM     11  C   UNL     1      32.386  24.591  19.336  0.00  0.00    +0.017 C 
ATOM     12  C   UNL     1      31.817  22.415  18.060  0.00  0.00    +0.026 C 
ATOM     13  C   UNL     1      30.806  23.036  17.097  0.00  0.00    +0.108 C 
ENDROOT
BRANCH   1  17
ATOM     14  C   UNL     1      32.916  25.452  11.503  0.00  0.00    +0.037 A 
ATOM     15  C   UNL     1      31.699  25.928  11.993  0.00  0.00    +0.014 A 
ATOM     16  C   UNL     1      31.004  25.185  12.938  0.00  0.00    +0.014 A 
ATOM     17  C   UNL     1      31.565  24.023  13.484  0.00  0.00    +0.037 A 
ATOM     18  C   UNL     1      32.750  23.510  12.947  0.00  0.00    +0.014 A 
ATOM     19  C   UNL     1      33.419  24.222  11.946  0.00  0.00    +0.014 A 
BRANCH  14  21
ATOM     20  N   UNL     1      34.178  25.548   9.430  0.00  0.00    -0.325 N 
ATOM     21  C   UNL     1      33.670  26.238  10.499  0.00  0.00    +0.242 C 
ATOM     22  O   UNL     1      33.806  27.450  10.606  0.00  0.00    -0.270 OA
ATOM     23  H   UNL     1      34.608  26.118   8.707  0.00  0.00    +0.145 HD
ATOM     24  H   UNL     1      33.859  24.629   9.175  0.00  0.00    +0.145 HD
ENDBRANCH  14  21
ENDBRANCH   1  17
TORSDOF 2
ENDMDL
MODEL 8
REMARK VINA RESULT:      -5.9      4.173      6.626
REMARK  Name = ZINC000870248439
REMARK  2 active torsions:
REMARK  status: ('A' for Active; 'I' for Inactive)
REMARK    1  A    between atoms: C_2  and  C_4
REMARK    2  A    between atoms: C_7  and  C_8
REMARK                            x       y       z     vdW  Elec       q    Type
REMARK                         _______ _______ _______ _____ _____    ______ ____
ROOT
ATOM      1  C   UNL     1      33.073  18.813  16.554  0.00  0.00    +0.247 C 
ATOM      2  O   UNL     1      32.866  17.798  17.219  0.00  0.00    -0.270 OA
ATOM      3  N   UNL     1      34.000  18.867  15.505  0.00  0.00    -0.297 N 
ATOM      4  C   UNL     1      34.279  20.033  14.671  0.00  0.00    +0.108 C 
ATOM      5  C   UNL     1      34.390  19.708  13.195  0.00  0.00    +0.026 C 
ATOM      6  C   UNL     1      35.370  18.556  12.914  0.00  0.00    -0.025 C 
ATOM      7  C   UNL     1      35.221  18.176  11.423  0.00  0.00    +0.017 C 
ATOM      8  C   UNL     1      36.167  17.080  10.952  0.00  0.00    +0.069 C 
ATOM      9  S   UNL     1      37.913  17.531  11.161  0.00  0.00    -0.161 S 
ATOM     10  C   UNL     1      37.892  18.011  12.908  0.00  0.00    +0.069 C 
ATOM     11  C   UNL     1      36.815  19.049  13.184  0.00  0.00    +0.017 C 
ATOM     12  C   UNL     1      34.962  17.362  13.821  0.00  0.00    +0.026 C 
ATOM     13  C   UNL     1      34.891  17.731  15.302  0.00  0.00    +0.108 C 
ENDROOT
BRANCH   1  17
ATOM     14  C   UNL     1      30.799  22.388  17.094  0.00  0.00    +0.037 A 
ATOM     15  C   UNL     1      32.069  22.292  17.663  0.00  0.00    +0.014 A 
ATOM     16  C   UNL     1      32.763  21.091  17.590  0.00  0.00    +0.014 A 
ATOM     17  C   UNL     1      32.250  20.015  16.854  0.00  0.00    +0.037 A 
ATOM     18  C   UNL     1      30.951  20.087  16.341  0.00  0.00    +0.014 A 
ATOM     19  C   UNL     1      30.221  21.272  16.473  0.00  0.00    +0.014 A 
BRANCH  14  21
ATOM     20  N   UNL     1      29.751  24.267  15.968  0.00  0.00    -0.325 N 
ATOM     21  C   UNL     1      30.050  23.664  17.161  0.00  0.00    +0.242 C 
ATOM     22  O   UNL     1      29.691  24.140  18.231  0.00  0.00    -0.270 OA
ATOM     23  H   UNL     1      29.156  25.089  16.031  0.00  0.00    +0.145 HD
ATOM     24  H   UNL     1      29.786  23.780  15.089  0.00  0.00    +0.145 HD
ENDBRANCH  14  21
ENDBRANCH   1  17
TORSDOF 2
ENDMDL
MODEL 9
REMARK VINA RESULT:      -5.9      3.920      5.531
REMARK  Name = ZINC000870248439
REMARK  2 active torsions:
REMARK  status: ('A' for Active; 'I' for Inactive)
REMARK    1  A    between atoms: C_2  and  C_4
REMARK    2  A    between atoms: C_7  and  C_8
REMARK                            x       y       z     vdW  Elec       q    Type
REMARK                         _______ _______ _______ _____ _____    ______ ____
ROOT
ATOM      1  C   UNL     1      34.305  19.415  13.855  0.00  0.00    +0.247 C 
ATOM      2  O   UNL     1      34.578  19.916  12.764  0.00  0.00    -0.270 OA
ATOM      3  N   UNL     1      33.538  20.068  14.828  0.00  0.00    -0.297 N 
ATOM      4  C   UNL     1      33.168  19.522  16.132  0.00  0.00    +0.108 C 
ATOM      5  C   UNL     1      31.721  19.772  16.503  0.00  0.00    +0.026 C 
ATOM      6  C   UNL     1      31.321  21.252  16.368  0.00  0.00    -0.025 C 
ATOM      7  C   UNL     1      29.788  21.336  16.549  0.00  0.00    +0.017 C 
ATOM      8  C   UNL     1      29.222  22.749  16.503  0.00  0.00    +0.069 C 
ATOM      9  S   UNL     1      29.918  23.819  17.794  0.00  0.00    -0.161 S 
ATOM     10  C   UNL     1      31.683  23.548  17.489  0.00  0.00    +0.069 C 
ATOM     11  C   UNL     1      32.024  22.065  17.486  0.00  0.00    +0.017 C 
ATOM     12  C   UNL     1      31.725  21.718  14.941  0.00  0.00    +0.026 C 
ATOM     13  C   UNL     1      33.199  21.472  14.624  0.00  0.00    +0.108 C 
ENDROOT
BRANCH   1  17
ATOM     14  C   UNL     1      35.377  15.398  14.833  0.00  0.00    +0.037 A 
ATOM     15  C   UNL     1      36.094  16.455  15.396  0.00  0.00    +0.014 A 
ATOM     16  C   UNL     1      35.826  17.756  14.991  0.00  0.00    +0.014 A 
ATOM     17  C   UNL     1      34.769  18.026  14.112  0.00  0.00    +0.037 A 
ATOM     18  C   UNL     1      34.095  16.965  13.497  0.00  0.00    +0.014 A 
ATOM     19  C   UNL     1      34.410  15.650  13.851  0.00  0.00    +0.014 A 
BRANCH  14  21
ATOM     20  N   UNL     1      36.685  13.821  16.138  0.00  0.00    -0.325 N 
ATOM     21  C   UNL     1      35.650  14.006  15.260  0.00  0.00    +0.242 C 
ATOM     22  O   UNL     1      34.963  13.071  14.868  0.00  0.00    -0.270 OA
ATOM     23  H   UNL     1      36.794  12.874  16.492  0.00  0.00    +0.145 HD
ATOM     24  H   UNL     1      37.079  14.572  16.679  0.00  0.00    +0.145 HD
ENDBRANCH  14  21
ENDBRANCH   1  17
TORSDOF 2
ENDMDL
