MODEL 1
REMARK VINA RESULT:      -6.7      0.000      0.000
REMARK  Name = ZINC000826139982
REMARK  4 active torsions:
REMARK  status: ('A' for Active; 'I' for Inactive)
REMARK    1  A    between atoms: C_2  and  C_4
REMARK    2  A    between atoms: C_8  and  C_10
REMARK    3  A    between atoms: C_14  and  S_15
REMARK    4  A    between atoms: S_15  and  C_16
REMARK                            x       y       z     vdW  Elec       q    Type
REMARK                         _______ _______ _______ _____ _____    ______ ____
ROOT
ATOM      1  C   UNL     1      30.988  21.273  15.399  0.00  0.00    +0.093 C 
ATOM      2  C   UNL     1      32.196  20.995  16.301  0.00  0.00    +0.033 C 
ATOM      3  C   UNL     1      33.268  21.981  15.856  0.00  0.00    +0.109 C 
ATOM      4  N   UNL     1      32.958  22.239  14.465  0.00  0.00    -0.297 N 
ATOM      5  C   UNL     1      33.937  22.641  13.565  0.00  0.00    +0.247 C 
ATOM      6  O   UNL     1      35.121  22.712  13.894  0.00  0.00    -0.270 OA
ATOM      7  C   UNL     1      31.520  22.145  14.269  0.00  0.00    +0.120 C 
ENDROOT
BRANCH   5   8
ATOM      8  C   UNL     1      33.594  22.932  12.134  0.00  0.00    +0.038 A 
ATOM      9  C   UNL     1      33.328  24.216  11.650  0.00  0.00    +0.013 A 
ATOM     10  C   UNL     1      32.894  24.415  10.340  0.00  0.00    +0.002 A 
ATOM     11  C   UNL     1      32.822  23.338   9.463  0.00  0.00    +0.015 A 
ATOM     12  C   UNL     1      33.217  22.064   9.883  0.00  0.00    +0.017 A 
ATOM     13  C   UNL     1      33.566  21.859  11.226  0.00  0.00    +0.028 A 
BRANCH  12  14
ATOM     14  S   UNL     1      33.240  20.697   8.742  0.00  0.00    -0.016 S 
BRANCH  14  15
ATOM     15  C   UNL     1      34.722  21.068   7.781  0.00  0.00    +0.448 C 
ATOM     16  F   UNL     1      35.822  21.306   8.533  0.00  0.00    -0.160 F 
ATOM     17  F   UNL     1      35.025  20.044   6.947  0.00  0.00    -0.160 F 
ATOM     18  F   UNL     1      34.527  22.166   7.009  0.00  0.00    -0.160 F 
ENDBRANCH  14  15
ENDBRANCH  12  14
ENDBRANCH   5   8
BRANCH   1  20
ATOM     19  N   UNL     1      29.737  23.271  15.987  0.00  0.00    -0.329 N 
ATOM     20  C   UNL     1      29.810  21.915  16.109  0.00  0.00    +0.215 C 
ATOM     21  O   UNL     1      29.001  21.315  16.801  0.00  0.00    -0.276 OA
ATOM     22  H   UNL     1      29.007  23.747  16.502  0.00  0.00    +0.145 HD
ATOM     23  H   UNL     1      30.419  23.824  15.488  0.00  0.00    +0.145 HD
ENDBRANCH   1  20
TORSDOF 4
ENDMDL
MODEL 2
REMARK VINA RESULT:      -6.1      3.730      4.196
REMARK  Name = ZINC000826139982
REMARK  4 active torsions:
REMARK  status: ('A' for Active; 'I' for Inactive)
REMARK    1  A    between atoms: C_2  and  C_4
REMARK    2  A    between atoms: C_8  and  C_10
REMARK    3  A    between atoms: C_14  and  S_15
REMARK    4  A    between atoms: S_15  and  C_16
REMARK                            x       y       z     vdW  Elec       q    Type
REMARK                         _______ _______ _______ _____ _____    ______ ____
ROOT
ATOM      1  C   UNL     1      30.430  21.760  14.526  0.00  0.00    +0.093 C 
ATOM      2  C   UNL     1      30.856  20.288  14.548  0.00  0.00    +0.033 C 
ATOM      3  C   UNL     1      32.329  20.287  14.163  0.00  0.00    +0.109 C 
ATOM      4  N   UNL     1      32.484  21.475  13.348  0.00  0.00    -0.297 N 
ATOM      5  C   UNL     1      33.487  21.575  12.392  0.00  0.00    +0.247 C 
ATOM      6  O   UNL     1      34.231  20.627  12.140  0.00  0.00    -0.270 OA
ATOM      7  C   UNL     1      31.554  22.495  13.806  0.00  0.00    +0.120 C 
ENDROOT
BRANCH   5   8
ATOM      8  C   UNL     1      33.651  22.823  11.576  0.00  0.00    +0.038 A 
ATOM      9  C   UNL     1      32.700  23.273  10.655  0.00  0.00    +0.013 A 
ATOM     10  C   UNL     1      32.959  24.370   9.834  0.00  0.00    +0.002 A 
ATOM     11  C   UNL     1      34.132  25.098   9.999  0.00  0.00    +0.015 A 
ATOM     12  C   UNL     1      35.036  24.752  11.007  0.00  0.00    +0.017 A 
ATOM     13  C   UNL     1      34.810  23.595  11.767  0.00  0.00    +0.028 A 
BRANCH  12  14
ATOM     14  S   UNL     1      36.487  25.740  11.307  0.00  0.00    -0.016 S 
BRANCH  14  15
ATOM     15  C   UNL     1      35.933  26.767  12.684  0.00  0.00    +0.448 C 
ATOM     16  F   UNL     1      34.607  27.041  12.669  0.00  0.00    -0.160 F 
ATOM     17  F   UNL     1      36.202  26.171  13.870  0.00  0.00    -0.160 F 
ATOM     18  F   UNL     1      36.581  27.958  12.681  0.00  0.00    -0.160 F 
ENDBRANCH  14  15
ENDBRANCH  12  14
ENDBRANCH   5   8
BRANCH   1  20
ATOM     19  N   UNL     1      28.943  22.002  16.431  0.00  0.00    -0.329 N 
ATOM     20  C   UNL     1      30.146  22.351  15.894  0.00  0.00    +0.215 C 
ATOM     21  O   UNL     1      30.878  23.133  16.482  0.00  0.00    -0.276 OA
ATOM     22  H   UNL     1      28.683  22.430  17.312  0.00  0.00    +0.145 HD
ATOM     23  H   UNL     1      28.269  21.418  15.958  0.00  0.00    +0.145 HD
ENDBRANCH   1  20
TORSDOF 4
ENDMDL
MODEL 3
REMARK VINA RESULT:      -6.0      5.212      7.444
REMARK  Name = ZINC000826139982
REMARK  4 active torsions:
REMARK  status: ('A' for Active; 'I' for Inactive)
REMARK    1  A    between atoms: C_2  and  C_4
REMARK    2  A    between atoms: C_8  and  C_10
REMARK    3  A    between atoms: C_14  and  S_15
REMARK    4  A    between atoms: S_15  and  C_16
REMARK                            x       y       z     vdW  Elec       q    Type
REMARK                         _______ _______ _______ _____ _____    ______ ____
ROOT
ATOM      1  C   UNL     1      34.017  22.622  10.454  0.00  0.00    +0.093 C 
ATOM      2  C   UNL     1      34.849  21.438   9.949  0.00  0.00    +0.033 C 
ATOM      3  C   UNL     1      34.193  20.200  10.544  0.00  0.00    +0.109 C 
ATOM      4  N   UNL     1      33.569  20.678  11.760  0.00  0.00    -0.297 N 
ATOM      5  C   UNL     1      33.329  19.831  12.835  0.00  0.00    +0.247 C 
ATOM      6  O   UNL     1      33.712  18.662  12.830  0.00  0.00    -0.270 OA
ATOM      7  C   UNL     1      33.152  22.058  11.574  0.00  0.00    +0.120 C 
ENDROOT
BRANCH   5   8
ATOM      8  C   UNL     1      32.656  20.336  14.077  0.00  0.00    +0.038 A 
ATOM      9  C   UNL     1      31.275  20.269  14.288  0.00  0.00    +0.013 A 
ATOM     10  C   UNL     1      30.689  20.864  15.405  0.00  0.00    +0.002 A 
ATOM     11  C   UNL     1      31.491  21.444  16.382  0.00  0.00    +0.015 A 
ATOM     12  C   UNL     1      32.883  21.401  16.262  0.00  0.00    +0.017 A 
ATOM     13  C   UNL     1      33.458  20.880  15.094  0.00  0.00    +0.028 A 
BRANCH  12  14
ATOM     14  S   UNL     1      33.927  22.037  17.557  0.00  0.00    -0.016 S 
BRANCH  14  15
ATOM     15  C   UNL     1      34.132  20.573  18.593  0.00  0.00    +0.448 C 
ATOM     16  F   UNL     1      35.419  20.291  18.902  0.00  0.00    -0.160 F 
ATOM     17  F   UNL     1      33.465  20.714  19.764  0.00  0.00    -0.160 F 
ATOM     18  F   UNL     1      33.625  19.478  17.976  0.00  0.00    -0.160 F 
ENDBRANCH  14  15
ENDBRANCH  12  14
ENDBRANCH   5   8
BRANCH   1  20
ATOM     19  N   UNL     1      33.410  22.863   8.115  0.00  0.00    -0.329 N 
ATOM     20  C   UNL     1      33.190  23.309   9.384  0.00  0.00    +0.215 C 
ATOM     21  O   UNL     1      32.421  24.238   9.585  0.00  0.00    -0.276 OA
ATOM     22  H   UNL     1      32.930  23.341   7.362  0.00  0.00    +0.145 HD
ATOM     23  H   UNL     1      34.086  22.149   7.884  0.00  0.00    +0.145 HD
ENDBRANCH   1  20
TORSDOF 4
ENDMDL
MODEL 4
REMARK VINA RESULT:      -6.0      2.327      3.077
REMARK  Name = ZINC000826139982
REMARK  4 active torsions:
REMARK  status: ('A' for Active; 'I' for Inactive)
REMARK    1  A    between atoms: C_2  and  C_4
REMARK    2  A    between atoms: C_8  and  C_10
REMARK    3  A    between atoms: C_14  and  S_15
REMARK    4  A    between atoms: S_15  and  C_16
REMARK                            x       y       z     vdW  Elec       q    Type
REMARK                         _______ _______ _______ _____ _____    ______ ____
ROOT
ATOM      1  C   UNL     1      31.070  21.339  15.475  0.00  0.00    +0.093 C 
ATOM      2  C   UNL     1      32.124  21.071  16.555  0.00  0.00    +0.033 C 
ATOM      3  C   UNL     1      33.466  21.331  15.885  0.00  0.00    +0.109 C 
ATOM      4  N   UNL     1      33.221  21.063  14.483  0.00  0.00    -0.297 N 
ATOM      5  C   UNL     1      34.245  20.674  13.628  0.00  0.00    +0.247 C 
ATOM      6  O   UNL     1      35.384  20.461  14.044  0.00  0.00    -0.270 OA
ATOM      7  C   UNL     1      31.844  21.401  14.163  0.00  0.00    +0.120 C 
ENDROOT
BRANCH   5   8
ATOM      8  C   UNL     1      33.980  20.426  12.172  0.00  0.00    +0.038 A 
ATOM      9  C   UNL     1      33.675  19.167  11.647  0.00  0.00    +0.013 A 
ATOM     10  C   UNL     1      33.560  18.971  10.271  0.00  0.00    +0.002 A 
ATOM     11  C   UNL     1      33.644  20.057   9.407  0.00  0.00    +0.015 A 
ATOM     12  C   UNL     1      33.810  21.348   9.917  0.00  0.00    +0.017 A 
ATOM     13  C   UNL     1      34.013  21.523  11.294  0.00  0.00    +0.028 A 
BRANCH  12  14
ATOM     14  S   UNL     1      33.805  22.762   8.835  0.00  0.00    -0.016 S 
BRANCH  14  15
ATOM     15  C   UNL     1      32.764  23.909   9.762  0.00  0.00    +0.448 C 
ATOM     16  F   UNL     1      31.944  24.658   8.988  0.00  0.00    -0.160 F 
ATOM     17  F   UNL     1      31.980  23.244  10.644  0.00  0.00    -0.160 F 
ATOM     18  F   UNL     1      33.527  24.772  10.478  0.00  0.00    -0.160 F 
ENDBRANCH  14  15
ENDBRANCH  12  14
ENDBRANCH   5   8
BRANCH   1  20
ATOM     19  N   UNL     1      29.163  22.416  16.526  0.00  0.00    -0.329 N 
ATOM     20  C   UNL     1      30.240  22.588  15.706  0.00  0.00    +0.215 C 
ATOM     21  O   UNL     1      30.441  23.669  15.173  0.00  0.00    -0.276 OA
ATOM     22  H   UNL     1      28.543  23.206  16.652  0.00  0.00    +0.145 HD
ATOM     23  H   UNL     1      28.910  21.529  16.935  0.00  0.00    +0.145 HD
ENDBRANCH   1  20
TORSDOF 4
ENDMDL
MODEL 5
REMARK VINA RESULT:      -6.0      4.074      5.586
REMARK  Name = ZINC000826139982
REMARK  4 active torsions:
REMARK  status: ('A' for Active; 'I' for Inactive)
REMARK    1  A    between atoms: C_2  and  C_4
REMARK    2  A    between atoms: C_8  and  C_10
REMARK    3  A    between atoms: C_14  and  S_15
REMARK    4  A    between atoms: S_15  and  C_16
REMARK                            x       y       z     vdW  Elec       q    Type
REMARK                         _______ _______ _______ _____ _____    ______ ____
ROOT
ATOM      1  C   UNL     1      35.837  19.040  17.360  0.00  0.00    +0.093 C 
ATOM      2  C   UNL     1      36.541  20.119  18.191  0.00  0.00    +0.033 C 
ATOM      3  C   UNL     1      35.452  21.114  18.567  0.00  0.00    +0.109 C 
ATOM      4  N   UNL     1      34.477  20.994  17.502  0.00  0.00    -0.297 N 
ATOM      5  C   UNL     1      33.627  22.043  17.173  0.00  0.00    +0.247 C 
ATOM      6  O   UNL     1      33.725  23.143  17.716  0.00  0.00    -0.270 OA
ATOM      7  C   UNL     1      34.477  19.628  17.005  0.00  0.00    +0.120 C 
ENDROOT
BRANCH   5   8
ATOM      8  C   UNL     1      32.605  21.893  16.086  0.00  0.00    +0.038 A 
ATOM      9  C   UNL     1      31.269  21.555  16.325  0.00  0.00    +0.013 A 
ATOM     10  C   UNL     1      30.391  21.307  15.270  0.00  0.00    +0.002 A 
ATOM     11  C   UNL     1      30.812  21.499  13.959  0.00  0.00    +0.015 A 
ATOM     12  C   UNL     1      32.101  21.971  13.698  0.00  0.00    +0.017 A 
ATOM     13  C   UNL     1      33.004  22.131  14.760  0.00  0.00    +0.028 A 
BRANCH  12  14
ATOM     14  S   UNL     1      32.619  22.331  12.032  0.00  0.00    -0.016 S 
BRANCH  14  15
ATOM     15  C   UNL     1      32.412  24.124  11.981  0.00  0.00    +0.448 C 
ATOM     16  F   UNL     1      33.521  24.818  12.328  0.00  0.00    -0.160 F 
ATOM     17  F   UNL     1      32.060  24.533  10.738  0.00  0.00    -0.160 F 
ATOM     18  F   UNL     1      31.423  24.514  12.823  0.00  0.00    -0.160 F 
ENDBRANCH  14  15
ENDBRANCH  12  14
ENDBRANCH   5   8
BRANCH   1  20
ATOM     19  N   UNL     1      36.808  17.323  18.777  0.00  0.00    -0.329 N 
ATOM     20  C   UNL     1      35.715  17.696  18.052  0.00  0.00    +0.215 C 
ATOM     21  O   UNL     1      34.759  16.941  17.948  0.00  0.00    -0.276 OA
ATOM     22  H   UNL     1      36.796  16.402  19.199  0.00  0.00    +0.145 HD
ATOM     23  H   UNL     1      37.651  17.875  18.839  0.00  0.00    +0.145 HD
ENDBRANCH   1  20
TORSDOF 4
ENDMDL
MODEL 6
REMARK VINA RESULT:      -6.0      4.834      7.703
REMARK  Name = ZINC000826139982
REMARK  4 active torsions:
REMARK  status: ('A' for Active; 'I' for Inactive)
REMARK    1  A    between atoms: C_2  and  C_4
REMARK    2  A    between atoms: C_8  and  C_10
REMARK    3  A    between atoms: C_14  and  S_15
REMARK    4  A    between atoms: S_15  and  C_16
REMARK                            x       y       z     vdW  Elec       q    Type
REMARK                         _______ _______ _______ _____ _____    ______ ____
ROOT
ATOM      1  C   UNL     1      36.595  22.430   7.386  0.00  0.00    +0.093 C 
ATOM      2  C   UNL     1      36.488  20.965   6.946  0.00  0.00    +0.033 C 
ATOM      3  C   UNL     1      35.047  20.563   7.229  0.00  0.00    +0.109 C 
ATOM      4  N   UNL     1      34.644  21.425   8.320  0.00  0.00    -0.297 N 
ATOM      5  C   UNL     1      33.640  21.055   9.207  0.00  0.00    +0.247 C 
ATOM      6  O   UNL     1      33.111  19.946   9.152  0.00  0.00    -0.270 OA
ATOM      7  C   UNL     1      35.340  22.697   8.208  0.00  0.00    +0.120 C 
ENDROOT
BRANCH   5   8
ATOM      8  C   UNL     1      33.216  21.973  10.316  0.00  0.00    +0.038 A 
ATOM      9  C   UNL     1      32.758  23.277  10.105  0.00  0.00    +0.013 A 
ATOM     10  C   UNL     1      32.494  24.128  11.178  0.00  0.00    +0.002 A 
ATOM     11  C   UNL     1      32.584  23.649  12.480  0.00  0.00    +0.015 A 
ATOM     12  C   UNL     1      32.905  22.309  12.714  0.00  0.00    +0.017 A 
ATOM     13  C   UNL     1      33.255  21.486  11.634  0.00  0.00    +0.028 A 
BRANCH  12  14
ATOM     14  S   UNL     1      32.913  21.651  14.369  0.00  0.00    -0.016 S 
BRANCH  14  15
ATOM     15  C   UNL     1      31.310  20.821  14.424  0.00  0.00    +0.448 C 
ATOM     16  F   UNL     1      30.332  21.466  13.745  0.00  0.00    -0.160 F 
ATOM     17  F   UNL     1      31.395  19.572  13.906  0.00  0.00    -0.160 F 
ATOM     18  F   UNL     1      30.883  20.694  15.704  0.00  0.00    -0.160 F 
ENDBRANCH  14  15
ENDBRANCH  12  14
ENDBRANCH   5   8
BRANCH   1  20
ATOM     19  N   UNL     1      37.116  24.676   6.621  0.00  0.00    -0.329 N 
ATOM     20  C   UNL     1      36.751  23.417   6.245  0.00  0.00    +0.215 C 
ATOM     21  O   UNL     1      36.517  23.170   5.071  0.00  0.00    -0.276 OA
ATOM     22  H   UNL     1      37.164  25.383   5.898  0.00  0.00    +0.145 HD
ATOM     23  H   UNL     1      37.252  24.953   7.582  0.00  0.00    +0.145 HD
ENDBRANCH   1  20
TORSDOF 4
ENDMDL
MODEL 7
REMARK VINA RESULT:      -5.9      2.054      2.786
REMARK  Name = ZINC000826139982
REMARK  4 active torsions:
REMARK  status: ('A' for Active; 'I' for Inactive)
REMARK    1  A    between atoms: C_2  and  C_4
REMARK    2  A    between atoms: C_8  and  C_10
REMARK    3  A    between atoms: C_14  and  S_15
REMARK    4  A    between atoms: S_15  and  C_16
REMARK                            x       y       z     vdW  Elec       q    Type
REMARK                         _______ _______ _______ _____ _____    ______ ____
ROOT
ATOM      1  C   UNL     1      33.172  21.247  16.351  0.00  0.00    +0.093 C 
ATOM      2  C   UNL     1      31.683  21.367  16.693  0.00  0.00    +0.033 C 
ATOM      3  C   UNL     1      30.955  21.324  15.356  0.00  0.00    +0.109 C 
ATOM      4  N   UNL     1      31.921  21.842  14.410  0.00  0.00    -0.297 N 
ATOM      5  C   UNL     1      31.523  22.451  13.226  0.00  0.00    +0.247 C 
ATOM      6  O   UNL     1      30.335  22.649  12.973  0.00  0.00    -0.270 OA
ATOM      7  C   UNL     1      33.261  21.487  14.849  0.00  0.00    +0.120 C 
ENDROOT
BRANCH   5   8
ATOM      8  C   UNL     1      32.537  22.957  12.242  0.00  0.00    +0.038 A 
ATOM      9  C   UNL     1      32.864  24.309  12.099  0.00  0.00    +0.013 A 
ATOM     10  C   UNL     1      33.721  24.737  11.086  0.00  0.00    +0.002 A 
ATOM     11  C   UNL     1      34.346  23.804  10.267  0.00  0.00    +0.015 A 
ATOM     12  C   UNL     1      34.144  22.437  10.479  0.00  0.00    +0.017 A 
ATOM     13  C   UNL     1      33.212  22.021  11.441  0.00  0.00    +0.028 A 
BRANCH  12  14
ATOM     14  S   UNL     1      35.024  21.226   9.515  0.00  0.00    -0.016 S 
BRANCH  14  15
ATOM     15  C   UNL     1      33.857  20.935   8.169  0.00  0.00    +0.448 C 
ATOM     16  F   UNL     1      33.319  22.064   7.650  0.00  0.00    -0.160 F 
ATOM     17  F   UNL     1      34.453  20.275   7.147  0.00  0.00    -0.160 F 
ATOM     18  F   UNL     1      32.824  20.165   8.592  0.00  0.00    -0.160 F 
ENDBRANCH  14  15
ENDBRANCH  12  14
ENDBRANCH   5   8
BRANCH   1  20
ATOM     19  N   UNL     1      34.188  19.133  15.717  0.00  0.00    -0.329 N 
ATOM     20  C   UNL     1      33.804  19.929  16.756  0.00  0.00    +0.215 C 
ATOM     21  O   UNL     1      33.924  19.537  17.907  0.00  0.00    -0.276 OA
ATOM     22  H   UNL     1      34.551  18.215  15.942  0.00  0.00    +0.145 HD
ATOM     23  H   UNL     1      34.047  19.376  14.747  0.00  0.00    +0.145 HD
ENDBRANCH   1  20
TORSDOF 4
ENDMDL
MODEL 8
REMARK VINA RESULT:      -5.9      1.365      2.062
REMARK  Name = ZINC000826139982
REMARK  4 active torsions:
REMARK  status: ('A' for Active; 'I' for Inactive)
REMARK    1  A    between atoms: C_2  and  C_4
REMARK    2  A    between atoms: C_8  and  C_10
REMARK    3  A    between atoms: C_14  and  S_15
REMARK    4  A    between atoms: S_15  and  C_16
REMARK                            x       y       z     vdW  Elec       q    Type
REMARK                         _______ _______ _______ _____ _____    ______ ____
ROOT
ATOM      1  C   UNL     1      31.177  21.108  15.844  0.00  0.00    +0.093 C 
ATOM      2  C   UNL     1      32.327  21.542  16.760  0.00  0.00    +0.033 C 
ATOM      3  C   UNL     1      33.373  22.150  15.835  0.00  0.00    +0.109 C 
ATOM      4  N   UNL     1      33.154  21.486  14.566  0.00  0.00    -0.297 N 
ATOM      5  C   UNL     1      34.174  21.348  13.633  0.00  0.00    +0.247 C 
ATOM      6  O   UNL     1      35.324  21.710  13.880  0.00  0.00    -0.270 OA
ATOM      7  C   UNL     1      31.743  21.163  14.431  0.00  0.00    +0.120 C 
ENDROOT
BRANCH   5   8
ATOM      8  C   UNL     1      33.924  20.682  12.312  0.00  0.00    +0.038 A 
ATOM      9  C   UNL     1      33.723  19.306  12.167  0.00  0.00    +0.013 A 
ATOM     10  C   UNL     1      33.619  18.724  10.905  0.00  0.00    +0.002 A 
ATOM     11  C   UNL     1      33.608  19.528   9.770  0.00  0.00    +0.015 A 
ATOM     12  C   UNL     1      33.668  20.919   9.895  0.00  0.00    +0.017 A 
ATOM     13  C   UNL     1      33.862  21.488  11.162  0.00  0.00    +0.028 A 
BRANCH  12  14
ATOM     14  S   UNL     1      33.541  21.968   8.462  0.00  0.00    -0.016 S 
BRANCH  14  15
ATOM     15  C   UNL     1      35.038  21.513   7.561  0.00  0.00    +0.448 C 
ATOM     16  F   UNL     1      36.097  21.234   8.357  0.00  0.00    -0.160 F 
ATOM     17  F   UNL     1      34.824  20.421   6.789  0.00  0.00    -0.160 F 
ATOM     18  F   UNL     1      35.420  22.517   6.734  0.00  0.00    -0.160 F 
ENDBRANCH  14  15
ENDBRANCH  12  14
ENDBRANCH   5   8
BRANCH   1  20
ATOM     19  N   UNL     1      29.933  23.128  15.319  0.00  0.00    -0.329 N 
ATOM     20  C   UNL     1      29.915  21.939  15.987  0.00  0.00    +0.215 C 
ATOM     21  O   UNL     1      28.958  21.640  16.684  0.00  0.00    -0.276 OA
ATOM     22  H   UNL     1      29.140  23.744  15.443  0.00  0.00    +0.145 HD
ATOM     23  H   UNL     1      30.726  23.456  14.787  0.00  0.00    +0.145 HD
ENDBRANCH   1  20
TORSDOF 4
ENDMDL
MODEL 9
REMARK VINA RESULT:      -5.9      2.659      3.369
REMARK  Name = ZINC000826139982
REMARK  4 active torsions:
REMARK  status: ('A' for Active; 'I' for Inactive)
REMARK    1  A    between atoms: C_2  and  C_4
REMARK    2  A    between atoms: C_8  and  C_10
REMARK    3  A    between atoms: C_14  and  S_15
REMARK    4  A    between atoms: S_15  and  C_16
REMARK                            x       y       z     vdW  Elec       q    Type
REMARK                         _______ _______ _______ _____ _____    ______ ____
ROOT
ATOM      1  C   UNL     1      30.872  21.250  14.982  0.00  0.00    +0.093 C 
ATOM      2  C   UNL     1      31.559  21.129  16.347  0.00  0.00    +0.033 C 
ATOM      3  C   UNL     1      33.047  21.014  16.041  0.00  0.00    +0.109 C 
ATOM      4  N   UNL     1      33.093  20.424  14.720  0.00  0.00    -0.297 N 
ATOM      5  C   UNL     1      34.189  19.685  14.292  0.00  0.00    +0.247 C 
ATOM      6  O   UNL     1      35.127  19.432  15.048  0.00  0.00    -0.270 OA
ATOM      7  C   UNL     1      31.931  20.856  13.960  0.00  0.00    +0.120 C 
ENDROOT
BRANCH   5   8
ATOM      8  C   UNL     1      34.234  19.104  12.910  0.00  0.00    +0.038 A 
ATOM      9  C   UNL     1      33.921  17.772  12.622  0.00  0.00    +0.013 A 
ATOM     10  C   UNL     1      34.099  17.252  11.341  0.00  0.00    +0.002 A 
ATOM     11  C   UNL     1      34.492  18.089  10.302  0.00  0.00    +0.015 A 
ATOM     12  C   UNL     1      34.677  19.455  10.534  0.00  0.00    +0.017 A 
ATOM     13  C   UNL     1      34.583  19.950  11.843  0.00  0.00    +0.028 A 
BRANCH  12  14
ATOM     14  S   UNL     1      35.069  20.561   9.195  0.00  0.00    -0.016 S 
BRANCH  14  15
ATOM     15  C   UNL     1      33.423  21.120   8.708  0.00  0.00    +0.448 C 
ATOM     16  F   UNL     1      32.604  20.126   8.290  0.00  0.00    -0.160 F 
ATOM     17  F   UNL     1      32.800  21.740   9.739  0.00  0.00    -0.160 F 
ATOM     18  F   UNL     1      33.505  22.017   7.695  0.00  0.00    -0.160 F 
ENDBRANCH  14  15
ENDBRANCH  12  14
ENDBRANCH   5   8
BRANCH   1  20
ATOM     19  N   UNL     1      30.001  23.365  15.802  0.00  0.00    -0.329 N 
ATOM     20  C   UNL     1      30.284  22.619  14.696  0.00  0.00    +0.215 C 
ATOM     21  O   UNL     1      30.007  23.041  13.583  0.00  0.00    -0.276 OA
ATOM     22  H   UNL     1      29.543  24.257  15.659  0.00  0.00    +0.145 HD
ATOM     23  H   UNL     1      30.142  23.037  16.746  0.00  0.00    +0.145 HD
ENDBRANCH   1  20
TORSDOF 4
ENDMDL
