MODEL 1
REMARK VINA RESULT:      -6.5      0.000      0.000
REMARK  Name = ZINC000583127796
REMARK  2 active torsions:
REMARK  status: ('A' for Active; 'I' for Inactive)
REMARK    1  A    between atoms: C_2  and  C_4
REMARK    2  A    between atoms: C_7  and  C_8
REMARK                            x       y       z     vdW  Elec       q    Type
REMARK                         _______ _______ _______ _____ _____    ______ ____
ROOT
ATOM      1  C   UNL     1      32.757  18.829  14.604  0.00  0.00    +0.247 C 
ATOM      2  O   UNL     1      33.790  18.670  15.253  0.00  0.00    -0.270 OA
ATOM      3  N   UNL     1      31.918  19.943  14.776  0.00  0.00    -0.297 N 
ATOM      4  C   UNL     1      30.678  20.219  14.047  0.00  0.00    +0.108 C 
ATOM      5  C   UNL     1      30.686  21.587  13.389  0.00  0.00    +0.020 C 
ATOM      6  C   UNL     1      31.074  22.676  14.372  0.00  0.00    +0.011 C 
ATOM      7  C   UNL     1      32.397  22.373  15.118  0.00  0.00    -0.004 C 
ATOM      8  C   UNL     1      32.590  23.490  16.166  0.00  0.00    +0.020 C 
ATOM      9  C   UNL     1      34.057  23.619  16.514  0.00  0.00    +0.070 C 
ATOM     10  S   UNL     1      34.900  23.437  14.934  0.00  0.00    -0.160 S 
ATOM     11  C   UNL     1      33.608  22.426  14.158  0.00  0.00    +0.077 C 
ATOM     12  C   UNL     1      32.290  20.965  15.768  0.00  0.00    +0.115 C 
ENDROOT
BRANCH   1  16
ATOM     13  C   UNL     1      32.070  15.706  11.763  0.00  0.00    +0.037 A 
ATOM     14  C   UNL     1      33.126  16.600  11.553  0.00  0.00    +0.014 A 
ATOM     15  C   UNL     1      33.293  17.693  12.407  0.00  0.00    +0.014 A 
ATOM     16  C   UNL     1      32.472  17.838  13.530  0.00  0.00    +0.037 A 
ATOM     17  C   UNL     1      31.355  17.004  13.678  0.00  0.00    +0.014 A 
ATOM     18  C   UNL     1      31.148  15.947  12.788  0.00  0.00    +0.014 A 
BRANCH  13  20
ATOM     19  N   UNL     1      30.803  14.450  10.111  0.00  0.00    -0.325 N 
ATOM     20  C   UNL     1      31.906  14.496  10.917  0.00  0.00    +0.242 C 
ATOM     21  O   UNL     1      32.745  13.609  10.904  0.00  0.00    -0.270 OA
ATOM     22  H   UNL     1      30.772  13.683   9.449  0.00  0.00    +0.145 HD
ATOM     23  H   UNL     1      30.257  15.273   9.897  0.00  0.00    +0.145 HD
ENDBRANCH  13  20
ENDBRANCH   1  16
TORSDOF 2
ENDMDL
MODEL 2
REMARK VINA RESULT:      -6.3      4.510      7.411
REMARK  Name = ZINC000583127796
REMARK  2 active torsions:
REMARK  status: ('A' for Active; 'I' for Inactive)
REMARK    1  A    between atoms: C_2  and  C_4
REMARK    2  A    between atoms: C_7  and  C_8
REMARK                            x       y       z     vdW  Elec       q    Type
REMARK                         _______ _______ _______ _____ _____    ______ ____
ROOT
ATOM      1  C   UNL     1      33.414  21.474  11.383  0.00  0.00    +0.247 C 
ATOM      2  O   UNL     1      34.033  20.619  10.753  0.00  0.00    -0.270 OA
ATOM      3  N   UNL     1      32.456  21.152  12.359  0.00  0.00    -0.297 N 
ATOM      4  C   UNL     1      31.678  22.100  13.161  0.00  0.00    +0.108 C 
ATOM      5  C   UNL     1      31.817  21.846  14.651  0.00  0.00    +0.020 C 
ATOM      6  C   UNL     1      31.554  20.392  14.996  0.00  0.00    +0.011 C 
ATOM      7  C   UNL     1      32.399  19.409  14.149  0.00  0.00    -0.004 C 
ATOM      8  C   UNL     1      31.931  17.983  14.513  0.00  0.00    +0.020 C 
ATOM      9  C   UNL     1      33.033  16.990  14.215  0.00  0.00    +0.070 C 
ATOM     10  S   UNL     1      34.534  17.825  14.754  0.00  0.00    -0.160 S 
ATOM     11  C   UNL     1      33.900  19.507  14.506  0.00  0.00    +0.077 C 
ATOM     12  C   UNL     1      32.184  19.734  12.645  0.00  0.00    +0.115 C 
ENDROOT
BRANCH   1  16
ATOM     13  C   UNL     1      34.654  25.442  10.373  0.00  0.00    +0.037 A 
ATOM     14  C   UNL     1      35.368  24.730  11.343  0.00  0.00    +0.014 A 
ATOM     15  C   UNL     1      34.909  23.480  11.768  0.00  0.00    +0.014 A 
ATOM     16  C   UNL     1      33.798  22.895  11.153  0.00  0.00    +0.037 A 
ATOM     17  C   UNL     1      33.027  23.652  10.259  0.00  0.00    +0.014 A 
ATOM     18  C   UNL     1      33.449  24.929   9.879  0.00  0.00    +0.014 A 
BRANCH  13  20
ATOM     19  N   UNL     1      35.268  27.765  10.743  0.00  0.00    -0.325 N 
ATOM     20  C   UNL     1      35.151  26.739   9.848  0.00  0.00    +0.242 C 
ATOM     21  O   UNL     1      35.491  26.867   8.681  0.00  0.00    -0.270 OA
ATOM     22  H   UNL     1      35.728  28.600  10.400  0.00  0.00    +0.145 HD
ATOM     23  H   UNL     1      35.265  27.611  11.742  0.00  0.00    +0.145 HD
ENDBRANCH  13  20
ENDBRANCH   1  16
TORSDOF 2
ENDMDL
MODEL 3
REMARK VINA RESULT:      -6.2      3.102      7.126
REMARK  Name = ZINC000583127796
REMARK  2 active torsions:
REMARK  status: ('A' for Active; 'I' for Inactive)
REMARK    1  A    between atoms: C_2  and  C_4
REMARK    2  A    between atoms: C_7  and  C_8
REMARK                            x       y       z     vdW  Elec       q    Type
REMARK                         _______ _______ _______ _____ _____    ______ ____
ROOT
ATOM      1  C   UNL     1      32.587  18.763  12.714  0.00  0.00    +0.247 C 
ATOM      2  O   UNL     1      32.947  19.138  11.599  0.00  0.00    -0.270 OA
ATOM      3  N   UNL     1      32.695  17.428  13.136  0.00  0.00    -0.297 N 
ATOM      4  C   UNL     1      32.300  16.893  14.442  0.00  0.00    +0.108 C 
ATOM      5  C   UNL     1      33.432  16.152  15.130  0.00  0.00    +0.020 C 
ATOM      6  C   UNL     1      34.063  15.121  14.212  0.00  0.00    +0.011 C 
ATOM      7  C   UNL     1      34.489  15.711  12.845  0.00  0.00    -0.004 C 
ATOM      8  C   UNL     1      34.984  14.532  11.980  0.00  0.00    +0.020 C 
ATOM      9  C   UNL     1      35.930  15.040  10.913  0.00  0.00    +0.070 C 
ATOM     10  S   UNL     1      36.927  16.274  11.764  0.00  0.00    -0.160 S 
ATOM     11  C   UNL     1      35.670  16.696  13.002  0.00  0.00    +0.077 C 
ATOM     12  C   UNL     1      33.268  16.435  12.213  0.00  0.00    +0.115 C 
ENDROOT
BRANCH   1  16
ATOM     13  C   UNL     1      31.335  21.526  15.730  0.00  0.00    +0.037 A 
ATOM     14  C   UNL     1      30.370  20.904  14.931  0.00  0.00    +0.014 A 
ATOM     15  C   UNL     1      30.766  20.089  13.867  0.00  0.00    +0.014 A 
ATOM     16  C   UNL     1      32.121  19.812  13.663  0.00  0.00    +0.037 A 
ATOM     17  C   UNL     1      33.087  20.517  14.396  0.00  0.00    +0.014 A 
ATOM     18  C   UNL     1      32.693  21.382  15.421  0.00  0.00    +0.014 A 
BRANCH  13  20
ATOM     19  N   UNL     1      31.803  23.342  17.277  0.00  0.00    -0.325 N 
ATOM     20  C   UNL     1      30.949  22.341  16.911  0.00  0.00    +0.242 C 
ATOM     21  O   UNL     1      29.891  22.157  17.494  0.00  0.00    -0.270 OA
ATOM     22  H   UNL     1      31.466  23.968  17.999  0.00  0.00    +0.145 HD
ATOM     23  H   UNL     1      32.523  23.690  16.659  0.00  0.00    +0.145 HD
ENDBRANCH  13  20
ENDBRANCH   1  16
TORSDOF 2
ENDMDL
MODEL 4
REMARK VINA RESULT:      -6.1      3.341      7.286
REMARK  Name = ZINC000583127796
REMARK  2 active torsions:
REMARK  status: ('A' for Active; 'I' for Inactive)
REMARK    1  A    between atoms: C_2  and  C_4
REMARK    2  A    between atoms: C_7  and  C_8
REMARK                            x       y       z     vdW  Elec       q    Type
REMARK                         _______ _______ _______ _____ _____    ______ ____
ROOT
ATOM      1  C   UNL     1      33.464  17.697  13.667  0.00  0.00    +0.247 C 
ATOM      2  O   UNL     1      33.414  16.677  14.351  0.00  0.00    -0.270 OA
ATOM      3  N   UNL     1      34.073  17.733  12.402  0.00  0.00    -0.297 N 
ATOM      4  C   UNL     1      34.174  18.897  11.517  0.00  0.00    +0.108 C 
ATOM      5  C   UNL     1      33.617  18.619  10.132  0.00  0.00    +0.020 C 
ATOM      6  C   UNL     1      34.199  17.349   9.541  0.00  0.00    +0.011 C 
ATOM      7  C   UNL     1      34.066  16.128  10.486  0.00  0.00    -0.004 C 
ATOM      8  C   UNL     1      34.812  14.955   9.814  0.00  0.00    +0.020 C 
ATOM      9  C   UNL     1      34.266  13.639  10.326  0.00  0.00    +0.070 C 
ATOM     10  S   UNL     1      32.488  13.906  10.410  0.00  0.00    -0.160 S 
ATOM     11  C   UNL     1      32.589  15.703  10.649  0.00  0.00    +0.077 C 
ATOM     12  C   UNL     1      34.672  16.499  11.868  0.00  0.00    +0.115 C 
ENDROOT
BRANCH   1  16
ATOM     13  C   UNL     1      31.487  21.009  15.517  0.00  0.00    +0.037 A 
ATOM     14  C   UNL     1      30.721  20.020  14.891  0.00  0.00    +0.014 A 
ATOM     15  C   UNL     1      31.352  18.994  14.183  0.00  0.00    +0.014 A 
ATOM     16  C   UNL     1      32.747  18.896  14.186  0.00  0.00    +0.037 A 
ATOM     17  C   UNL     1      33.511  19.942  14.723  0.00  0.00    +0.014 A 
ATOM     18  C   UNL     1      32.880  21.004  15.377  0.00  0.00    +0.014 A 
BRANCH  13  20
ATOM     19  N   UNL     1      30.927  23.351  15.857  0.00  0.00    -0.325 N 
ATOM     20  C   UNL     1      30.851  22.073  16.335  0.00  0.00    +0.242 C 
ATOM     21  O   UNL     1      30.242  21.810  17.361  0.00  0.00    -0.270 OA
ATOM     22  H   UNL     1      30.380  24.043  16.356  0.00  0.00    +0.145 HD
ATOM     23  H   UNL     1      31.169  23.553  14.897  0.00  0.00    +0.145 HD
ENDBRANCH  13  20
ENDBRANCH   1  16
TORSDOF 2
ENDMDL
MODEL 5
REMARK VINA RESULT:      -6.0      3.460      8.001
REMARK  Name = ZINC000583127796
REMARK  2 active torsions:
REMARK  status: ('A' for Active; 'I' for Inactive)
REMARK    1  A    between atoms: C_2  and  C_4
REMARK    2  A    between atoms: C_7  and  C_8
REMARK                            x       y       z     vdW  Elec       q    Type
REMARK                         _______ _______ _______ _____ _____    ______ ____
ROOT
ATOM      1  C   UNL     1      34.085  21.684  14.939  0.00  0.00    +0.247 C 
ATOM      2  O   UNL     1      35.180  21.153  15.118  0.00  0.00    -0.270 OA
ATOM      3  N   UNL     1      33.158  21.211  13.996  0.00  0.00    -0.297 N 
ATOM      4  C   UNL     1      31.833  21.772  13.719  0.00  0.00    +0.108 C 
ATOM      5  C   UNL     1      30.730  20.735  13.837  0.00  0.00    +0.020 C 
ATOM      6  C   UNL     1      31.047  19.490  13.031  0.00  0.00    +0.011 C 
ATOM      7  C   UNL     1      32.444  18.903  13.351  0.00  0.00    -0.004 C 
ATOM      8  C   UNL     1      32.677  17.733  12.371  0.00  0.00    +0.020 C 
ATOM      9  C   UNL     1      33.684  16.766  12.957  0.00  0.00    +0.070 C 
ATOM     10  S   UNL     1      33.236  16.669  14.698  0.00  0.00    -0.160 S 
ATOM     11  C   UNL     1      32.494  18.322  14.783  0.00  0.00    +0.077 C 
ATOM     12  C   UNL     1      33.505  20.027  13.192  0.00  0.00    +0.115 C 
ENDROOT
BRANCH   1  16
ATOM     13  C   UNL     1      33.345  24.808  17.766  0.00  0.00    +0.037 A 
ATOM     14  C   UNL     1      32.504  23.691  17.748  0.00  0.00    +0.014 A 
ATOM     15  C   UNL     1      32.659  22.718  16.757  0.00  0.00    +0.014 A 
ATOM     16  C   UNL     1      33.719  22.806  15.848  0.00  0.00    +0.037 A 
ATOM     17  C   UNL     1      34.493  23.974  15.804  0.00  0.00    +0.014 A 
ATOM     18  C   UNL     1      34.298  24.979  16.755  0.00  0.00    +0.014 A 
BRANCH  13  20
ATOM     19  N   UNL     1      32.061  25.916  19.509  0.00  0.00    -0.325 N 
ATOM     20  C   UNL     1      33.252  25.825  18.846  0.00  0.00    +0.242 C 
ATOM     21  O   UNL     1      34.214  26.509  19.161  0.00  0.00    -0.270 OA
ATOM     22  H   UNL     1      32.054  26.519  20.323  0.00  0.00    +0.145 HD
ATOM     23  H   UNL     1      31.361  25.189  19.462  0.00  0.00    +0.145 HD
ENDBRANCH  13  20
ENDBRANCH   1  16
TORSDOF 2
ENDMDL
MODEL 6
REMARK VINA RESULT:      -5.9      2.993      7.417
REMARK  Name = ZINC000583127796
REMARK  2 active torsions:
REMARK  status: ('A' for Active; 'I' for Inactive)
REMARK    1  A    between atoms: C_2  and  C_4
REMARK    2  A    between atoms: C_7  and  C_8
REMARK                            x       y       z     vdW  Elec       q    Type
REMARK                         _______ _______ _______ _____ _____    ______ ____
ROOT
ATOM      1  C   UNL     1      31.487  19.406  13.665  0.00  0.00    +0.247 C 
ATOM      2  O   UNL     1      30.682  19.454  12.736  0.00  0.00    -0.270 OA
ATOM      3  N   UNL     1      32.188  18.237  14.003  0.00  0.00    -0.297 N 
ATOM      4  C   UNL     1      33.166  18.090  15.083  0.00  0.00    +0.108 C 
ATOM      5  C   UNL     1      34.495  17.545  14.591  0.00  0.00    +0.020 C 
ATOM      6  C   UNL     1      34.308  16.290  13.758  0.00  0.00    +0.011 C 
ATOM      7  C   UNL     1      33.284  16.473  12.611  0.00  0.00    -0.004 C 
ATOM      8  C   UNL     1      33.103  15.092  11.944  0.00  0.00    +0.020 C 
ATOM      9  C   UNL     1      32.618  15.270  10.521  0.00  0.00    +0.070 C 
ATOM     10  S   UNL     1      33.566  16.671   9.907  0.00  0.00    -0.160 S 
ATOM     11  C   UNL     1      33.819  17.441  11.531  0.00  0.00    +0.077 C 
ATOM     12  C   UNL     1      31.958  17.018  13.210  0.00  0.00    +0.115 C 
ENDROOT
BRANCH   1  16
ATOM     13  C   UNL     1      32.635  22.892  15.863  0.00  0.00    +0.037 A 
ATOM     14  C   UNL     1      31.472  22.206  16.230  0.00  0.00    +0.014 A 
ATOM     15  C   UNL     1      31.020  21.136  15.453  0.00  0.00    +0.014 A 
ATOM     16  C   UNL     1      31.782  20.685  14.371  0.00  0.00    +0.037 A 
ATOM     17  C   UNL     1      32.887  21.436  13.944  0.00  0.00    +0.014 A 
ATOM     18  C   UNL     1      33.305  22.546  14.684  0.00  0.00    +0.014 A 
BRANCH  13  20
ATOM     19  N   UNL     1      32.507  24.275  17.859  0.00  0.00    -0.325 N 
ATOM     20  C   UNL     1      33.181  23.988  16.705  0.00  0.00    +0.242 C 
ATOM     21  O   UNL     1      34.214  24.567  16.406  0.00  0.00    -0.270 OA
ATOM     22  H   UNL     1      32.962  24.932  18.482  0.00  0.00    +0.145 HD
ATOM     23  H   UNL     1      31.833  23.640  18.262  0.00  0.00    +0.145 HD
ENDBRANCH  13  20
ENDBRANCH   1  16
TORSDOF 2
ENDMDL
MODEL 7
REMARK VINA RESULT:      -5.9      3.598      7.501
REMARK  Name = ZINC000583127796
REMARK  2 active torsions:
REMARK  status: ('A' for Active; 'I' for Inactive)
REMARK    1  A    between atoms: C_2  and  C_4
REMARK    2  A    between atoms: C_7  and  C_8
REMARK                            x       y       z     vdW  Elec       q    Type
REMARK                         _______ _______ _______ _____ _____    ______ ____
ROOT
ATOM      1  C   UNL     1      34.201  17.153  12.799  0.00  0.00    +0.247 C 
ATOM      2  O   UNL     1      35.176  17.215  13.546  0.00  0.00    -0.270 OA
ATOM      3  N   UNL     1      34.077  16.181  11.793  0.00  0.00    -0.297 N 
ATOM      4  C   UNL     1      32.954  16.026  10.864  0.00  0.00    +0.108 C 
ATOM      5  C   UNL     1      32.366  14.626  10.896  0.00  0.00    +0.020 C 
ATOM      6  C   UNL     1      33.441  13.567  10.738  0.00  0.00    +0.011 C 
ATOM      7  C   UNL     1      34.609  13.738  11.741  0.00  0.00    -0.004 C 
ATOM      8  C   UNL     1      35.675  12.682  11.376  0.00  0.00    +0.020 C 
ATOM      9  C   UNL     1      36.531  12.378  12.587  0.00  0.00    +0.070 C 
ATOM     10  S   UNL     1      35.358  12.330  13.951  0.00  0.00    -0.160 S 
ATOM     11  C   UNL     1      34.152  13.451  13.190  0.00  0.00    +0.077 C 
ATOM     12  C   UNL     1      35.153  15.189  11.628  0.00  0.00    +0.115 C 
ENDROOT
BRANCH   1  16
ATOM     13  C   UNL     1      31.233  20.072  13.784  0.00  0.00    +0.037 A 
ATOM     14  C   UNL     1      31.169  18.806  14.377  0.00  0.00    +0.014 A 
ATOM     15  C   UNL     1      32.060  17.806  13.980  0.00  0.00    +0.014 A 
ATOM     16  C   UNL     1      33.080  18.096  13.068  0.00  0.00    +0.037 A 
ATOM     17  C   UNL     1      33.077  19.329  12.401  0.00  0.00    +0.014 A 
ATOM     18  C   UNL     1      32.146  20.311  12.751  0.00  0.00    +0.014 A 
BRANCH  13  20
ATOM     19  N   UNL     1      29.779  21.052  15.469  0.00  0.00    -0.325 N 
ATOM     20  C   UNL     1      30.348  21.178  14.233  0.00  0.00    +0.242 C 
ATOM     21  O   UNL     1      30.181  22.177  13.550  0.00  0.00    -0.270 OA
ATOM     22  H   UNL     1      29.286  21.868  15.812  0.00  0.00    +0.145 HD
ATOM     23  H   UNL     1      30.117  20.390  16.153  0.00  0.00    +0.145 HD
ENDBRANCH  13  20
ENDBRANCH   1  16
TORSDOF 2
ENDMDL
MODEL 8
REMARK VINA RESULT:      -5.9      3.900      8.422
REMARK  Name = ZINC000583127796
REMARK  2 active torsions:
REMARK  status: ('A' for Active; 'I' for Inactive)
REMARK    1  A    between atoms: C_2  and  C_4
REMARK    2  A    between atoms: C_7  and  C_8
REMARK                            x       y       z     vdW  Elec       q    Type
REMARK                         _______ _______ _______ _____ _____    ______ ____
ROOT
ATOM      1  C   UNL     1      33.926  22.892  15.419  0.00  0.00    +0.247 C 
ATOM      2  O   UNL     1      34.872  22.560  14.708  0.00  0.00    -0.270 OA
ATOM      3  N   UNL     1      32.601  22.513  15.146  0.00  0.00    -0.297 N 
ATOM      4  C   UNL     1      31.417  22.854  15.938  0.00  0.00    +0.108 C 
ATOM      5  C   UNL     1      30.624  21.627  16.352  0.00  0.00    +0.020 C 
ATOM      6  C   UNL     1      30.329  20.728  15.165  0.00  0.00    +0.011 C 
ATOM      7  C   UNL     1      31.597  20.365  14.353  0.00  0.00    -0.004 C 
ATOM      8  C   UNL     1      31.128  19.567  13.117  0.00  0.00    +0.020 C 
ATOM      9  C   UNL     1      32.258  18.698  12.609  0.00  0.00    +0.070 C 
ATOM     10  S   UNL     1      33.025  18.056  14.105  0.00  0.00    -0.160 S 
ATOM     11  C   UNL     1      32.540  19.447  15.165  0.00  0.00    +0.077 C 
ATOM     12  C   UNL     1      32.332  21.678  13.964  0.00  0.00    +0.115 C 
ENDROOT
BRANCH   1  16
ATOM     13  C   UNL     1      34.483  24.953  19.126  0.00  0.00    +0.037 A 
ATOM     14  C   UNL     1      34.376  25.693  17.944  0.00  0.00    +0.014 A 
ATOM     15  C   UNL     1      34.310  25.033  16.714  0.00  0.00    +0.014 A 
ATOM     16  C   UNL     1      34.247  23.637  16.669  0.00  0.00    +0.037 A 
ATOM     17  C   UNL     1      34.459  22.900  17.843  0.00  0.00    +0.014 A 
ATOM     18  C   UNL     1      34.589  23.559  19.068  0.00  0.00    +0.014 A 
BRANCH  13  20
ATOM     19  N   UNL     1      33.333  26.255  20.828  0.00  0.00    -0.325 N 
ATOM     20  C   UNL     1      34.484  25.620  20.454  0.00  0.00    +0.242 C 
ATOM     21  O   UNL     1      35.451  25.557  21.198  0.00  0.00    -0.270 OA
ATOM     22  H   UNL     1      33.305  26.591  21.784  0.00  0.00    +0.145 HD
ATOM     23  H   UNL     1      32.450  26.084  20.369  0.00  0.00    +0.145 HD
ENDBRANCH  13  20
ENDBRANCH   1  16
TORSDOF 2
ENDMDL
MODEL 9
REMARK VINA RESULT:      -5.9      3.123      7.197
REMARK  Name = ZINC000583127796
REMARK  2 active torsions:
REMARK  status: ('A' for Active; 'I' for Inactive)
REMARK    1  A    between atoms: C_2  and  C_4
REMARK    2  A    between atoms: C_7  and  C_8
REMARK                            x       y       z     vdW  Elec       q    Type
REMARK                         _______ _______ _______ _____ _____    ______ ____
ROOT
ATOM      1  C   UNL     1      32.615  18.523  12.842  0.00  0.00    +0.247 C 
ATOM      2  O   UNL     1      32.812  19.054  11.751  0.00  0.00    -0.270 OA
ATOM      3  N   UNL     1      32.797  17.147  13.060  0.00  0.00    -0.297 N 
ATOM      4  C   UNL     1      32.595  16.431  14.323  0.00  0.00    +0.108 C 
ATOM      5  C   UNL     1      33.821  15.641  14.742  0.00  0.00    +0.020 C 
ATOM      6  C   UNL     1      34.330  14.762  13.615  0.00  0.00    +0.011 C 
ATOM      7  C   UNL     1      34.554  15.542  12.295  0.00  0.00    -0.004 C 
ATOM      8  C   UNL     1      34.939  14.504  11.218  0.00  0.00    +0.020 C 
ATOM      9  C   UNL     1      35.721  15.180  10.112  0.00  0.00    +0.070 C 
ATOM     10  S   UNL     1      36.811  16.320  10.979  0.00  0.00    -0.160 S 
ATOM     11  C   UNL     1      35.733  16.533  12.423  0.00  0.00    +0.077 C 
ATOM     12  C   UNL     1      33.248  16.305  11.940  0.00  0.00    +0.115 C 
ENDROOT
BRANCH   1  16
ATOM     13  C   UNL     1      31.491  21.352  15.847  0.00  0.00    +0.037 A 
ATOM     14  C   UNL     1      32.846  21.176  15.548  0.00  0.00    +0.014 A 
ATOM     15  C   UNL     1      33.238  20.176  14.655  0.00  0.00    +0.014 A 
ATOM     16  C   UNL     1      32.273  19.421  13.981  0.00  0.00    +0.037 A 
ATOM     17  C   UNL     1      30.927  19.527  14.359  0.00  0.00    +0.014 A 
ATOM     18  C   UNL     1      30.539  20.484  15.300  0.00  0.00    +0.014 A 
BRANCH  13  20
ATOM     19  N   UNL     1      31.719  23.631  16.664  0.00  0.00    -0.325 N 
ATOM     20  C   UNL     1      31.035  22.451  16.738  0.00  0.00    +0.242 C 
ATOM     21  O   UNL     1      30.060  22.321  17.463  0.00  0.00    -0.270 OA
ATOM     22  H   UNL     1      31.318  24.406  17.179  0.00  0.00    +0.145 HD
ATOM     23  H   UNL     1      32.331  23.852  15.891  0.00  0.00    +0.145 HD
ENDBRANCH  13  20
ENDBRANCH   1  16
TORSDOF 2
ENDMDL
