MODEL 1
REMARK VINA RESULT:      -6.5      0.000      0.000
REMARK  Name = ZINC000826139982
REMARK  4 active torsions:
REMARK  status: ('A' for Active; 'I' for Inactive)
REMARK    1  A    between atoms: C_2  and  C_4
REMARK    2  A    between atoms: C_8  and  C_10
REMARK    3  A    between atoms: C_14  and  S_15
REMARK    4  A    between atoms: S_15  and  C_16
REMARK                            x       y       z     vdW  Elec       q    Type
REMARK                         _______ _______ _______ _____ _____    ______ ____
ROOT
ATOM      1  C   UNL     1      35.621  21.176   7.220  0.00  0.00    +0.093 C 
ATOM      2  C   UNL     1      34.536  20.402   7.969  0.00  0.00    +0.033 C 
ATOM      3  C   UNL     1      33.720  21.523   8.594  0.00  0.00    +0.109 C 
ATOM      4  N   UNL     1      34.756  22.430   9.069  0.00  0.00    -0.297 N 
ATOM      5  C   UNL     1      34.767  23.343  10.116  0.00  0.00    +0.247 C 
ATOM      6  O   UNL     1      35.716  24.117  10.268  0.00  0.00    -0.270 OA
ATOM      7  C   UNL     1      35.885  22.379   8.137  0.00  0.00    +0.120 C 
ENDROOT
BRANCH   5   8
ATOM      8  C   UNL     1      33.632  23.450  11.084  0.00  0.00    +0.038 A 
ATOM      9  C   UNL     1      32.465  24.169  10.828  0.00  0.00    +0.013 A 
ATOM     10  C   UNL     1      31.479  24.308  11.807  0.00  0.00    +0.002 A 
ATOM     11  C   UNL     1      31.587  23.609  13.006  0.00  0.00    +0.015 A 
ATOM     12  C   UNL     1      32.660  22.738  13.212  0.00  0.00    +0.017 A 
ATOM     13  C   UNL     1      33.700  22.695  12.271  0.00  0.00    +0.028 A 
BRANCH  12  14
ATOM     14  S   UNL     1      32.731  21.703  14.659  0.00  0.00    -0.016 S 
BRANCH  14  15
ATOM     15  C   UNL     1      31.299  20.634  14.398  0.00  0.00    +0.448 C 
ATOM     16  F   UNL     1      30.804  20.672  13.138  0.00  0.00    -0.160 F 
ATOM     17  F   UNL     1      31.605  19.342  14.664  0.00  0.00    -0.160 F 
ATOM     18  F   UNL     1      30.285  20.983  15.228  0.00  0.00    -0.160 F 
ENDBRANCH  14  15
ENDBRANCH  12  14
ENDBRANCH   5   8
BRANCH   1  20
ATOM     19  N   UNL     1      35.140  22.898   5.546  0.00  0.00    -0.329 N 
ATOM     20  C   UNL     1      35.131  21.567   5.834  0.00  0.00    +0.215 C 
ATOM     21  O   UNL     1      34.781  20.761   4.977  0.00  0.00    -0.276 OA
ATOM     22  H   UNL     1      34.902  23.154   4.597  0.00  0.00    +0.145 HD
ATOM     23  H   UNL     1      35.563  23.594   6.143  0.00  0.00    +0.145 HD
ENDBRANCH   1  20
TORSDOF 4
ENDMDL
MODEL 2
REMARK VINA RESULT:      -6.2      4.584      6.545
REMARK  Name = ZINC000826139982
REMARK  4 active torsions:
REMARK  status: ('A' for Active; 'I' for Inactive)
REMARK    1  A    between atoms: C_2  and  C_4
REMARK    2  A    between atoms: C_8  and  C_10
REMARK    3  A    between atoms: C_14  and  S_15
REMARK    4  A    between atoms: S_15  and  C_16
REMARK                            x       y       z     vdW  Elec       q    Type
REMARK                         _______ _______ _______ _____ _____    ______ ____
ROOT
ATOM      1  C   UNL     1      33.074  18.731  15.218  0.00  0.00    +0.093 C 
ATOM      2  C   UNL     1      31.781  19.105  14.494  0.00  0.00    +0.033 C 
ATOM      3  C   UNL     1      32.295  19.962  13.348  0.00  0.00    +0.109 C 
ATOM      4  N   UNL     1      33.301  20.785  14.005  0.00  0.00    -0.297 N 
ATOM      5  C   UNL     1      33.781  22.055  13.715  0.00  0.00    +0.247 C 
ATOM      6  O   UNL     1      34.742  22.523  14.331  0.00  0.00    -0.270 OA
ATOM      7  C   UNL     1      33.938  19.991  15.060  0.00  0.00    +0.120 C 
ENDROOT
BRANCH   5   8
ATOM      8  C   UNL     1      33.181  22.899  12.637  0.00  0.00    +0.038 A 
ATOM      9  C   UNL     1      32.046  23.690  12.817  0.00  0.00    +0.013 A 
ATOM     10  C   UNL     1      31.480  24.386  11.747  0.00  0.00    +0.002 A 
ATOM     11  C   UNL     1      32.126  24.411  10.515  0.00  0.00    +0.015 A 
ATOM     12  C   UNL     1      33.360  23.775  10.360  0.00  0.00    +0.017 A 
ATOM     13  C   UNL     1      33.861  22.986  11.407  0.00  0.00    +0.028 A 
BRANCH  12  14
ATOM     14  S   UNL     1      34.289  23.939   8.849  0.00  0.00    -0.016 S 
BRANCH  14  15
ATOM     15  C   UNL     1      33.253  23.011   7.697  0.00  0.00    +0.448 C 
ATOM     16  F   UNL     1      32.081  23.619   7.396  0.00  0.00    -0.160 F 
ATOM     17  F   UNL     1      33.901  22.799   6.526  0.00  0.00    -0.160 F 
ATOM     18  F   UNL     1      32.944  21.793   8.207  0.00  0.00    -0.160 F 
ENDBRANCH  14  15
ENDBRANCH  12  14
ENDBRANCH   5   8
BRANCH   1  20
ATOM     19  N   UNL     1      32.875  16.408  14.470  0.00  0.00    -0.329 N 
ATOM     20  C   UNL     1      33.692  17.490  14.593  0.00  0.00    +0.215 C 
ATOM     21  O   UNL     1      34.842  17.435  14.168  0.00  0.00    -0.276 OA
ATOM     22  H   UNL     1      33.254  15.612  13.973  0.00  0.00    +0.145 HD
ATOM     23  H   UNL     1      31.881  16.437  14.650  0.00  0.00    +0.145 HD
ENDBRANCH   1  20
TORSDOF 4
ENDMDL
MODEL 3
REMARK VINA RESULT:      -5.9      2.199      2.461
REMARK  Name = ZINC000826139982
REMARK  4 active torsions:
REMARK  status: ('A' for Active; 'I' for Inactive)
REMARK    1  A    between atoms: C_2  and  C_4
REMARK    2  A    between atoms: C_8  and  C_10
REMARK    3  A    between atoms: C_14  and  S_15
REMARK    4  A    between atoms: S_15  and  C_16
REMARK                            x       y       z     vdW  Elec       q    Type
REMARK                         _______ _______ _______ _____ _____    ______ ____
ROOT
ATOM      1  C   UNL     1      36.554  22.792   6.488  0.00  0.00    +0.093 C 
ATOM      2  C   UNL     1      36.179  21.674   7.461  0.00  0.00    +0.033 C 
ATOM      3  C   UNL     1      34.887  22.201   8.067  0.00  0.00    +0.109 C 
ATOM      4  N   UNL     1      35.203  23.604   8.292  0.00  0.00    -0.297 N 
ATOM      5  C   UNL     1      34.719  24.516   9.222  0.00  0.00    +0.247 C 
ATOM      6  O   UNL     1      35.029  25.709   9.155  0.00  0.00    -0.270 OA
ATOM      7  C   UNL     1      36.096  24.060   7.223  0.00  0.00    +0.120 C 
ENDROOT
BRANCH   5   8
ATOM      8  C   UNL     1      33.791  24.109  10.320  0.00  0.00    +0.038 A 
ATOM      9  C   UNL     1      32.430  24.414  10.334  0.00  0.00    +0.013 A 
ATOM     10  C   UNL     1      31.632  24.084  11.432  0.00  0.00    +0.002 A 
ATOM     11  C   UNL     1      32.158  23.320  12.468  0.00  0.00    +0.015 A 
ATOM     12  C   UNL     1      33.471  22.848  12.391  0.00  0.00    +0.017 A 
ATOM     13  C   UNL     1      34.295  23.280  11.341  0.00  0.00    +0.028 A 
BRANCH  12  14
ATOM     14  S   UNL     1      34.111  21.726  13.617  0.00  0.00    -0.016 S 
BRANCH  14  15
ATOM     15  C   UNL     1      34.362  22.839  15.017  0.00  0.00    +0.448 C 
ATOM     16  F   UNL     1      35.483  22.582  15.733  0.00  0.00    -0.160 F 
ATOM     17  F   UNL     1      34.444  24.126  14.604  0.00  0.00    -0.160 F 
ATOM     18  F   UNL     1      33.319  22.763  15.881  0.00  0.00    -0.160 F 
ENDBRANCH  14  15
ENDBRANCH  12  14
ENDBRANCH   5   8
BRANCH   1  20
ATOM     19  N   UNL     1      35.367  23.701   4.549  0.00  0.00    -0.329 N 
ATOM     20  C   UNL     1      35.862  22.584   5.149  0.00  0.00    +0.215 C 
ATOM     21  O   UNL     1      35.772  21.498   4.584  0.00  0.00    -0.276 OA
ATOM     22  H   UNL     1      34.987  23.580   3.619  0.00  0.00    +0.145 HD
ATOM     23  H   UNL     1      35.547  24.638   4.879  0.00  0.00    +0.145 HD
ENDBRANCH   1  20
TORSDOF 4
ENDMDL
MODEL 4
REMARK VINA RESULT:      -5.8      2.976      3.961
REMARK  Name = ZINC000826139982
REMARK  4 active torsions:
REMARK  status: ('A' for Active; 'I' for Inactive)
REMARK    1  A    between atoms: C_2  and  C_4
REMARK    2  A    between atoms: C_8  and  C_10
REMARK    3  A    between atoms: C_14  and  S_15
REMARK    4  A    between atoms: S_15  and  C_16
REMARK                            x       y       z     vdW  Elec       q    Type
REMARK                         _______ _______ _______ _____ _____    ______ ____
ROOT
ATOM      1  C   UNL     1      33.933  23.892   9.072  0.00  0.00    +0.093 C 
ATOM      2  C   UNL     1      34.785  22.780   9.684  0.00  0.00    +0.033 C 
ATOM      3  C   UNL     1      33.768  22.030  10.531  0.00  0.00    +0.109 C 
ATOM      4  N   UNL     1      33.019  23.116  11.146  0.00  0.00    -0.297 N 
ATOM      5  C   UNL     1      32.326  23.188  12.348  0.00  0.00    +0.247 C 
ATOM      6  O   UNL     1      31.641  24.177  12.624  0.00  0.00    -0.270 OA
ATOM      7  C   UNL     1      32.943  24.229  10.196  0.00  0.00    +0.120 C 
ENDROOT
BRANCH   5   8
ATOM      8  C   UNL     1      32.354  22.073  13.344  0.00  0.00    +0.038 A 
ATOM      9  C   UNL     1      31.333  21.132  13.479  0.00  0.00    +0.013 A 
ATOM     10  C   UNL     1      31.374  20.169  14.489  0.00  0.00    +0.002 A 
ATOM     11  C   UNL     1      32.507  20.048  15.288  0.00  0.00    +0.015 A 
ATOM     12  C   UNL     1      33.617  20.863  15.053  0.00  0.00    +0.017 A 
ATOM     13  C   UNL     1      33.521  21.900  14.113  0.00  0.00    +0.028 A 
BRANCH  12  14
ATOM     14  S   UNL     1      35.139  20.611  15.943  0.00  0.00    -0.016 S 
BRANCH  14  15
ATOM     15  C   UNL     1      34.753  21.388  17.527  0.00  0.00    +0.448 C 
ATOM     16  F   UNL     1      35.843  21.777  18.231  0.00  0.00    -0.160 F 
ATOM     17  F   UNL     1      33.982  22.488  17.352  0.00  0.00    -0.160 F 
ATOM     18  F   UNL     1      34.057  20.536  18.320  0.00  0.00    -0.160 F 
ENDBRANCH  14  15
ENDBRANCH  12  14
ENDBRANCH   5   8
BRANCH   1  20
ATOM     19  N   UNL     1      34.089  23.015   6.791  0.00  0.00    -0.329 N 
ATOM     20  C   UNL     1      33.260  23.404   7.798  0.00  0.00    +0.215 C 
ATOM     21  O   UNL     1      32.045  23.307   7.658  0.00  0.00    -0.276 OA
ATOM     22  H   UNL     1      33.647  22.606   5.978  0.00  0.00    +0.145 HD
ATOM     23  H   UNL     1      35.088  22.918   6.898  0.00  0.00    +0.145 HD
ENDBRANCH   1  20
TORSDOF 4
ENDMDL
MODEL 5
REMARK VINA RESULT:      -5.8      3.284      4.475
REMARK  Name = ZINC000826139982
REMARK  4 active torsions:
REMARK  status: ('A' for Active; 'I' for Inactive)
REMARK    1  A    between atoms: C_2  and  C_4
REMARK    2  A    between atoms: C_8  and  C_10
REMARK    3  A    between atoms: C_14  and  S_15
REMARK    4  A    between atoms: S_15  and  C_16
REMARK                            x       y       z     vdW  Elec       q    Type
REMARK                         _______ _______ _______ _____ _____    ______ ____
ROOT
ATOM      1  C   UNL     1      33.599  23.650   9.441  0.00  0.00    +0.093 C 
ATOM      2  C   UNL     1      32.446  24.120  10.327  0.00  0.00    +0.033 C 
ATOM      3  C   UNL     1      32.845  23.570  11.688  0.00  0.00    +0.109 C 
ATOM      4  N   UNL     1      33.317  22.234  11.353  0.00  0.00    -0.297 N 
ATOM      5  C   UNL     1      33.352  21.060  12.095  0.00  0.00    +0.247 C 
ATOM      6  O   UNL     1      33.920  20.055  11.660  0.00  0.00    -0.270 OA
ATOM      7  C   UNL     1      33.957  22.280  10.036  0.00  0.00    +0.120 C 
ENDROOT
BRANCH   5   8
ATOM      8  C   UNL     1      32.731  20.964  13.452  0.00  0.00    +0.038 A 
ATOM      9  C   UNL     1      31.367  20.765  13.665  0.00  0.00    +0.013 A 
ATOM     10  C   UNL     1      30.834  20.775  14.955  0.00  0.00    +0.002 A 
ATOM     11  C   UNL     1      31.681  20.842  16.057  0.00  0.00    +0.015 A 
ATOM     12  C   UNL     1      33.066  20.860  15.872  0.00  0.00    +0.017 A 
ATOM     13  C   UNL     1      33.584  20.964  14.573  0.00  0.00    +0.028 A 
BRANCH  12  14
ATOM     14  S   UNL     1      34.173  20.770  17.264  0.00  0.00    -0.016 S 
BRANCH  14  15
ATOM     15  C   UNL     1      34.725  22.485  17.387  0.00  0.00    +0.448 C 
ATOM     16  F   UNL     1      35.184  22.831  18.614  0.00  0.00    -0.160 F 
ATOM     17  F   UNL     1      35.722  22.738  16.506  0.00  0.00    -0.160 F 
ATOM     18  F   UNL     1      33.709  23.336  17.095  0.00  0.00    -0.160 F 
ENDBRANCH  14  15
ENDBRANCH  12  14
ENDBRANCH   5   8
BRANCH   1  20
ATOM     19  N   UNL     1      35.942  24.172   9.926  0.00  0.00    -0.329 N 
ATOM     20  C   UNL     1      34.745  24.649   9.488  0.00  0.00    +0.215 C 
ATOM     21  O   UNL     1      34.653  25.816   9.119  0.00  0.00    -0.276 OA
ATOM     22  H   UNL     1      36.726  24.809   9.873  0.00  0.00    +0.145 HD
ATOM     23  H   UNL     1      36.124  23.193  10.091  0.00  0.00    +0.145 HD
ENDBRANCH   1  20
TORSDOF 4
ENDMDL
MODEL 6
REMARK VINA RESULT:      -5.7      3.123      4.382
REMARK  Name = ZINC000826139982
REMARK  4 active torsions:
REMARK  status: ('A' for Active; 'I' for Inactive)
REMARK    1  A    between atoms: C_2  and  C_4
REMARK    2  A    between atoms: C_8  and  C_10
REMARK    3  A    between atoms: C_14  and  S_15
REMARK    4  A    between atoms: S_15  and  C_16
REMARK                            x       y       z     vdW  Elec       q    Type
REMARK                         _______ _______ _______ _____ _____    ______ ____
ROOT
ATOM      1  C   UNL     1      33.611  23.669   9.394  0.00  0.00    +0.093 C 
ATOM      2  C   UNL     1      32.455  24.133  10.280  0.00  0.00    +0.033 C 
ATOM      3  C   UNL     1      32.851  23.574  11.638  0.00  0.00    +0.109 C 
ATOM      4  N   UNL     1      33.324  22.240  11.295  0.00  0.00    -0.297 N 
ATOM      5  C   UNL     1      33.357  21.062  12.030  0.00  0.00    +0.247 C 
ATOM      6  O   UNL     1      33.928  20.060  11.590  0.00  0.00    -0.270 OA
ATOM      7  C   UNL     1      33.968  22.296   9.981  0.00  0.00    +0.120 C 
ENDROOT
BRANCH   5   8
ATOM      8  C   UNL     1      32.733  20.956  13.384  0.00  0.00    +0.038 A 
ATOM      9  C   UNL     1      31.371  20.741  13.592  0.00  0.00    +0.013 A 
ATOM     10  C   UNL     1      30.832  20.743  14.880  0.00  0.00    +0.002 A 
ATOM     11  C   UNL     1      31.675  20.819  15.985  0.00  0.00    +0.015 A 
ATOM     12  C   UNL     1      33.060  20.853  15.806  0.00  0.00    +0.017 A 
ATOM     13  C   UNL     1      33.582  20.965  14.508  0.00  0.00    +0.028 A 
BRANCH  12  14
ATOM     14  S   UNL     1      34.163  20.774  17.201  0.00  0.00    -0.016 S 
BRANCH  14  15
ATOM     15  C   UNL     1      34.838  19.108  17.024  0.00  0.00    +0.448 C 
ATOM     16  F   UNL     1      35.184  18.525  18.197  0.00  0.00    -0.160 F 
ATOM     17  F   UNL     1      33.946  18.286  16.422  0.00  0.00    -0.160 F 
ATOM     18  F   UNL     1      35.952  19.124  16.250  0.00  0.00    -0.160 F 
ENDBRANCH  14  15
ENDBRANCH  12  14
ENDBRANCH   5   8
BRANCH   1  20
ATOM     19  N   UNL     1      35.959  24.183   9.862  0.00  0.00    -0.329 N 
ATOM     20  C   UNL     1      34.756  24.669   9.450  0.00  0.00    +0.215 C 
ATOM     21  O   UNL     1      34.659  25.844   9.111  0.00  0.00    -0.276 OA
ATOM     22  H   UNL     1      36.742  24.821   9.814  0.00  0.00    +0.145 HD
ATOM     23  H   UNL     1      36.145  23.200  10.000  0.00  0.00    +0.145 HD
ENDBRANCH   1  20
TORSDOF 4
ENDMDL
MODEL 7
REMARK VINA RESULT:      -5.7      2.045      2.663
REMARK  Name = ZINC000826139982
REMARK  4 active torsions:
REMARK  status: ('A' for Active; 'I' for Inactive)
REMARK    1  A    between atoms: C_2  and  C_4
REMARK    2  A    between atoms: C_8  and  C_10
REMARK    3  A    between atoms: C_14  and  S_15
REMARK    4  A    between atoms: S_15  and  C_16
REMARK                            x       y       z     vdW  Elec       q    Type
REMARK                         _______ _______ _______ _____ _____    ______ ____
ROOT
ATOM      1  C   UNL     1      36.846  24.431   7.449  0.00  0.00    +0.093 C 
ATOM      2  C   UNL     1      36.405  25.507   8.441  0.00  0.00    +0.033 C 
ATOM      3  C   UNL     1      35.832  24.675   9.578  0.00  0.00    +0.109 C 
ATOM      4  N   UNL     1      35.074  23.658   8.864  0.00  0.00    -0.297 N 
ATOM      5  C   UNL     1      33.953  22.922   9.230  0.00  0.00    +0.247 C 
ATOM      6  O   UNL     1      33.541  22.004   8.516  0.00  0.00    -0.270 OA
ATOM      7  C   UNL     1      35.773  23.345   7.615  0.00  0.00    +0.120 C 
ENDROOT
BRANCH   5   8
ATOM      8  C   UNL     1      33.215  23.186  10.502  0.00  0.00    +0.038 A 
ATOM      9  C   UNL     1      32.228  24.164  10.633  0.00  0.00    +0.013 A 
ATOM     10  C   UNL     1      31.638  24.425  11.872  0.00  0.00    +0.002 A 
ATOM     11  C   UNL     1      31.927  23.614  12.964  0.00  0.00    +0.015 A 
ATOM     12  C   UNL     1      32.777  22.515  12.813  0.00  0.00    +0.017 A 
ATOM     13  C   UNL     1      33.450  22.331  11.596  0.00  0.00    +0.028 A 
BRANCH  12  14
ATOM     14  S   UNL     1      33.026  21.363  14.147  0.00  0.00    -0.016 S 
BRANCH  14  15
ATOM     15  C   UNL     1      31.402  20.578  14.243  0.00  0.00    +0.448 C 
ATOM     16  F   UNL     1      30.721  20.574  13.072  0.00  0.00    -0.160 F 
ATOM     17  F   UNL     1      31.510  19.289  14.643  0.00  0.00    -0.160 F 
ATOM     18  F   UNL     1      30.618  21.212  15.150  0.00  0.00    -0.160 F 
ENDBRANCH  14  15
ENDBRANCH  12  14
ENDBRANCH   5   8
BRANCH   1  20
ATOM     19  N   UNL     1      39.195  24.916   7.942  0.00  0.00    -0.329 N 
ATOM     20  C   UNL     1      38.251  23.949   7.780  0.00  0.00    +0.215 C 
ATOM     21  O   UNL     1      38.551  22.771   7.945  0.00  0.00    -0.276 OA
ATOM     22  H   UNL     1      40.108  24.606   8.250  0.00  0.00    +0.145 HD
ATOM     23  H   UNL     1      38.982  25.903   7.978  0.00  0.00    +0.145 HD
ENDBRANCH   1  20
TORSDOF 4
ENDMDL
MODEL 8
REMARK VINA RESULT:      -5.7      3.160      4.160
REMARK  Name = ZINC000826139982
REMARK  4 active torsions:
REMARK  status: ('A' for Active; 'I' for Inactive)
REMARK    1  A    between atoms: C_2  and  C_4
REMARK    2  A    between atoms: C_8  and  C_10
REMARK    3  A    between atoms: C_14  and  S_15
REMARK    4  A    between atoms: S_15  and  C_16
REMARK                            x       y       z     vdW  Elec       q    Type
REMARK                         _______ _______ _______ _____ _____    ______ ____
ROOT
ATOM      1  C   UNL     1      33.980  23.746   9.216  0.00  0.00    +0.093 C 
ATOM      2  C   UNL     1      34.884  22.823  10.031  0.00  0.00    +0.033 C 
ATOM      3  C   UNL     1      33.885  22.116  10.935  0.00  0.00    +0.109 C 
ATOM      4  N   UNL     1      33.010  23.208  11.340  0.00  0.00    -0.297 N 
ATOM      5  C   UNL     1      32.241  23.393  12.482  0.00  0.00    +0.247 C 
ATOM      6  O   UNL     1      31.460  24.343  12.569  0.00  0.00    -0.270 OA
ATOM      7  C   UNL     1      32.898  24.154  10.227  0.00  0.00    +0.120 C 
ENDROOT
BRANCH   5   8
ATOM      8  C   UNL     1      32.303  22.447  13.638  0.00  0.00    +0.038 A 
ATOM      9  C   UNL     1      31.403  21.399  13.827  0.00  0.00    +0.013 A 
ATOM     10  C   UNL     1      31.457  20.605  14.974  0.00  0.00    +0.002 A 
ATOM     11  C   UNL     1      32.502  20.761  15.879  0.00  0.00    +0.015 A 
ATOM     12  C   UNL     1      33.518  21.685  15.619  0.00  0.00    +0.017 A 
ATOM     13  C   UNL     1      33.392  22.553  14.524  0.00  0.00    +0.028 A 
BRANCH  12  14
ATOM     14  S   UNL     1      34.953  21.782  16.669  0.00  0.00    -0.016 S 
BRANCH  14  15
ATOM     15  C   UNL     1      34.829  23.477  17.279  0.00  0.00    +0.448 C 
ATOM     16  F   UNL     1      35.346  24.406  16.440  0.00  0.00    -0.160 F 
ATOM     17  F   UNL     1      33.537  23.819  17.499  0.00  0.00    -0.160 F 
ATOM     18  F   UNL     1      35.483  23.609  18.460  0.00  0.00    -0.160 F 
ENDBRANCH  14  15
ENDBRANCH  12  14
ENDBRANCH   5   8
BRANCH   1  20
ATOM     19  N   UNL     1      32.076  22.877   7.944  0.00  0.00    -0.329 N 
ATOM     20  C   UNL     1      33.429  23.013   8.002  0.00  0.00    +0.215 C 
ATOM     21  O   UNL     1      34.123  22.592   7.082  0.00  0.00    -0.276 OA
ATOM     22  H   UNL     1      31.701  22.471   7.097  0.00  0.00    +0.145 HD
ATOM     23  H   UNL     1      31.442  23.338   8.581  0.00  0.00    +0.145 HD
ENDBRANCH   1  20
TORSDOF 4
ENDMDL
MODEL 9
REMARK VINA RESULT:      -5.6     14.561     16.360
REMARK  Name = ZINC000826139982
REMARK  4 active torsions:
REMARK  status: ('A' for Active; 'I' for Inactive)
REMARK    1  A    between atoms: C_2  and  C_4
REMARK    2  A    between atoms: C_8  and  C_10
REMARK    3  A    between atoms: C_14  and  S_15
REMARK    4  A    between atoms: S_15  and  C_16
REMARK                            x       y       z     vdW  Elec       q    Type
REMARK                         _______ _______ _______ _____ _____    ______ ____
ROOT
ATOM      1  C   UNL     1      23.596  27.688  21.572  0.00  0.00    +0.093 C 
ATOM      2  C   UNL     1      24.641  28.094  22.611  0.00  0.00    +0.033 C 
ATOM      3  C   UNL     1      25.187  26.745  23.055  0.00  0.00    +0.109 C 
ATOM      4  N   UNL     1      23.975  25.946  23.172  0.00  0.00    -0.297 N 
ATOM      5  C   UNL     1      23.673  24.848  23.967  0.00  0.00    +0.247 C 
ATOM      6  O   UNL     1      22.616  24.230  23.815  0.00  0.00    -0.270 OA
ATOM      7  C   UNL     1      23.027  26.381  22.143  0.00  0.00    +0.120 C 
ENDROOT
BRANCH   5   8
ATOM      8  C   UNL     1      24.613  24.351  25.018  0.00  0.00    +0.038 A 
ATOM      9  C   UNL     1      24.369  24.461  26.387  0.00  0.00    +0.013 A 
ATOM     10  C   UNL     1      25.327  24.060  27.321  0.00  0.00    +0.002 A 
ATOM     11  C   UNL     1      26.482  23.411  26.896  0.00  0.00    +0.015 A 
ATOM     12  C   UNL     1      26.665  23.127  25.540  0.00  0.00    +0.017 A 
ATOM     13  C   UNL     1      25.752  23.635  24.603  0.00  0.00    +0.028 A 
BRANCH  12  14
ATOM     14  S   UNL     1      28.047  22.147  24.992  0.00  0.00    -0.016 S 
BRANCH  14  15
ATOM     15  C   UNL     1      27.238  20.577  24.613  0.00  0.00    +0.448 C 
ATOM     16  F   UNL     1      26.284  20.218  25.506  0.00  0.00    -0.160 F 
ATOM     17  F   UNL     1      26.645  20.619  23.396  0.00  0.00    -0.160 F 
ATOM     18  F   UNL     1      28.144  19.568  24.581  0.00  0.00    -0.160 F 
ENDBRANCH  14  15
ENDBRANCH  12  14
ENDBRANCH   5   8
BRANCH   1  20
ATOM     19  N   UNL     1      24.143  26.287  19.639  0.00  0.00    -0.329 N 
ATOM     20  C   UNL     1      24.243  27.521  20.205  0.00  0.00    +0.215 C 
ATOM     21  O   UNL     1      24.795  28.430  19.592  0.00  0.00    -0.276 OA
ATOM     22  H   UNL     1      24.493  26.197  18.694  0.00  0.00    +0.145 HD
ATOM     23  H   UNL     1      23.569  25.547  20.015  0.00  0.00    +0.145 HD
ENDBRANCH   1  20
TORSDOF 4
ENDMDL
