MODEL 1
REMARK VINA RESULT:      -5.8      0.000      0.000
REMARK  Name = ZINC000826139982
REMARK  4 active torsions:
REMARK  status: ('A' for Active; 'I' for Inactive)
REMARK    1  A    between atoms: C_2  and  C_4
REMARK    2  A    between atoms: C_8  and  C_10
REMARK    3  A    between atoms: C_14  and  S_15
REMARK    4  A    between atoms: S_15  and  C_16
REMARK                            x       y       z     vdW  Elec       q    Type
REMARK                         _______ _______ _______ _____ _____    ______ ____
ROOT
ATOM      1  C   UNL     1      31.911  20.768  14.376  0.00  0.00    +0.093 C 
ATOM      2  C   UNL     1      32.329  20.614  12.914  0.00  0.00    +0.033 C 
ATOM      3  C   UNL     1      31.589  19.350  12.503  0.00  0.00    +0.109 C 
ATOM      4  N   UNL     1      31.792  18.486  13.657  0.00  0.00    -0.297 N 
ATOM      5  C   UNL     1      31.836  17.102  13.771  0.00  0.00    +0.247 C 
ATOM      6  O   UNL     1      31.889  16.561  14.879  0.00  0.00    -0.270 OA
ATOM      7  C   UNL     1      31.815  19.316  14.865  0.00  0.00    +0.120 C 
ENDROOT
BRANCH   5   8
ATOM      8  C   UNL     1      31.795  16.209  12.574  0.00  0.00    +0.038 A 
ATOM      9  C   UNL     1      30.636  15.584  12.114  0.00  0.00    +0.013 A 
ATOM     10  C   UNL     1      30.679  14.689  11.044  0.00  0.00    +0.002 A 
ATOM     11  C   UNL     1      31.860  14.516  10.330  0.00  0.00    +0.015 A 
ATOM     12  C   UNL     1      32.991  15.268  10.659  0.00  0.00    +0.017 A 
ATOM     13  C   UNL     1      32.967  16.077  11.804  0.00  0.00    +0.028 A 
BRANCH  12  14
ATOM     14  S   UNL     1      34.459  15.194   9.654  0.00  0.00    -0.016 S 
BRANCH  14  15
ATOM     15  C   UNL     1      34.393  16.791   8.814  0.00  0.00    +0.448 C 
ATOM     16  F   UNL     1      34.947  16.789   7.578  0.00  0.00    -0.160 F 
ATOM     17  F   UNL     1      33.113  17.211   8.673  0.00  0.00    -0.160 F 
ATOM     18  F   UNL     1      35.045  17.737   9.535  0.00  0.00    -0.160 F 
ENDBRANCH  14  15
ENDBRANCH  12  14
ENDBRANCH   5   8
BRANCH   1  20
ATOM     19  N   UNL     1      29.851  21.299  15.589  0.00  0.00    -0.329 N 
ATOM     20  C   UNL     1      30.597  21.529  14.474  0.00  0.00    +0.215 C 
ATOM     21  O   UNL     1      30.214  22.346  13.642  0.00  0.00    -0.276 OA
ATOM     22  H   UNL     1      29.023  21.869  15.701  0.00  0.00    +0.145 HD
ATOM     23  H   UNL     1      30.182  20.766  16.381  0.00  0.00    +0.145 HD
ENDBRANCH   1  20
TORSDOF 4
ENDMDL
MODEL 2
REMARK VINA RESULT:      -5.7      7.753     10.398
REMARK  Name = ZINC000826139982
REMARK  4 active torsions:
REMARK  status: ('A' for Active; 'I' for Inactive)
REMARK    1  A    between atoms: C_2  and  C_4
REMARK    2  A    between atoms: C_8  and  C_10
REMARK    3  A    between atoms: C_14  and  S_15
REMARK    4  A    between atoms: S_15  and  C_16
REMARK                            x       y       z     vdW  Elec       q    Type
REMARK                         _______ _______ _______ _____ _____    ______ ____
ROOT
ATOM      1  C   UNL     1      31.266  20.472  14.867  0.00  0.00    +0.093 C 
ATOM      2  C   UNL     1      30.545  21.595  15.612  0.00  0.00    +0.033 C 
ATOM      3  C   UNL     1      31.550  22.733  15.520  0.00  0.00    +0.109 C 
ATOM      4  N   UNL     1      32.810  22.054  15.790  0.00  0.00    -0.297 N 
ATOM      5  C   UNL     1      34.001  22.513  16.338  0.00  0.00    +0.247 C 
ATOM      6  O   UNL     1      35.004  21.795  16.360  0.00  0.00    -0.270 OA
ATOM      7  C   UNL     1      32.739  20.700  15.236  0.00  0.00    +0.120 C 
ENDROOT
BRANCH   5   8
ATOM      8  C   UNL     1      34.133  23.892  16.900  0.00  0.00    +0.038 A 
ATOM      9  C   UNL     1      34.961  24.873  16.354  0.00  0.00    +0.013 A 
ATOM     10  C   UNL     1      35.111  26.113  16.976  0.00  0.00    +0.002 A 
ATOM     11  C   UNL     1      34.324  26.438  18.077  0.00  0.00    +0.015 A 
ATOM     12  C   UNL     1      33.357  25.539  18.533  0.00  0.00    +0.017 A 
ATOM     13  C   UNL     1      33.295  24.255  17.972  0.00  0.00    +0.028 A 
BRANCH  12  14
ATOM     14  S   UNL     1      32.221  25.999  19.825  0.00  0.00    -0.016 S 
BRANCH  14  15
ATOM     15  C   UNL     1      33.360  26.423  21.161  0.00  0.00    +0.448 C 
ATOM     16  F   UNL     1      34.435  25.603  21.251  0.00  0.00    -0.160 F 
ATOM     17  F   UNL     1      33.834  27.682  21.012  0.00  0.00    -0.160 F 
ATOM     18  F   UNL     1      32.729  26.373  22.361  0.00  0.00    -0.160 F 
ENDBRANCH  14  15
ENDBRANCH  12  14
ENDBRANCH   5   8
BRANCH   1  20
ATOM     19  N   UNL     1      32.087  20.651  12.567  0.00  0.00    -0.329 N 
ATOM     20  C   UNL     1      30.994  20.566  13.373  0.00  0.00    +0.215 C 
ATOM     21  O   UNL     1      29.873  20.527  12.876  0.00  0.00    -0.276 OA
ATOM     22  H   UNL     1      31.915  20.623  11.570  0.00  0.00    +0.145 HD
ATOM     23  H   UNL     1      33.034  20.527  12.897  0.00  0.00    +0.145 HD
ENDBRANCH   1  20
TORSDOF 4
ENDMDL
MODEL 3
REMARK VINA RESULT:      -5.6      4.522      5.379
REMARK  Name = ZINC000826139982
REMARK  4 active torsions:
REMARK  status: ('A' for Active; 'I' for Inactive)
REMARK    1  A    between atoms: C_2  and  C_4
REMARK    2  A    between atoms: C_8  and  C_10
REMARK    3  A    between atoms: C_14  and  S_15
REMARK    4  A    between atoms: S_15  and  C_16
REMARK                            x       y       z     vdW  Elec       q    Type
REMARK                         _______ _______ _______ _____ _____    ______ ____
ROOT
ATOM      1  C   UNL     1      31.253  22.821  15.572  0.00  0.00    +0.093 C 
ATOM      2  C   UNL     1      30.593  23.039  14.211  0.00  0.00    +0.033 C 
ATOM      3  C   UNL     1      31.197  21.917  13.381  0.00  0.00    +0.109 C 
ATOM      4  N   UNL     1      32.595  21.951  13.787  0.00  0.00    -0.297 N 
ATOM      5  C   UNL     1      33.755  21.584  13.117  0.00  0.00    +0.247 C 
ATOM      6  O   UNL     1      34.843  21.572  13.699  0.00  0.00    -0.270 OA
ATOM      7  C   UNL     1      32.662  22.334  15.200  0.00  0.00    +0.120 C 
ENDROOT
BRANCH   5   8
ATOM      8  C   UNL     1      33.740  21.168  11.681  0.00  0.00    +0.038 A 
ATOM      9  C   UNL     1      33.464  19.868  11.258  0.00  0.00    +0.013 A 
ATOM     10  C   UNL     1      33.555  19.518   9.909  0.00  0.00    +0.002 A 
ATOM     11  C   UNL     1      33.786  20.501   8.951  0.00  0.00    +0.015 A 
ATOM     12  C   UNL     1      33.886  21.841   9.335  0.00  0.00    +0.017 A 
ATOM     13  C   UNL     1      33.907  22.163  10.700  0.00  0.00    +0.028 A 
BRANCH  12  14
ATOM     14  S   UNL     1      34.007  23.133   8.115  0.00  0.00    -0.016 S 
BRANCH  14  15
ATOM     15  C   UNL     1      32.265  23.523   7.842  0.00  0.00    +0.448 C 
ATOM     16  F   UNL     1      32.054  24.476   6.902  0.00  0.00    -0.160 F 
ATOM     17  F   UNL     1      31.578  22.423   7.451  0.00  0.00    -0.160 F 
ATOM     18  F   UNL     1      31.689  23.967   8.987  0.00  0.00    -0.160 F 
ENDBRANCH  14  15
ENDBRANCH  12  14
ENDBRANCH   5   8
BRANCH   1  20
ATOM     19  N   UNL     1      29.521  21.096  15.716  0.00  0.00    -0.329 N 
ATOM     20  C   UNL     1      30.460  21.813  16.391  0.00  0.00    +0.215 C 
ATOM     21  O   UNL     1      30.653  21.594  17.583  0.00  0.00    -0.276 OA
ATOM     22  H   UNL     1      29.055  20.364  16.236  0.00  0.00    +0.145 HD
ATOM     23  H   UNL     1      29.423  21.112  14.711  0.00  0.00    +0.145 HD
ENDBRANCH   1  20
TORSDOF 4
ENDMDL
MODEL 4
REMARK VINA RESULT:      -5.5      1.961      2.128
REMARK  Name = ZINC000826139982
REMARK  4 active torsions:
REMARK  status: ('A' for Active; 'I' for Inactive)
REMARK    1  A    between atoms: C_2  and  C_4
REMARK    2  A    between atoms: C_8  and  C_10
REMARK    3  A    between atoms: C_14  and  S_15
REMARK    4  A    between atoms: S_15  and  C_16
REMARK                            x       y       z     vdW  Elec       q    Type
REMARK                         _______ _______ _______ _____ _____    ______ ____
ROOT
ATOM      1  C   UNL     1      31.859  20.703  14.412  0.00  0.00    +0.093 C 
ATOM      2  C   UNL     1      32.249  20.543  12.943  0.00  0.00    +0.033 C 
ATOM      3  C   UNL     1      31.476  19.295  12.543  0.00  0.00    +0.109 C 
ATOM      4  N   UNL     1      31.681  18.425  13.692  0.00  0.00    -0.297 N 
ATOM      5  C   UNL     1      31.700  17.040  13.802  0.00  0.00    +0.247 C 
ATOM      6  O   UNL     1      31.762  16.496  14.908  0.00  0.00    -0.270 OA
ATOM      7  C   UNL     1      31.742  19.251  14.900  0.00  0.00    +0.120 C 
ENDROOT
BRANCH   5   8
ATOM      8  C   UNL     1      31.621  16.150  12.604  0.00  0.00    +0.038 A 
ATOM      9  C   UNL     1      30.426  15.628  12.107  0.00  0.00    +0.013 A 
ATOM     10  C   UNL     1      30.426  14.729  11.039  0.00  0.00    +0.002 A 
ATOM     11  C   UNL     1      31.610  14.452  10.364  0.00  0.00    +0.015 A 
ATOM     12  C   UNL     1      32.791  15.103  10.729  0.00  0.00    +0.017 A 
ATOM     13  C   UNL     1      32.801  15.915  11.873  0.00  0.00    +0.028 A 
BRANCH  12  14
ATOM     14  S   UNL     1      34.280  14.899   9.773  0.00  0.00    -0.016 S 
BRANCH  14  15
ATOM     15  C   UNL     1      34.578  13.128   9.958  0.00  0.00    +0.448 C 
ATOM     16  F   UNL     1      35.875  12.767   9.807  0.00  0.00    -0.160 F 
ATOM     17  F   UNL     1      34.188  12.696  11.181  0.00  0.00    -0.160 F 
ATOM     18  F   UNL     1      33.866  12.425   9.042  0.00  0.00    -0.160 F 
ENDBRANCH  14  15
ENDBRANCH  12  14
ENDBRANCH   5   8
BRANCH   1  20
ATOM     19  N   UNL     1      29.795  21.219  15.626  0.00  0.00    -0.329 N 
ATOM     20  C   UNL     1      30.562  21.489  14.535  0.00  0.00    +0.215 C 
ATOM     21  O   UNL     1      30.210  22.359  13.744  0.00  0.00    -0.276 OA
ATOM     22  H   UNL     1      28.979  21.802  15.758  0.00  0.00    +0.145 HD
ATOM     23  H   UNL     1      30.102  20.636  16.392  0.00  0.00    +0.145 HD
ENDBRANCH   1  20
TORSDOF 4
ENDMDL
MODEL 5
REMARK VINA RESULT:      -5.4      2.826      3.758
REMARK  Name = ZINC000826139982
REMARK  4 active torsions:
REMARK  status: ('A' for Active; 'I' for Inactive)
REMARK    1  A    between atoms: C_2  and  C_4
REMARK    2  A    between atoms: C_8  and  C_10
REMARK    3  A    between atoms: C_14  and  S_15
REMARK    4  A    between atoms: S_15  and  C_16
REMARK                            x       y       z     vdW  Elec       q    Type
REMARK                         _______ _______ _______ _____ _____    ______ ____
ROOT
ATOM      1  C   UNL     1      30.777  21.961  15.076  0.00  0.00    +0.093 C 
ATOM      2  C   UNL     1      30.377  20.490  14.960  0.00  0.00    +0.033 C 
ATOM      3  C   UNL     1      31.730  19.794  14.936  0.00  0.00    +0.109 C 
ATOM      4  N   UNL     1      32.502  20.653  14.049  0.00  0.00    -0.297 N 
ATOM      5  C   UNL     1      33.581  20.381  13.217  0.00  0.00    +0.247 C 
ATOM      6  O   UNL     1      34.179  21.293  12.640  0.00  0.00    -0.270 OA
ATOM      7  C   UNL     1      32.063  22.038  14.240  0.00  0.00    +0.120 C 
ENDROOT
BRANCH   5   8
ATOM      8  C   UNL     1      34.081  18.989  13.002  0.00  0.00    +0.038 A 
ATOM      9  C   UNL     1      34.898  18.314  13.909  0.00  0.00    +0.013 A 
ATOM     10  C   UNL     1      35.408  17.049  13.610  0.00  0.00    +0.002 A 
ATOM     11  C   UNL     1      34.992  16.385  12.461  0.00  0.00    +0.015 A 
ATOM     12  C   UNL     1      34.033  16.967  11.627  0.00  0.00    +0.017 A 
ATOM     13  C   UNL     1      33.615  18.283  11.877  0.00  0.00    +0.028 A 
BRANCH  12  14
ATOM     14  S   UNL     1      33.356  16.067  10.248  0.00  0.00    -0.016 S 
BRANCH  14  15
ATOM     15  C   UNL     1      32.190  14.969  11.082  0.00  0.00    +0.448 C 
ATOM     16  F   UNL     1      31.285  14.394  10.254  0.00  0.00    -0.160 F 
ATOM     17  F   UNL     1      32.840  13.965  11.716  0.00  0.00    -0.160 F 
ATOM     18  F   UNL     1      31.486  15.646  12.023  0.00  0.00    -0.160 F 
ENDBRANCH  14  15
ENDBRANCH  12  14
ENDBRANCH   5   8
BRANCH   1  20
ATOM     19  N   UNL     1      31.862  23.349  16.776  0.00  0.00    -0.329 N 
ATOM     20  C   UNL     1      30.978  22.343  16.534  0.00  0.00    +0.215 C 
ATOM     21  O   UNL     1      30.368  21.831  17.468  0.00  0.00    -0.276 OA
ATOM     22  H   UNL     1      31.932  23.666  17.734  0.00  0.00    +0.145 HD
ATOM     23  H   UNL     1      32.274  23.916  16.049  0.00  0.00    +0.145 HD
ENDBRANCH   1  20
TORSDOF 4
ENDMDL
MODEL 6
REMARK VINA RESULT:      -5.4      4.419      7.092
REMARK  Name = ZINC000826139982
REMARK  4 active torsions:
REMARK  status: ('A' for Active; 'I' for Inactive)
REMARK    1  A    between atoms: C_2  and  C_4
REMARK    2  A    between atoms: C_8  and  C_10
REMARK    3  A    between atoms: C_14  and  S_15
REMARK    4  A    between atoms: S_15  and  C_16
REMARK                            x       y       z     vdW  Elec       q    Type
REMARK                         _______ _______ _______ _____ _____    ______ ____
ROOT
ATOM      1  C   UNL     1      32.445  14.804  10.398  0.00  0.00    +0.093 C 
ATOM      2  C   UNL     1      33.347  16.008  10.128  0.00  0.00    +0.033 C 
ATOM      3  C   UNL     1      33.805  16.382  11.530  0.00  0.00    +0.109 C 
ATOM      4  N   UNL     1      32.575  16.255  12.300  0.00  0.00    -0.297 N 
ATOM      5  C   UNL     1      32.150  16.888  13.461  0.00  0.00    +0.247 C 
ATOM      6  O   UNL     1      31.113  16.534  14.029  0.00  0.00    -0.270 OA
ATOM      7  C   UNL     1      31.782  15.159  11.737  0.00  0.00    +0.120 C 
ENDROOT
BRANCH   5   8
ATOM      8  C   UNL     1      32.931  17.997  14.088  0.00  0.00    +0.038 A 
ATOM      9  C   UNL     1      34.105  17.801  14.815  0.00  0.00    +0.013 A 
ATOM     10  C   UNL     1      34.741  18.868  15.453  0.00  0.00    +0.002 A 
ATOM     11  C   UNL     1      34.285  20.168  15.254  0.00  0.00    +0.015 A 
ATOM     12  C   UNL     1      33.219  20.408  14.384  0.00  0.00    +0.017 A 
ATOM     13  C   UNL     1      32.519  19.321  13.840  0.00  0.00    +0.028 A 
BRANCH  12  14
ATOM     14  S   UNL     1      32.730  22.071  13.978  0.00  0.00    -0.016 S 
BRANCH  14  15
ATOM     15  C   UNL     1      31.229  22.250  14.967  0.00  0.00    +0.448 C 
ATOM     16  F   UNL     1      31.201  21.467  16.072  0.00  0.00    -0.160 F 
ATOM     17  F   UNL     1      31.073  23.529  15.383  0.00  0.00    -0.160 F 
ATOM     18  F   UNL     1      30.134  21.932  14.233  0.00  0.00    -0.160 F 
ENDBRANCH  14  15
ENDBRANCH  12  14
ENDBRANCH   5   8
BRANCH   1  20
ATOM     19  N   UNL     1      34.113  13.313   9.404  0.00  0.00    -0.329 N 
ATOM     20  C   UNL     1      33.268  13.526  10.449  0.00  0.00    +0.215 C 
ATOM     21  O   UNL     1      33.237  12.727  11.380  0.00  0.00    -0.276 OA
ATOM     22  H   UNL     1      34.727  12.512   9.478  0.00  0.00    +0.145 HD
ATOM     23  H   UNL     1      34.304  14.003   8.692  0.00  0.00    +0.145 HD
ENDBRANCH   1  20
TORSDOF 4
ENDMDL
MODEL 7
REMARK VINA RESULT:      -5.3      4.807      6.437
REMARK  Name = ZINC000826139982
REMARK  4 active torsions:
REMARK  status: ('A' for Active; 'I' for Inactive)
REMARK    1  A    between atoms: C_2  and  C_4
REMARK    2  A    between atoms: C_8  and  C_10
REMARK    3  A    between atoms: C_14  and  S_15
REMARK    4  A    between atoms: S_15  and  C_16
REMARK                            x       y       z     vdW  Elec       q    Type
REMARK                         _______ _______ _______ _____ _____    ______ ____
ROOT
ATOM      1  C   UNL     1      35.480  24.294   9.765  0.00  0.00    +0.093 C 
ATOM      2  C   UNL     1      34.738  23.090   9.185  0.00  0.00    +0.033 C 
ATOM      3  C   UNL     1      33.591  22.919  10.171  0.00  0.00    +0.109 C 
ATOM      4  N   UNL     1      34.256  23.113  11.452  0.00  0.00    -0.297 N 
ATOM      5  C   UNL     1      33.962  22.630  12.721  0.00  0.00    +0.247 C 
ATOM      6  O   UNL     1      34.587  23.027  13.708  0.00  0.00    -0.270 OA
ATOM      7  C   UNL     1      35.323  24.102  11.280  0.00  0.00    +0.120 C 
ENDROOT
BRANCH   5   8
ATOM      8  C   UNL     1      32.871  21.635  12.955  0.00  0.00    +0.038 A 
ATOM      9  C   UNL     1      31.541  21.987  13.182  0.00  0.00    +0.013 A 
ATOM     10  C   UNL     1      30.584  21.016  13.485  0.00  0.00    +0.002 A 
ATOM     11  C   UNL     1      30.919  19.667  13.423  0.00  0.00    +0.015 A 
ATOM     12  C   UNL     1      32.201  19.284  13.020  0.00  0.00    +0.017 A 
ATOM     13  C   UNL     1      33.183  20.267  12.830  0.00  0.00    +0.028 A 
BRANCH  12  14
ATOM     14  S   UNL     1      32.602  17.568  12.766  0.00  0.00    -0.016 S 
BRANCH  14  15
ATOM     15  C   UNL     1      32.502  16.928  14.451  0.00  0.00    +0.448 C 
ATOM     16  F   UNL     1      33.194  15.780  14.648  0.00  0.00    -0.160 F 
ATOM     17  F   UNL     1      32.975  17.833  15.341  0.00  0.00    -0.160 F 
ATOM     18  F   UNL     1      31.214  16.672  14.790  0.00  0.00    -0.160 F 
ENDBRANCH  14  15
ENDBRANCH  12  14
ENDBRANCH   5   8
BRANCH   1  20
ATOM     19  N   UNL     1      35.156  25.920   7.962  0.00  0.00    -0.329 N 
ATOM     20  C   UNL     1      34.870  25.590   9.252  0.00  0.00    +0.215 C 
ATOM     21  O   UNL     1      34.122  26.305   9.911  0.00  0.00    -0.276 OA
ATOM     22  H   UNL     1      34.681  26.732   7.590  0.00  0.00    +0.145 HD
ATOM     23  H   UNL     1      35.629  25.300   7.320  0.00  0.00    +0.145 HD
ENDBRANCH   1  20
TORSDOF 4
ENDMDL
MODEL 8
REMARK VINA RESULT:      -5.3      4.302      5.990
REMARK  Name = ZINC000826139982
REMARK  4 active torsions:
REMARK  status: ('A' for Active; 'I' for Inactive)
REMARK    1  A    between atoms: C_2  and  C_4
REMARK    2  A    between atoms: C_8  and  C_10
REMARK    3  A    between atoms: C_14  and  S_15
REMARK    4  A    between atoms: S_15  and  C_16
REMARK                            x       y       z     vdW  Elec       q    Type
REMARK                         _______ _______ _______ _____ _____    ______ ____
ROOT
ATOM      1  C   UNL     1      34.143  24.057  18.211  0.00  0.00    +0.093 C 
ATOM      2  C   UNL     1      34.872  23.130  17.239  0.00  0.00    +0.033 C 
ATOM      3  C   UNL     1      33.837  22.946  16.139  0.00  0.00    +0.109 C 
ATOM      4  N   UNL     1      32.608  22.767  16.900  0.00  0.00    -0.297 N 
ATOM      5  C   UNL     1      31.434  22.087  16.600  0.00  0.00    +0.247 C 
ATOM      6  O   UNL     1      30.451  22.170  17.341  0.00  0.00    -0.270 OA
ATOM      7  C   UNL     1      32.684  23.587  18.111  0.00  0.00    +0.120 C 
ENDROOT
BRANCH   5   8
ATOM      8  C   UNL     1      31.297  21.252  15.368  0.00  0.00    +0.038 A 
ATOM      9  C   UNL     1      30.415  21.549  14.329  0.00  0.00    +0.013 A 
ATOM     10  C   UNL     1      30.266  20.681  13.245  0.00  0.00    +0.002 A 
ATOM     11  C   UNL     1      31.102  19.576  13.120  0.00  0.00    +0.015 A 
ATOM     12  C   UNL     1      32.115  19.357  14.057  0.00  0.00    +0.017 A 
ATOM     13  C   UNL     1      32.181  20.169  15.199  0.00  0.00    +0.028 A 
BRANCH  12  14
ATOM     14  S   UNL     1      33.306  18.053  13.826  0.00  0.00    -0.016 S 
BRANCH  14  15
ATOM     15  C   UNL     1      32.294  16.592  14.146  0.00  0.00    +0.448 C 
ATOM     16  F   UNL     1      31.923  15.922  13.028  0.00  0.00    -0.160 F 
ATOM     17  F   UNL     1      32.953  15.710  14.934  0.00  0.00    -0.160 F 
ATOM     18  F   UNL     1      31.154  16.933  14.796  0.00  0.00    -0.160 F 
ENDBRANCH  14  15
ENDBRANCH  12  14
ENDBRANCH   5   8
BRANCH   1  20
ATOM     19  N   UNL     1      33.519  26.417  18.404  0.00  0.00    -0.329 N 
ATOM     20  C   UNL     1      34.341  25.510  17.808  0.00  0.00    +0.215 C 
ATOM     21  O   UNL     1      35.208  25.895  17.029  0.00  0.00    -0.276 OA
ATOM     22  H   UNL     1      33.706  27.392  18.207  0.00  0.00    +0.145 HD
ATOM     23  H   UNL     1      32.897  26.189  19.166  0.00  0.00    +0.145 HD
ENDBRANCH   1  20
TORSDOF 4
ENDMDL
MODEL 9
REMARK VINA RESULT:      -5.3      5.358      7.414
REMARK  Name = ZINC000826139982
REMARK  4 active torsions:
REMARK  status: ('A' for Active; 'I' for Inactive)
REMARK    1  A    between atoms: C_2  and  C_4
REMARK    2  A    between atoms: C_8  and  C_10
REMARK    3  A    between atoms: C_14  and  S_15
REMARK    4  A    between atoms: S_15  and  C_16
REMARK                            x       y       z     vdW  Elec       q    Type
REMARK                         _______ _______ _______ _____ _____    ______ ____
ROOT
ATOM      1  C   UNL     1      34.768  26.168  18.169  0.00  0.00    +0.093 C 
ATOM      2  C   UNL     1      33.303  25.924  18.530  0.00  0.00    +0.033 C 
ATOM      3  C   UNL     1      33.127  24.456  18.172  0.00  0.00    +0.109 C 
ATOM      4  N   UNL     1      33.831  24.364  16.900  0.00  0.00    -0.297 N 
ATOM      5  C   UNL     1      33.661  23.512  15.816  0.00  0.00    +0.247 C 
ATOM      6  O   UNL     1      34.461  23.517  14.877  0.00  0.00    -0.270 OA
ATOM      7  C   UNL     1      34.971  25.284  16.929  0.00  0.00    +0.120 C 
ENDROOT
BRANCH   5   8
ATOM      8  C   UNL     1      32.527  22.541  15.745  0.00  0.00    +0.038 A 
ATOM      9  C   UNL     1      31.401  22.606  16.566  0.00  0.00    +0.013 A 
ATOM     10  C   UNL     1      30.417  21.617  16.515  0.00  0.00    +0.002 A 
ATOM     11  C   UNL     1      30.479  20.626  15.540  0.00  0.00    +0.015 A 
ATOM     12  C   UNL     1      31.503  20.644  14.590  0.00  0.00    +0.017 A 
ATOM     13  C   UNL     1      32.545  21.573  14.722  0.00  0.00    +0.028 A 
BRANCH  12  14
ATOM     14  S   UNL     1      31.507  19.492  13.231  0.00  0.00    -0.016 S 
BRANCH  14  15
ATOM     15  C   UNL     1      31.906  17.948  14.079  0.00  0.00    +0.448 C 
ATOM     16  F   UNL     1      32.461  17.007  13.278  0.00  0.00    -0.160 F 
ATOM     17  F   UNL     1      32.774  18.164  15.096  0.00  0.00    -0.160 F 
ATOM     18  F   UNL     1      30.790  17.397  14.617  0.00  0.00    -0.160 F 
ENDBRANCH  14  15
ENDBRANCH  12  14
ENDBRANCH   5   8
BRANCH   1  20
ATOM     19  N   UNL     1      35.451  26.457  20.502  0.00  0.00    -0.329 N 
ATOM     20  C   UNL     1      35.671  25.794  19.334  0.00  0.00    +0.215 C 
ATOM     21  O   UNL     1      36.531  24.919  19.283  0.00  0.00    -0.276 OA
ATOM     22  H   UNL     1      35.988  26.148  21.303  0.00  0.00    +0.145 HD
ATOM     23  H   UNL     1      34.662  27.067  20.656  0.00  0.00    +0.145 HD
ENDBRANCH   1  20
TORSDOF 4
ENDMDL
