MODEL 1
REMARK VINA RESULT:      -6.2      0.000      0.000
REMARK  Name = ZINC000543478179
REMARK  8 active torsions:
REMARK  status: ('A' for Active; 'I' for Inactive)
REMARK    1  A    between atoms: C_1  and  C_2
REMARK    2  A    between atoms: C_2  and  N_3
REMARK    3  A    between atoms: N_9  and  C_10
REMARK    4  A    between atoms: C_10  and  C_11
REMARK    5  A    between atoms: C_10  and  C_12
REMARK    6  A    between atoms: C_15  and  O_16
REMARK    7  A    between atoms: O_16  and  C_17
REMARK    8  A    between atoms: C_17  and  C_18
REMARK                            x       y       z     vdW  Elec       q    Type
REMARK                         _______ _______ _______ _____ _____    ______ ____
ROOT
ATOM      1  C   UNL     1      33.320  22.981   7.981  0.00  0.00    +0.102 C 
ATOM      2  C   UNL     1      32.117  23.638   7.291  0.00  0.00    +0.033 C 
ENDROOT
BRANCH   1   9
ATOM      3  N   UNL     1      38.675  25.401   5.463  0.00  0.00    -0.299 N 
ATOM      4  C   UNL     1      37.956  24.492   4.570  0.00  0.00    +0.127 C 
ATOM      5  C   UNL     1      37.490  23.226   5.295  0.00  0.00    +0.129 C 
ATOM      6  N   UNL     1      36.630  23.601   6.414  0.00  0.00    -0.275 N 
ATOM      7  C   UNL     1      35.374  23.025   6.547  0.00  0.00    +0.303 C 
ATOM      8  O   UNL     1      34.947  22.167   5.786  0.00  0.00    -0.253 OA
ATOM      9  N   UNL     1      34.624  23.521   7.586  0.00  0.00    -0.293 N 
ATOM     10  C   UNL     1      37.195  24.608   7.313  0.00  0.00    +0.205 C 
ATOM     11  C   UNL     1      38.430  25.395   6.834  0.00  0.00    +0.233 C 
ATOM     12  O   UNL     1      39.069  26.091   7.624  0.00  0.00    -0.274 OA
ATOM     13  H   UNL     1      35.166  23.859   8.362  0.00  0.00    +0.151 HD
BRANCH   3  15
ATOM     14  C   UNL     1      38.876  26.872   3.489  0.00  0.00    +0.024 C 
ATOM     15  C   UNL     1      39.380  26.545   4.889  0.00  0.00    +0.104 C 
ENDBRANCH   3  15
ENDBRANCH   1   9
BRANCH   1  16
ATOM     16  C   UNL     1      33.195  23.140   9.492  0.00  0.00    -0.024 A 
ATOM     17  C   UNL     1      33.984  22.344  10.344  0.00  0.00    +0.009 A 
ATOM     18  C   UNL     1      33.836  22.401  11.726  0.00  0.00    +0.049 A 
ATOM     19  C   UNL     1      32.860  23.221  12.292  0.00  0.00    +0.156 A 
ATOM     20  C   UNL     1      32.116  24.061  11.460  0.00  0.00    +0.165 A 
ATOM     21  F   UNL     1      31.203  24.895  11.979  0.00  0.00    -0.202 F 
ATOM     22  C   UNL     1      32.274  24.024  10.070  0.00  0.00    +0.047 A 
BRANCH  19  23
ATOM     23  O   UNL     1      32.567  23.235  13.631  0.00  0.00    -0.489 OA
BRANCH  23  24
ATOM     24  C   UNL     1      32.754  21.980  14.291  0.00  0.00    +0.232 C 
BRANCH  24  25
ATOM     25  C   UNL     1      31.456  21.240  14.304  0.00  0.00    +0.027 C 
ATOM     26  C   UNL     1      30.926  20.660  15.589  0.00  0.00    +0.007 C 
ATOM     27  C   UNL     1      31.422  19.745  14.502  0.00  0.00    +0.007 C 
ENDBRANCH  24  25
ENDBRANCH  23  24
ENDBRANCH  19  23
ENDBRANCH   1  16
TORSDOF 6
ENDMDL
MODEL 2
REMARK VINA RESULT:      -6.0      7.587      9.427
REMARK  Name = ZINC000543478179
REMARK  8 active torsions:
REMARK  status: ('A' for Active; 'I' for Inactive)
REMARK    1  A    between atoms: C_1  and  C_2
REMARK    2  A    between atoms: C_2  and  N_3
REMARK    3  A    between atoms: N_9  and  C_10
REMARK    4  A    between atoms: C_10  and  C_11
REMARK    5  A    between atoms: C_10  and  C_12
REMARK    6  A    between atoms: C_15  and  O_16
REMARK    7  A    between atoms: O_16  and  C_17
REMARK    8  A    between atoms: C_17  and  C_18
REMARK                            x       y       z     vdW  Elec       q    Type
REMARK                         _______ _______ _______ _____ _____    ______ ____
ROOT
ATOM      1  C   UNL     1      31.921  21.487  15.131  0.00  0.00    +0.102 C 
ATOM      2  C   UNL     1      30.606  21.215  15.874  0.00  0.00    +0.033 C 
ENDROOT
BRANCH   1   9
ATOM      3  N   UNL     1      36.058  25.282  18.190  0.00  0.00    -0.299 N 
ATOM      4  C   UNL     1      35.794  25.683  16.807  0.00  0.00    +0.127 C 
ATOM      5  C   UNL     1      35.814  24.486  15.851  0.00  0.00    +0.129 C 
ATOM      6  N   UNL     1      34.816  23.510  16.281  0.00  0.00    -0.275 N 
ATOM      7  C   UNL     1      33.874  23.037  15.378  0.00  0.00    +0.303 C 
ATOM      8  O   UNL     1      33.852  23.366  14.200  0.00  0.00    -0.253 OA
ATOM      9  N   UNL     1      32.936  22.192  15.920  0.00  0.00    -0.293 N 
ATOM     10  C   UNL     1      34.900  23.126  17.691  0.00  0.00    +0.205 C 
ATOM     11  C   UNL     1      35.760  23.994  18.628  0.00  0.00    +0.233 C 
ATOM     12  O   UNL     1      36.038  23.599  19.761  0.00  0.00    -0.274 OA
ATOM     13  H   UNL     1      33.263  21.664  16.710  0.00  0.00    +0.151 HD
BRANCH   3  15
ATOM     14  C   UNL     1      37.568  27.104  18.898  0.00  0.00    +0.024 C 
ATOM     15  C   UNL     1      36.297  26.319  19.192  0.00  0.00    +0.104 C 
ENDBRANCH   3  15
ENDBRANCH   1   9
BRANCH   1  16
ATOM     16  C   UNL     1      32.531  20.169  14.668  0.00  0.00    -0.024 A 
ATOM     17  C   UNL     1      32.781  19.961  13.298  0.00  0.00    +0.009 A 
ATOM     18  C   UNL     1      33.257  18.740  12.829  0.00  0.00    +0.049 A 
ATOM     19  C   UNL     1      33.451  17.679  13.713  0.00  0.00    +0.156 A 
ATOM     20  C   UNL     1      33.269  17.896  15.082  0.00  0.00    +0.165 A 
ATOM     21  F   UNL     1      33.494  16.908  15.960  0.00  0.00    -0.202 F 
ATOM     22  C   UNL     1      32.809  19.127  15.562  0.00  0.00    +0.047 A 
BRANCH  19  23
ATOM     23  O   UNL     1      33.794  16.414  13.313  0.00  0.00    -0.489 OA
BRANCH  23  24
ATOM     24  C   UNL     1      32.686  15.524  13.151  0.00  0.00    +0.232 C 
BRANCH  24  25
ATOM     25  C   UNL     1      32.384  15.384  11.695  0.00  0.00    +0.027 C 
ATOM     26  C   UNL     1      31.125  14.689  11.244  0.00  0.00    +0.007 C 
ATOM     27  C   UNL     1      32.463  14.038  11.016  0.00  0.00    +0.007 C 
ENDBRANCH  24  25
ENDBRANCH  23  24
ENDBRANCH  19  23
ENDBRANCH   1  16
TORSDOF 6
ENDMDL
MODEL 3
REMARK VINA RESULT:      -5.9      4.641      7.281
REMARK  Name = ZINC000543478179
REMARK  8 active torsions:
REMARK  status: ('A' for Active; 'I' for Inactive)
REMARK    1  A    between atoms: C_1  and  C_2
REMARK    2  A    between atoms: C_2  and  N_3
REMARK    3  A    between atoms: N_9  and  C_10
REMARK    4  A    between atoms: C_10  and  C_11
REMARK    5  A    between atoms: C_10  and  C_12
REMARK    6  A    between atoms: C_15  and  O_16
REMARK    7  A    between atoms: O_16  and  C_17
REMARK    8  A    between atoms: C_17  and  C_18
REMARK                            x       y       z     vdW  Elec       q    Type
REMARK                         _______ _______ _______ _____ _____    ______ ____
ROOT
ATOM      1  C   UNL     1      32.210  20.446  15.036  0.00  0.00    +0.102 C 
ATOM      2  C   UNL     1      30.907  21.099  15.519  0.00  0.00    +0.033 C 
ENDROOT
BRANCH   1   9
ATOM      3  N   UNL     1      33.892  22.101   9.095  0.00  0.00    -0.299 N 
ATOM      4  C   UNL     1      33.649  20.669   9.267  0.00  0.00    +0.127 C 
ATOM      5  C   UNL     1      34.300  20.126  10.543  0.00  0.00    +0.129 C 
ATOM      6  N   UNL     1      33.780  20.856  11.696  0.00  0.00    -0.275 N 
ATOM      7  C   UNL     1      33.252  20.163  12.776  0.00  0.00    +0.303 C 
ATOM      8  O   UNL     1      33.232  18.941  12.841  0.00  0.00    -0.253 OA
ATOM      9  N   UNL     1      32.716  20.957  13.759  0.00  0.00    -0.293 N 
ATOM     10  C   UNL     1      33.852  22.314  11.584  0.00  0.00    +0.205 C 
ATOM     11  C   UNL     1      34.131  22.920  10.196  0.00  0.00    +0.233 C 
ATOM     12  O   UNL     1      34.414  24.114  10.084  0.00  0.00    -0.274 OA
ATOM     13  H   UNL     1      33.142  21.865  13.836  0.00  0.00    +0.151 HD
BRANCH   3  15
ATOM     14  C   UNL     1      32.145  23.351   7.875  0.00  0.00    +0.024 C 
ATOM     15  C   UNL     1      33.536  22.731   7.825  0.00  0.00    +0.104 C 
ENDBRANCH   3  15
ENDBRANCH   1   9
BRANCH   1  16
ATOM     16  C   UNL     1      33.303  20.647  16.079  0.00  0.00    -0.024 A 
ATOM     17  C   UNL     1      33.967  19.529  16.617  0.00  0.00    +0.009 A 
ATOM     18  C   UNL     1      34.909  19.669  17.632  0.00  0.00    +0.049 A 
ATOM     19  C   UNL     1      35.178  20.928  18.168  0.00  0.00    +0.156 A 
ATOM     20  C   UNL     1      34.573  22.050  17.597  0.00  0.00    +0.165 A 
ATOM     21  F   UNL     1      34.848  23.278  18.060  0.00  0.00    -0.202 F 
ATOM     22  C   UNL     1      33.639  21.919  16.563  0.00  0.00    +0.047 A 
BRANCH  19  23
ATOM     23  O   UNL     1      35.994  21.130  19.250  0.00  0.00    -0.489 OA
BRANCH  23  24
ATOM     24  C   UNL     1      36.270  19.951  20.013  0.00  0.00    +0.232 C 
BRANCH  24  25
ATOM     25  C   UNL     1      35.491  20.004  21.286  0.00  0.00    +0.027 C 
ATOM     26  C   UNL     1      36.205  20.106  22.609  0.00  0.00    +0.007 C 
ATOM     27  C   UNL     1      35.491  18.834  22.240  0.00  0.00    +0.007 C 
ENDBRANCH  24  25
ENDBRANCH  23  24
ENDBRANCH  19  23
ENDBRANCH   1  16
TORSDOF 6
ENDMDL
MODEL 4
REMARK VINA RESULT:      -5.9     15.718     17.614
REMARK  Name = ZINC000543478179
REMARK  8 active torsions:
REMARK  status: ('A' for Active; 'I' for Inactive)
REMARK    1  A    between atoms: C_1  and  C_2
REMARK    2  A    between atoms: C_2  and  N_3
REMARK    3  A    between atoms: N_9  and  C_10
REMARK    4  A    between atoms: C_10  and  C_11
REMARK    5  A    between atoms: C_10  and  C_12
REMARK    6  A    between atoms: C_15  and  O_16
REMARK    7  A    between atoms: O_16  and  C_17
REMARK    8  A    between atoms: C_17  and  C_18
REMARK                            x       y       z     vdW  Elec       q    Type
REMARK                         _______ _______ _______ _____ _____    ______ ____
ROOT
ATOM      1  C   UNL     1      23.321  26.148  24.535  0.00  0.00    +0.102 C 
ATOM      2  C   UNL     1      22.795  26.985  25.710  0.00  0.00    +0.033 C 
ENDROOT
BRANCH   1   9
ATOM      3  N   UNL     1      24.131  29.358  19.066  0.00  0.00    -0.299 N 
ATOM      4  C   UNL     1      23.320  28.148  18.931  0.00  0.00    +0.127 C 
ATOM      5  C   UNL     1      23.937  26.959  19.675  0.00  0.00    +0.129 C 
ATOM      6  N   UNL     1      24.083  27.299  21.087  0.00  0.00    -0.275 N 
ATOM      7  C   UNL     1      23.568  26.455  22.061  0.00  0.00    +0.303 C 
ATOM      8  O   UNL     1      23.019  25.392  21.803  0.00  0.00    -0.253 OA
ATOM      9  N   UNL     1      23.690  26.923  23.347  0.00  0.00    -0.293 N 
ATOM     10  C   UNL     1      24.771  28.565  21.347  0.00  0.00    +0.205 C 
ATOM     11  C   UNL     1      24.960  29.540  20.170  0.00  0.00    +0.233 C 
ATOM     12  O   UNL     1      25.712  30.509  20.280  0.00  0.00    -0.274 OA
ATOM     13  H   UNL     1      24.481  27.525  23.494  0.00  0.00    +0.151 HD
BRANCH   3  15
ATOM     14  C   UNL     1      24.165  30.287  16.777  0.00  0.00    +0.024 C 
ATOM     15  C   UNL     1      23.809  30.520  18.240  0.00  0.00    +0.104 C 
ENDBRANCH   3  15
ENDBRANCH   1   9
BRANCH   1  16
ATOM     16  C   UNL     1      24.552  25.364  24.974  0.00  0.00    -0.024 A 
ATOM     17  C   UNL     1      25.815  25.698  24.449  0.00  0.00    +0.009 A 
ATOM     18  C   UNL     1      26.946  24.951  24.761  0.00  0.00    +0.049 A 
ATOM     19  C   UNL     1      26.837  23.820  25.570  0.00  0.00    +0.156 A 
ATOM     20  C   UNL     1      25.601  23.519  26.148  0.00  0.00    +0.165 A 
ATOM     21  F   UNL     1      25.475  22.465  26.969  0.00  0.00    -0.202 F 
ATOM     22  C   UNL     1      24.463  24.277  25.855  0.00  0.00    +0.047 A 
BRANCH  19  23
ATOM     23  O   UNL     1      27.878  22.964  25.818  0.00  0.00    -0.489 OA
BRANCH  23  24
ATOM     24  C   UNL     1      28.216  22.111  24.720  0.00  0.00    +0.232 C 
BRANCH  24  25
ATOM     25  C   UNL     1      27.560  20.784  24.916  0.00  0.00    +0.027 C 
ATOM     26  C   UNL     1      28.057  19.573  24.169  0.00  0.00    +0.007 C 
ATOM     27  C   UNL     1      26.720  20.170  23.822  0.00  0.00    +0.007 C 
ENDBRANCH  24  25
ENDBRANCH  23  24
ENDBRANCH  19  23
ENDBRANCH   1  16
TORSDOF 6
ENDMDL
MODEL 5
REMARK VINA RESULT:      -5.8      3.972      8.864
REMARK  Name = ZINC000543478179
REMARK  8 active torsions:
REMARK  status: ('A' for Active; 'I' for Inactive)
REMARK    1  A    between atoms: C_1  and  C_2
REMARK    2  A    between atoms: C_2  and  N_3
REMARK    3  A    between atoms: N_9  and  C_10
REMARK    4  A    between atoms: C_10  and  C_11
REMARK    5  A    between atoms: C_10  and  C_12
REMARK    6  A    between atoms: C_15  and  O_16
REMARK    7  A    between atoms: O_16  and  C_17
REMARK    8  A    between atoms: C_17  and  C_18
REMARK                            x       y       z     vdW  Elec       q    Type
REMARK                         _______ _______ _______ _____ _____    ______ ____
ROOT
ATOM      1  C   UNL     1      33.486  23.059   8.235  0.00  0.00    +0.102 C 
ATOM      2  C   UNL     1      32.148  23.402   7.566  0.00  0.00    +0.033 C 
ENDROOT
BRANCH   1   9
ATOM      3  N   UNL     1      32.262  21.022  14.169  0.00  0.00    -0.299 N 
ATOM      4  C   UNL     1      31.908  22.422  13.937  0.00  0.00    +0.127 C 
ATOM      5  C   UNL     1      33.007  23.172  13.176  0.00  0.00    +0.129 C 
ATOM      6  N   UNL     1      33.248  22.506  11.900  0.00  0.00    -0.275 N 
ATOM      7  C   UNL     1      33.217  23.235  10.719  0.00  0.00    +0.303 C 
ATOM      8  O   UNL     1      33.036  24.445  10.685  0.00  0.00    -0.253 OA
ATOM      9  N   UNL     1      33.372  22.486   9.579  0.00  0.00    -0.293 N 
ATOM     10  C   UNL     1      33.489  21.065  11.994  0.00  0.00    +0.205 C 
ATOM     11  C   UNL     1      33.141  20.358  13.317  0.00  0.00    +0.233 C 
ATOM     12  O   UNL     1      33.520  19.204  13.525  0.00  0.00    -0.274 OA
ATOM     13  H   UNL     1      33.920  21.652   9.703  0.00  0.00    +0.151 HD
BRANCH   3  15
ATOM     14  C   UNL     1      30.575  21.102  15.972  0.00  0.00    +0.024 C 
ATOM     15  C   UNL     1      31.433  20.224  15.070  0.00  0.00    +0.104 C 
ENDBRANCH   3  15
ENDBRANCH   1   9
BRANCH   1  16
ATOM     16  C   UNL     1      34.251  22.062   7.372  0.00  0.00    -0.024 A 
ATOM     17  C   UNL     1      34.308  20.709   7.755  0.00  0.00    +0.009 A 
ATOM     18  C   UNL     1      35.066  19.788   7.039  0.00  0.00    +0.049 A 
ATOM     19  C   UNL     1      35.826  20.205   5.947  0.00  0.00    +0.156 A 
ATOM     20  C   UNL     1      35.725  21.532   5.520  0.00  0.00    +0.165 A 
ATOM     21  F   UNL     1      36.407  21.952   4.444  0.00  0.00    -0.202 F 
ATOM     22  C   UNL     1      34.949  22.459   6.223  0.00  0.00    +0.047 A 
BRANCH  19  23
ATOM     23  O   UNL     1      36.694  19.387   5.272  0.00  0.00    -0.489 OA
BRANCH  23  24
ATOM     24  C   UNL     1      37.439  18.496   6.109  0.00  0.00    +0.232 C 
BRANCH  24  25
ATOM     25  C   UNL     1      37.327  17.111   5.563  0.00  0.00    +0.027 C 
ATOM     26  C   UNL     1      36.039  16.645   4.934  0.00  0.00    +0.007 C 
ATOM     27  C   UNL     1      36.475  16.075   6.256  0.00  0.00    +0.007 C 
ENDBRANCH  24  25
ENDBRANCH  23  24
ENDBRANCH  19  23
ENDBRANCH   1  16
TORSDOF 6
ENDMDL
MODEL 6
REMARK VINA RESULT:      -5.8      4.351      7.017
REMARK  Name = ZINC000543478179
REMARK  8 active torsions:
REMARK  status: ('A' for Active; 'I' for Inactive)
REMARK    1  A    between atoms: C_1  and  C_2
REMARK    2  A    between atoms: C_2  and  N_3
REMARK    3  A    between atoms: N_9  and  C_10
REMARK    4  A    between atoms: C_10  and  C_11
REMARK    5  A    between atoms: C_10  and  C_12
REMARK    6  A    between atoms: C_15  and  O_16
REMARK    7  A    between atoms: O_16  and  C_17
REMARK    8  A    between atoms: C_17  and  C_18
REMARK                            x       y       z     vdW  Elec       q    Type
REMARK                         _______ _______ _______ _____ _____    ______ ____
ROOT
ATOM      1  C   UNL     1      32.483  20.443  14.776  0.00  0.00    +0.102 C 
ATOM      2  C   UNL     1      31.001  20.704  15.076  0.00  0.00    +0.033 C 
ENDROOT
BRANCH   1   9
ATOM      3  N   UNL     1      33.985  22.201   8.816  0.00  0.00    -0.299 N 
ATOM      4  C   UNL     1      33.727  20.769   8.966  0.00  0.00    +0.127 C 
ATOM      5  C   UNL     1      34.414  20.190  10.207  0.00  0.00    +0.129 C 
ATOM      6  N   UNL     1      33.944  20.902  11.392  0.00  0.00    -0.275 N 
ATOM      7  C   UNL     1      33.443  20.194  12.475  0.00  0.00    +0.303 C 
ATOM      8  O   UNL     1      33.408  18.971  12.515  0.00  0.00    -0.253 OA
ATOM      9  N   UNL     1      32.953  20.974  13.493  0.00  0.00    -0.293 N 
ATOM     10  C   UNL     1      34.033  22.361  11.308  0.00  0.00    +0.205 C 
ATOM     11  C   UNL     1      34.274  22.993   9.924  0.00  0.00    +0.233 C 
ATOM     12  O   UNL     1      34.570  24.185   9.828  0.00  0.00    -0.274 OA
ATOM     13  H   UNL     1      33.394  21.874  13.574  0.00  0.00    +0.151 HD
BRANCH   3  15
ATOM     14  C   UNL     1      32.153  23.353   7.624  0.00  0.00    +0.024 C 
ATOM     15  C   UNL     1      33.594  22.863   7.572  0.00  0.00    +0.104 C 
ENDBRANCH   3  15
ENDBRANCH   1   9
BRANCH   1  16
ATOM     16  C   UNL     1      33.345  21.057  15.872  0.00  0.00    -0.024 A 
ATOM     17  C   UNL     1      33.868  22.353  15.704  0.00  0.00    +0.009 A 
ATOM     18  C   UNL     1      34.727  22.912  16.645  0.00  0.00    +0.049 A 
ATOM     19  C   UNL     1      35.125  22.171  17.757  0.00  0.00    +0.156 A 
ATOM     20  C   UNL     1      34.561  20.909  17.967  0.00  0.00    +0.165 A 
ATOM     21  F   UNL     1      34.887  20.193  19.052  0.00  0.00    -0.202 F 
ATOM     22  C   UNL     1      33.680  20.349  17.035  0.00  0.00    +0.047 A 
BRANCH  19  23
ATOM     23  O   UNL     1      36.063  22.602  18.658  0.00  0.00    -0.489 OA
BRANCH  23  24
ATOM     24  C   UNL     1      36.214  24.023  18.721  0.00  0.00    +0.232 C 
BRANCH  24  25
ATOM     25  C   UNL     1      35.289  24.563  19.762  0.00  0.00    +0.027 C 
ATOM     26  C   UNL     1      34.240  25.580  19.392  0.00  0.00    +0.007 C 
ATOM     27  C   UNL     1      35.414  25.989  20.240  0.00  0.00    +0.007 C 
ENDBRANCH  24  25
ENDBRANCH  23  24
ENDBRANCH  19  23
ENDBRANCH   1  16
TORSDOF 6
ENDMDL
MODEL 7
REMARK VINA RESULT:      -5.7      6.661     10.167
REMARK  Name = ZINC000543478179
REMARK  8 active torsions:
REMARK  status: ('A' for Active; 'I' for Inactive)
REMARK    1  A    between atoms: C_1  and  C_2
REMARK    2  A    between atoms: C_2  and  N_3
REMARK    3  A    between atoms: N_9  and  C_10
REMARK    4  A    between atoms: C_10  and  C_11
REMARK    5  A    between atoms: C_10  and  C_12
REMARK    6  A    between atoms: C_15  and  O_16
REMARK    7  A    between atoms: O_16  and  C_17
REMARK    8  A    between atoms: C_17  and  C_18
REMARK                            x       y       z     vdW  Elec       q    Type
REMARK                         _______ _______ _______ _____ _____    ______ ____
ROOT
ATOM      1  C   UNL     1      34.613  17.096  15.264  0.00  0.00    +0.102 C 
ATOM      2  C   UNL     1      34.491  16.513  16.679  0.00  0.00    +0.033 C 
ENDROOT
BRANCH   1   9
ATOM      3  N   UNL     1      33.311  12.629  10.881  0.00  0.00    -0.299 N 
ATOM      4  C   UNL     1      34.730  12.732  11.221  0.00  0.00    +0.127 C 
ATOM      5  C   UNL     1      35.200  14.189  11.281  0.00  0.00    +0.129 C 
ATOM      6  N   UNL     1      34.403  14.911  12.268  0.00  0.00    -0.275 N 
ATOM      7  C   UNL     1      35.030  15.635  13.272  0.00  0.00    +0.303 C 
ATOM      8  O   UNL     1      36.247  15.743  13.359  0.00  0.00    -0.253 OA
ATOM      9  N   UNL     1      34.178  16.198  14.190  0.00  0.00    -0.293 N 
ATOM     10  C   UNL     1      32.954  14.776  12.106  0.00  0.00    +0.205 C 
ATOM     11  C   UNL     1      32.430  13.667  11.175  0.00  0.00    +0.233 C 
ATOM     12  O   UNL     1      31.246  13.647  10.836  0.00  0.00    -0.274 OA
ATOM     13  H   UNL     1      33.269  16.426  13.826  0.00  0.00    +0.151 HD
BRANCH   3  15
ATOM     14  C   UNL     1      33.484  10.662   9.396  0.00  0.00    +0.024 C 
ATOM     15  C   UNL     1      32.754  11.315  10.562  0.00  0.00    +0.104 C 
ENDBRANCH   3  15
ENDBRANCH   1   9
BRANCH   1  16
ATOM     16  C   UNL     1      33.786  18.372  15.161  0.00  0.00    -0.024 A 
ATOM     17  C   UNL     1      32.828  18.501  14.137  0.00  0.00    +0.009 A 
ATOM     18  C   UNL     1      32.115  19.683  13.961  0.00  0.00    +0.049 A 
ATOM     19  C   UNL     1      32.375  20.785  14.775  0.00  0.00    +0.156 A 
ATOM     20  C   UNL     1      33.276  20.646  15.834  0.00  0.00    +0.165 A 
ATOM     21  F   UNL     1      33.511  21.674  16.664  0.00  0.00    -0.202 F 
ATOM     22  C   UNL     1      33.982  19.454  16.030  0.00  0.00    +0.047 A 
BRANCH  19  23
ATOM     23  O   UNL     1      31.809  22.018  14.583  0.00  0.00    -0.489 OA
BRANCH  23  24
ATOM     24  C   UNL     1      32.573  22.896  13.750  0.00  0.00    +0.232 C 
BRANCH  24  25
ATOM     25  C   UNL     1      31.826  23.131  12.478  0.00  0.00    +0.027 C 
ATOM     26  C   UNL     1      32.509  23.785  11.306  0.00  0.00    +0.007 C 
ATOM     27  C   UNL     1      31.437  24.527  12.057  0.00  0.00    +0.007 C 
ENDBRANCH  24  25
ENDBRANCH  23  24
ENDBRANCH  19  23
ENDBRANCH   1  16
TORSDOF 6
ENDMDL
MODEL 8
REMARK VINA RESULT:      -5.6      3.732      6.238
REMARK  Name = ZINC000543478179
REMARK  8 active torsions:
REMARK  status: ('A' for Active; 'I' for Inactive)
REMARK    1  A    between atoms: C_1  and  C_2
REMARK    2  A    between atoms: C_2  and  N_3
REMARK    3  A    between atoms: N_9  and  C_10
REMARK    4  A    between atoms: C_10  and  C_11
REMARK    5  A    between atoms: C_10  and  C_12
REMARK    6  A    between atoms: C_15  and  O_16
REMARK    7  A    between atoms: O_16  and  C_17
REMARK    8  A    between atoms: C_17  and  C_18
REMARK                            x       y       z     vdW  Elec       q    Type
REMARK                         _______ _______ _______ _____ _____    ______ ____
ROOT
ATOM      1  C   UNL     1      33.174  22.217  14.731  0.00  0.00    +0.102 C 
ATOM      2  C   UNL     1      33.891  22.739  15.984  0.00  0.00    +0.033 C 
ENDROOT
BRANCH   1   9
ATOM      3  N   UNL     1      35.463  24.585   9.252  0.00  0.00    -0.299 N 
ATOM      4  C   UNL     1      34.055  24.900   9.494  0.00  0.00    +0.127 C 
ATOM      5  C   UNL     1      33.272  23.679   9.986  0.00  0.00    +0.129 C 
ATOM      6  N   UNL     1      33.882  23.179  11.214  0.00  0.00    -0.275 N 
ATOM      7  C   UNL     1      33.104  22.981  12.346  0.00  0.00    +0.303 C 
ATOM      8  O   UNL     1      31.894  23.165  12.367  0.00  0.00    -0.253 OA
ATOM      9  N   UNL     1      33.804  22.592  13.462  0.00  0.00    -0.293 N 
ATOM     10  C   UNL     1      35.325  22.947  11.133  0.00  0.00    +0.205 C 
ATOM     11  C   UNL     1      36.089  23.546   9.936  0.00  0.00    +0.233 C 
ATOM     12  O   UNL     1      37.249  23.204   9.705  0.00  0.00    -0.274 OA
ATOM     13  H   UNL     1      34.641  22.072  13.265  0.00  0.00    +0.151 HD
BRANCH   3  15
ATOM     14  C   UNL     1      36.527  26.808   9.428  0.00  0.00    +0.024 C 
ATOM     15  C   UNL     1      36.300  25.570   8.569  0.00  0.00    +0.104 C 
ENDBRANCH   3  15
ENDBRANCH   1   9
BRANCH   1  16
ATOM     16  C   UNL     1      33.103  20.695  14.777  0.00  0.00    -0.024 A 
ATOM     17  C   UNL     1      32.127  20.020  14.020  0.00  0.00    +0.009 A 
ATOM     18  C   UNL     1      31.978  18.639  14.103  0.00  0.00    +0.049 A 
ATOM     19  C   UNL     1      32.769  17.901  14.983  0.00  0.00    +0.156 A 
ATOM     20  C   UNL     1      33.784  18.552  15.690  0.00  0.00    +0.165 A 
ATOM     21  F   UNL     1      34.592  17.862  16.507  0.00  0.00    -0.202 F 
ATOM     22  C   UNL     1      33.953  19.938  15.596  0.00  0.00    +0.047 A 
BRANCH  19  23
ATOM     23  O   UNL     1      32.596  16.562  15.215  0.00  0.00    -0.489 OA
BRANCH  23  24
ATOM     24  C   UNL     1      33.380  15.709  14.375  0.00  0.00    +0.232 C 
BRANCH  24  25
ATOM     25  C   UNL     1      32.605  15.404  13.135  0.00  0.00    +0.027 C 
ATOM     26  C   UNL     1      33.152  14.437  12.117  0.00  0.00    +0.007 C 
ATOM     27  C   UNL     1      33.073  15.904  11.790  0.00  0.00    +0.007 C 
ENDBRANCH  24  25
ENDBRANCH  23  24
ENDBRANCH  19  23
ENDBRANCH   1  16
TORSDOF 6
ENDMDL
MODEL 9
REMARK VINA RESULT:      -5.6      2.931      4.090
REMARK  Name = ZINC000543478179
REMARK  8 active torsions:
REMARK  status: ('A' for Active; 'I' for Inactive)
REMARK    1  A    between atoms: C_1  and  C_2
REMARK    2  A    between atoms: C_2  and  N_3
REMARK    3  A    between atoms: N_9  and  C_10
REMARK    4  A    between atoms: C_10  and  C_11
REMARK    5  A    between atoms: C_10  and  C_12
REMARK    6  A    between atoms: C_15  and  O_16
REMARK    7  A    between atoms: O_16  and  C_17
REMARK    8  A    between atoms: C_17  and  C_18
REMARK                            x       y       z     vdW  Elec       q    Type
REMARK                         _______ _______ _______ _____ _____    ______ ____
ROOT
ATOM      1  C   UNL     1      32.318  23.312  11.711  0.00  0.00    +0.102 C 
ATOM      2  C   UNL     1      31.448  24.503  12.135  0.00  0.00    +0.033 C 
ENDROOT
BRANCH   1   9
ATOM      3  N   UNL     1      37.715  25.413   9.005  0.00  0.00    -0.299 N 
ATOM      4  C   UNL     1      36.594  25.284   8.073  0.00  0.00    +0.127 C 
ATOM      5  C   UNL     1      35.837  23.967   8.269  0.00  0.00    +0.129 C 
ATOM      6  N   UNL     1      35.347  23.892   9.642  0.00  0.00    -0.275 N 
ATOM      7  C   UNL     1      34.007  23.629   9.888  0.00  0.00    +0.303 C 
ATOM      8  O   UNL     1      33.195  23.408   9.000  0.00  0.00    -0.253 OA
ATOM      9  N   UNL     1      33.649  23.670  11.214  0.00  0.00    -0.293 N 
ATOM     10  C   UNL     1      36.361  24.135  10.670  0.00  0.00    +0.205 C 
ATOM     11  C   UNL     1      37.701  24.756  10.233  0.00  0.00    +0.233 C 
ATOM     12  O   UNL     1      38.658  24.781  11.008  0.00  0.00    -0.274 OA
ATOM     13  H   UNL     1      34.390  23.428  11.849  0.00  0.00    +0.151 HD
BRANCH   3  15
ATOM     14  C   UNL     1      38.132  27.828   9.319  0.00  0.00    +0.024 C 
ATOM     15  C   UNL     1      38.675  26.499   8.809  0.00  0.00    +0.104 C 
ENDBRANCH   3  15
ENDBRANCH   1   9
BRANCH   1  16
ATOM     16  C   UNL     1      32.506  22.367  12.893  0.00  0.00    -0.024 A 
ATOM     17  C   UNL     1      33.758  22.294  13.533  0.00  0.00    +0.009 A 
ATOM     18  C   UNL     1      33.990  21.383  14.559  0.00  0.00    +0.049 A 
ATOM     19  C   UNL     1      32.991  20.488  14.940  0.00  0.00    +0.156 A 
ATOM     20  C   UNL     1      31.727  20.596  14.355  0.00  0.00    +0.165 A 
ATOM     21  F   UNL     1      30.732  19.780  14.735  0.00  0.00    -0.202 F 
ATOM     22  C   UNL     1      31.480  21.523  13.337  0.00  0.00    +0.047 A 
BRANCH  19  23
ATOM     23  O   UNL     1      33.184  19.481  15.849  0.00  0.00    -0.489 OA
BRANCH  23  24
ATOM     24  C   UNL     1      33.868  18.336  15.329  0.00  0.00    +0.232 C 
BRANCH  24  25
ATOM     25  C   UNL     1      32.871  17.256  15.062  0.00  0.00    +0.027 C 
ATOM     26  C   UNL     1      33.310  15.956  14.441  0.00  0.00    +0.007 C 
ATOM     27  C   UNL     1      32.462  16.915  13.650  0.00  0.00    +0.007 C 
ENDBRANCH  24  25
ENDBRANCH  23  24
ENDBRANCH  19  23
ENDBRANCH   1  16
TORSDOF 6
ENDMDL
