MODEL 1
REMARK VINA RESULT:      -7.2      0.000      0.000
REMARK  Name = ZINC000826139982
REMARK  4 active torsions:
REMARK  status: ('A' for Active; 'I' for Inactive)
REMARK    1  A    between atoms: C_2  and  C_4
REMARK    2  A    between atoms: C_8  and  C_10
REMARK    3  A    between atoms: C_14  and  S_15
REMARK    4  A    between atoms: S_15  and  C_16
REMARK                            x       y       z     vdW  Elec       q    Type
REMARK                         _______ _______ _______ _____ _____    ______ ____
ROOT
ATOM      1  C   UNL     1      31.387  14.930  12.391  0.00  0.00    +0.093 C 
ATOM      2  C   UNL     1      30.254  14.022  11.899  0.00  0.00    +0.033 C 
ATOM      3  C   UNL     1      28.969  14.784  12.193  0.00  0.00    +0.109 C 
ATOM      4  N   UNL     1      29.305  15.626  13.322  0.00  0.00    -0.297 N 
ATOM      5  C   UNL     1      28.334  16.069  14.212  0.00  0.00    +0.247 C 
ATOM      6  O   UNL     1      27.165  15.696  14.125  0.00  0.00    -0.270 OA
ATOM      7  C   UNL     1      30.709  15.994  13.244  0.00  0.00    +0.120 C 
ENDROOT
BRANCH   5   8
ATOM      8  C   UNL     1      28.695  16.963  15.362  0.00  0.00    +0.038 A 
ATOM      9  C   UNL     1      29.109  16.487  16.609  0.00  0.00    +0.013 A 
ATOM     10  C   UNL     1      29.312  17.358  17.679  0.00  0.00    +0.002 A 
ATOM     11  C   UNL     1      29.205  18.730  17.485  0.00  0.00    +0.015 A 
ATOM     12  C   UNL     1      28.929  19.240  16.213  0.00  0.00    +0.017 A 
ATOM     13  C   UNL     1      28.639  18.354  15.165  0.00  0.00    +0.028 A 
BRANCH  12  14
ATOM     14  S   UNL     1      28.901  20.996  15.922  0.00  0.00    -0.016 S 
BRANCH  14  15
ATOM     15  C   UNL     1      27.655  21.529  17.114  0.00  0.00    +0.448 C 
ATOM     16  F   UNL     1      27.196  22.786  16.908  0.00  0.00    -0.160 F 
ATOM     17  F   UNL     1      26.580  20.705  17.089  0.00  0.00    -0.160 F 
ATOM     18  F   UNL     1      28.154  21.494  18.374  0.00  0.00    -0.160 F 
ENDBRANCH  14  15
ENDBRANCH  12  14
ENDBRANCH   5   8
BRANCH   1  20
ATOM     19  N   UNL     1      33.537  15.149  11.281  0.00  0.00    -0.329 N 
ATOM     20  C   UNL     1      32.229  15.536  11.284  0.00  0.00    +0.215 C 
ATOM     21  O   UNL     1      31.830  16.360  10.475  0.00  0.00    -0.276 OA
ATOM     22  H   UNL     1      34.150  15.583  10.602  0.00  0.00    +0.145 HD
ATOM     23  H   UNL     1      33.936  14.527  11.970  0.00  0.00    +0.145 HD
ENDBRANCH   1  20
TORSDOF 4
ENDMDL
MODEL 2
REMARK VINA RESULT:      -7.0      5.368      7.306
REMARK  Name = ZINC000826139982
REMARK  4 active torsions:
REMARK  status: ('A' for Active; 'I' for Inactive)
REMARK    1  A    between atoms: C_2  and  C_4
REMARK    2  A    between atoms: C_8  and  C_10
REMARK    3  A    between atoms: C_14  and  S_15
REMARK    4  A    between atoms: S_15  and  C_16
REMARK                            x       y       z     vdW  Elec       q    Type
REMARK                         _______ _______ _______ _____ _____    ______ ____
ROOT
ATOM      1  C   UNL     1      33.048  21.424  18.585  0.00  0.00    +0.093 C 
ATOM      2  C   UNL     1      33.764  22.163  17.449  0.00  0.00    +0.033 C 
ATOM      3  C   UNL     1      32.660  22.844  16.651  0.00  0.00    +0.109 C 
ATOM      4  N   UNL     1      31.496  22.012  16.872  0.00  0.00    -0.297 N 
ATOM      5  C   UNL     1      30.455  21.958  15.953  0.00  0.00    +0.247 C 
ATOM      6  O   UNL     1      30.519  22.552  14.876  0.00  0.00    -0.270 OA
ATOM      7  C   UNL     1      31.574  21.421  18.198  0.00  0.00    +0.120 C 
ENDROOT
BRANCH   5   8
ATOM      8  C   UNL     1      29.244  21.112  16.209  0.00  0.00    +0.038 A 
ATOM      9  C   UNL     1      28.001  21.636  16.577  0.00  0.00    +0.013 A 
ATOM     10  C   UNL     1      26.942  20.798  16.924  0.00  0.00    +0.002 A 
ATOM     11  C   UNL     1      27.082  19.420  16.805  0.00  0.00    +0.015 A 
ATOM     12  C   UNL     1      28.269  18.876  16.307  0.00  0.00    +0.017 A 
ATOM     13  C   UNL     1      29.357  19.721  16.046  0.00  0.00    +0.028 A 
BRANCH  12  14
ATOM     14  S   UNL     1      28.425  17.122  16.041  0.00  0.00    -0.016 S 
BRANCH  14  15
ATOM     15  C   UNL     1      29.071  16.581  17.638  0.00  0.00    +0.448 C 
ATOM     16  F   UNL     1      29.073  17.547  18.587  0.00  0.00    -0.160 F 
ATOM     17  F   UNL     1      28.346  15.546  18.127  0.00  0.00    -0.160 F 
ATOM     18  F   UNL     1      30.350  16.148  17.513  0.00  0.00    -0.160 F 
ENDBRANCH  14  15
ENDBRANCH  12  14
ENDBRANCH   5   8
BRANCH   1  20
ATOM     19  N   UNL     1      32.334  22.922  20.359  0.00  0.00    -0.329 N 
ATOM     20  C   UNL     1      33.275  22.019  19.962  0.00  0.00    +0.215 C 
ATOM     21  O   UNL     1      34.243  21.789  20.670  0.00  0.00    -0.276 OA
ATOM     22  H   UNL     1      32.484  23.395  21.241  0.00  0.00    +0.145 HD
ATOM     23  H   UNL     1      31.553  23.203  19.784  0.00  0.00    +0.145 HD
ENDBRANCH   1  20
TORSDOF 4
ENDMDL
MODEL 3
REMARK VINA RESULT:      -6.9      4.715      7.099
REMARK  Name = ZINC000826139982
REMARK  4 active torsions:
REMARK  status: ('A' for Active; 'I' for Inactive)
REMARK    1  A    between atoms: C_2  and  C_4
REMARK    2  A    between atoms: C_8  and  C_10
REMARK    3  A    between atoms: C_14  and  S_15
REMARK    4  A    between atoms: S_15  and  C_16
REMARK                            x       y       z     vdW  Elec       q    Type
REMARK                         _______ _______ _______ _____ _____    ______ ____
ROOT
ATOM      1  C   UNL     1      29.317  22.273  16.920  0.00  0.00    +0.093 C 
ATOM      2  C   UNL     1      27.789  22.368  16.837  0.00  0.00    +0.033 C 
ATOM      3  C   UNL     1      27.279  20.970  17.159  0.00  0.00    +0.109 C 
ATOM      4  N   UNL     1      28.360  20.095  16.753  0.00  0.00    -0.297 N 
ATOM      5  C   UNL     1      28.128  18.775  16.386  0.00  0.00    +0.247 C 
ATOM      6  O   UNL     1      26.987  18.320  16.311  0.00  0.00    -0.270 OA
ATOM      7  C   UNL     1      29.628  20.782  16.939  0.00  0.00    +0.120 C 
ENDROOT
BRANCH   5   8
ATOM      8  C   UNL     1      29.262  17.874  15.995  0.00  0.00    +0.038 A 
ATOM      9  C   UNL     1      30.274  17.481  16.875  0.00  0.00    +0.013 A 
ATOM     10  C   UNL     1      31.370  16.745  16.428  0.00  0.00    +0.002 A 
ATOM     11  C   UNL     1      31.414  16.299  15.111  0.00  0.00    +0.015 A 
ATOM     12  C   UNL     1      30.347  16.560  14.247  0.00  0.00    +0.017 A 
ATOM     13  C   UNL     1      29.293  17.377  14.681  0.00  0.00    +0.028 A 
BRANCH  12  14
ATOM     14  S   UNL     1      30.335  15.901  12.592  0.00  0.00    -0.016 S 
BRANCH  14  15
ATOM     15  C   UNL     1      28.680  15.182  12.514  0.00  0.00    +0.448 C 
ATOM     16  F   UNL     1      28.467  14.405  11.426  0.00  0.00    -0.160 F 
ATOM     17  F   UNL     1      28.435  14.416  13.603  0.00  0.00    -0.160 F 
ATOM     18  F   UNL     1      27.738  16.157  12.493  0.00  0.00    -0.160 F 
ENDBRANCH  14  15
ENDBRANCH  12  14
ENDBRANCH   5   8
BRANCH   1  20
ATOM     19  N   UNL     1      29.893  22.308  19.279  0.00  0.00    -0.329 N 
ATOM     20  C   UNL     1      29.927  22.999  18.104  0.00  0.00    +0.215 C 
ATOM     21  O   UNL     1      30.368  24.138  18.073  0.00  0.00    -0.276 OA
ATOM     22  H   UNL     1      30.227  22.783  20.109  0.00  0.00    +0.145 HD
ATOM     23  H   UNL     1      29.476  21.394  19.377  0.00  0.00    +0.145 HD
ENDBRANCH   1  20
TORSDOF 4
ENDMDL
MODEL 4
REMARK VINA RESULT:      -6.8      2.083      2.650
REMARK  Name = ZINC000826139982
REMARK  4 active torsions:
REMARK  status: ('A' for Active; 'I' for Inactive)
REMARK    1  A    between atoms: C_2  and  C_4
REMARK    2  A    between atoms: C_8  and  C_10
REMARK    3  A    between atoms: C_14  and  S_15
REMARK    4  A    between atoms: S_15  and  C_16
REMARK                            x       y       z     vdW  Elec       q    Type
REMARK                         _______ _______ _______ _____ _____    ______ ____
ROOT
ATOM      1  C   UNL     1      31.675  15.751  12.333  0.00  0.00    +0.093 C 
ATOM      2  C   UNL     1      33.080  15.613  12.929  0.00  0.00    +0.033 C 
ATOM      3  C   UNL     1      32.876  15.548  14.436  0.00  0.00    +0.109 C 
ATOM      4  N   UNL     1      31.644  16.274  14.660  0.00  0.00    -0.297 N 
ATOM      5  C   UNL     1      31.375  16.893  15.874  0.00  0.00    +0.247 C 
ATOM      6  O   UNL     1      32.208  16.919  16.780  0.00  0.00    -0.270 OA
ATOM      7  C   UNL     1      30.772  16.105  13.509  0.00  0.00    +0.120 C 
ENDROOT
BRANCH   5   8
ATOM      8  C   UNL     1      30.081  17.618  16.099  0.00  0.00    +0.038 A 
ATOM      9  C   UNL     1      28.913  16.992  16.545  0.00  0.00    +0.013 A 
ATOM     10  C   UNL     1      27.707  17.688  16.618  0.00  0.00    +0.002 A 
ATOM     11  C   UNL     1      27.677  19.052  16.347  0.00  0.00    +0.015 A 
ATOM     12  C   UNL     1      28.859  19.731  16.035  0.00  0.00    +0.017 A 
ATOM     13  C   UNL     1      30.048  19.005  15.876  0.00  0.00    +0.028 A 
BRANCH  12  14
ATOM     14  S   UNL     1      28.858  21.496  15.796  0.00  0.00    -0.016 S 
BRANCH  14  15
ATOM     15  C   UNL     1      28.094  22.056  17.333  0.00  0.00    +0.448 C 
ATOM     16  F   UNL     1      28.397  21.293  18.410  0.00  0.00    -0.160 F 
ATOM     17  F   UNL     1      28.473  23.323  17.626  0.00  0.00    -0.160 F 
ATOM     18  F   UNL     1      26.743  22.060  17.220  0.00  0.00    -0.160 F 
ENDBRANCH  14  15
ENDBRANCH  12  14
ENDBRANCH   5   8
BRANCH   1  20
ATOM     19  N   UNL     1      29.900  14.598  11.141  0.00  0.00    -0.329 N 
ATOM     20  C   UNL     1      31.186  14.524  11.587  0.00  0.00    +0.215 C 
ATOM     21  O   UNL     1      31.834  13.500  11.429  0.00  0.00    -0.276 OA
ATOM     22  H   UNL     1      29.511  13.774  10.699  0.00  0.00    +0.145 HD
ATOM     23  H   UNL     1      29.297  15.391  11.307  0.00  0.00    +0.145 HD
ENDBRANCH   1  20
TORSDOF 4
ENDMDL
MODEL 5
REMARK VINA RESULT:      -6.8      5.292      7.017
REMARK  Name = ZINC000826139982
REMARK  4 active torsions:
REMARK  status: ('A' for Active; 'I' for Inactive)
REMARK    1  A    between atoms: C_2  and  C_4
REMARK    2  A    between atoms: C_8  and  C_10
REMARK    3  A    between atoms: C_14  and  S_15
REMARK    4  A    between atoms: S_15  and  C_16
REMARK                            x       y       z     vdW  Elec       q    Type
REMARK                         _______ _______ _______ _____ _____    ______ ____
ROOT
ATOM      1  C   UNL     1      33.090  22.165  17.269  0.00  0.00    +0.093 C 
ATOM      2  C   UNL     1      33.580  22.637  15.896  0.00  0.00    +0.033 C 
ATOM      3  C   UNL     1      32.323  23.026  15.129  0.00  0.00    +0.109 C 
ATOM      4  N   UNL     1      31.283  22.206  15.714  0.00  0.00    -0.297 N 
ATOM      5  C   UNL     1      30.143  21.859  15.000  0.00  0.00    +0.247 C 
ATOM      6  O   UNL     1      30.010  22.164  13.815  0.00  0.00    -0.270 OA
ATOM      7  C   UNL     1      31.586  21.975  17.117  0.00  0.00    +0.120 C 
ENDROOT
BRANCH   5   8
ATOM      8  C   UNL     1      29.061  21.032  15.629  0.00  0.00    +0.038 A 
ATOM      9  C   UNL     1      27.943  21.580  16.265  0.00  0.00    +0.013 A 
ATOM     10  C   UNL     1      27.032  20.769  16.941  0.00  0.00    +0.002 A 
ATOM     11  C   UNL     1      27.171  19.387  16.900  0.00  0.00    +0.015 A 
ATOM     12  C   UNL     1      28.202  18.808  16.154  0.00  0.00    +0.017 A 
ATOM     13  C   UNL     1      29.164  19.633  15.553  0.00  0.00    +0.028 A 
BRANCH  12  14
ATOM     14  S   UNL     1      28.329  17.038  15.997  0.00  0.00    -0.016 S 
BRANCH  14  15
ATOM     15  C   UNL     1      29.032  16.593  17.598  0.00  0.00    +0.448 C 
ATOM     16  F   UNL     1      29.050  17.608  18.494  0.00  0.00    -0.160 F 
ATOM     17  F   UNL     1      28.338  15.577  18.164  0.00  0.00    -0.160 F 
ATOM     18  F   UNL     1      30.312  16.171  17.456  0.00  0.00    -0.160 F 
ENDBRANCH  14  15
ENDBRANCH  12  14
ENDBRANCH   5   8
BRANCH   1  20
ATOM     19  N   UNL     1      32.728  22.889  19.560  0.00  0.00    -0.329 N 
ATOM     20  C   UNL     1      33.434  23.101  18.413  0.00  0.00    +0.215 C 
ATOM     21  O   UNL     1      34.228  24.028  18.342  0.00  0.00    -0.276 OA
ATOM     22  H   UNL     1      32.877  23.535  20.325  0.00  0.00    +0.145 HD
ATOM     23  H   UNL     1      32.010  22.185  19.650  0.00  0.00    +0.145 HD
ENDBRANCH   1  20
TORSDOF 4
ENDMDL
MODEL 6
REMARK VINA RESULT:      -6.8      4.795      6.714
REMARK  Name = ZINC000826139982
REMARK  4 active torsions:
REMARK  status: ('A' for Active; 'I' for Inactive)
REMARK    1  A    between atoms: C_2  and  C_4
REMARK    2  A    between atoms: C_8  and  C_10
REMARK    3  A    between atoms: C_14  and  S_15
REMARK    4  A    between atoms: S_15  and  C_16
REMARK                            x       y       z     vdW  Elec       q    Type
REMARK                         _______ _______ _______ _____ _____    ______ ____
ROOT
ATOM      1  C   UNL     1      29.147  21.388  15.044  0.00  0.00    +0.093 C 
ATOM      2  C   UNL     1      28.403  21.415  16.384  0.00  0.00    +0.033 C 
ATOM      3  C   UNL     1      28.674  20.060  17.024  0.00  0.00    +0.109 C 
ATOM      4  N   UNL     1      28.904  19.176  15.900  0.00  0.00    -0.297 N 
ATOM      5  C   UNL     1      28.670  17.809  15.991  0.00  0.00    +0.247 C 
ATOM      6  O   UNL     1      28.179  17.307  17.001  0.00  0.00    -0.270 OA
ATOM      7  C   UNL     1      29.516  19.927  14.816  0.00  0.00    +0.120 C 
ENDROOT
BRANCH   5   8
ATOM      8  C   UNL     1      28.941  16.903  14.826  0.00  0.00    +0.038 A 
ATOM      9  C   UNL     1      27.935  16.365  14.017  0.00  0.00    +0.013 A 
ATOM     10  C   UNL     1      28.233  15.431  13.026  0.00  0.00    +0.002 A 
ATOM     11  C   UNL     1      29.557  15.101  12.760  0.00  0.00    +0.015 A 
ATOM     12  C   UNL     1      30.591  15.729  13.462  0.00  0.00    +0.017 A 
ATOM     13  C   UNL     1      30.277  16.599  14.516  0.00  0.00    +0.028 A 
BRANCH  12  14
ATOM     14  S   UNL     1      32.294  15.403  13.057  0.00  0.00    -0.016 S 
BRANCH  14  15
ATOM     15  C   UNL     1      32.598  16.653  11.790  0.00  0.00    +0.448 C 
ATOM     16  F   UNL     1      31.781  16.558  10.714  0.00  0.00    -0.160 F 
ATOM     17  F   UNL     1      32.445  17.900  12.296  0.00  0.00    -0.160 F 
ATOM     18  F   UNL     1      33.870  16.563  11.328  0.00  0.00    -0.160 F 
ENDBRANCH  14  15
ENDBRANCH  12  14
ENDBRANCH   5   8
BRANCH   1  20
ATOM     19  N   UNL     1      30.323  23.361  15.838  0.00  0.00    -0.329 N 
ATOM     20  C   UNL     1      30.359  22.299  14.983  0.00  0.00    +0.215 C 
ATOM     21  O   UNL     1      31.291  22.170  14.202  0.00  0.00    -0.276 OA
ATOM     22  H   UNL     1      31.079  24.032  15.780  0.00  0.00    +0.145 HD
ATOM     23  H   UNL     1      29.545  23.555  16.452  0.00  0.00    +0.145 HD
ENDBRANCH   1  20
TORSDOF 4
ENDMDL
MODEL 7
REMARK VINA RESULT:      -6.8      2.216      2.616
REMARK  Name = ZINC000826139982
REMARK  4 active torsions:
REMARK  status: ('A' for Active; 'I' for Inactive)
REMARK    1  A    between atoms: C_2  and  C_4
REMARK    2  A    between atoms: C_8  and  C_10
REMARK    3  A    between atoms: C_14  and  S_15
REMARK    4  A    between atoms: S_15  and  C_16
REMARK                            x       y       z     vdW  Elec       q    Type
REMARK                         _______ _______ _______ _____ _____    ______ ____
ROOT
ATOM      1  C   UNL     1      31.143  15.325  11.809  0.00  0.00    +0.093 C 
ATOM      2  C   UNL     1      32.059  16.401  11.215  0.00  0.00    +0.033 C 
ATOM      3  C   UNL     1      32.707  17.085  12.411  0.00  0.00    +0.109 C 
ATOM      4  N   UNL     1      31.749  16.912  13.482  0.00  0.00    -0.297 N 
ATOM      5  C   UNL     1      31.689  17.794  14.554  0.00  0.00    +0.247 C 
ATOM      6  O   UNL     1      32.391  18.805  14.593  0.00  0.00    -0.270 OA
ATOM      7  C   UNL     1      31.038  15.658  13.292  0.00  0.00    +0.120 C 
ENDROOT
BRANCH   5   8
ATOM      8  C   UNL     1      30.709  17.585  15.670  0.00  0.00    +0.038 A 
ATOM      9  C   UNL     1      30.966  16.776  16.781  0.00  0.00    +0.013 A 
ATOM     10  C   UNL     1      29.975  16.518  17.726  0.00  0.00    +0.002 A 
ATOM     11  C   UNL     1      28.742  17.153  17.629  0.00  0.00    +0.015 A 
ATOM     12  C   UNL     1      28.507  18.075  16.604  0.00  0.00    +0.017 A 
ATOM     13  C   UNL     1      29.477  18.260  15.609  0.00  0.00    +0.028 A 
BRANCH  12  14
ATOM     14  S   UNL     1      26.976  18.982  16.529  0.00  0.00    -0.016 S 
BRANCH  14  15
ATOM     15  C   UNL     1      27.553  20.668  16.822  0.00  0.00    +0.448 C 
ATOM     16  F   UNL     1      28.121  21.252  15.740  0.00  0.00    -0.160 F 
ATOM     17  F   UNL     1      26.532  21.467  17.213  0.00  0.00    -0.160 F 
ATOM     18  F   UNL     1      28.479  20.690  17.813  0.00  0.00    -0.160 F 
ENDBRANCH  14  15
ENDBRANCH  12  14
ENDBRANCH   5   8
BRANCH   1  20
ATOM     19  N   UNL     1      30.722  12.935  11.930  0.00  0.00    -0.329 N 
ATOM     20  C   UNL     1      31.616  13.902  11.575  0.00  0.00    +0.215 C 
ATOM     21  O   UNL     1      32.724  13.593  11.164  0.00  0.00    -0.276 OA
ATOM     22  H   UNL     1      31.023  11.971  11.856  0.00  0.00    +0.145 HD
ATOM     23  H   UNL     1      29.821  13.133  12.342  0.00  0.00    +0.145 HD
ENDBRANCH   1  20
TORSDOF 4
ENDMDL
MODEL 8
REMARK VINA RESULT:      -6.6      5.102      7.224
REMARK  Name = ZINC000826139982
REMARK  4 active torsions:
REMARK  status: ('A' for Active; 'I' for Inactive)
REMARK    1  A    between atoms: C_2  and  C_4
REMARK    2  A    between atoms: C_8  and  C_10
REMARK    3  A    between atoms: C_14  and  S_15
REMARK    4  A    between atoms: S_15  and  C_16
REMARK                            x       y       z     vdW  Elec       q    Type
REMARK                         _______ _______ _______ _____ _____    ______ ____
ROOT
ATOM      1  C   UNL     1      29.516  21.554  16.917  0.00  0.00    +0.093 C 
ATOM      2  C   UNL     1      29.445  21.273  18.422  0.00  0.00    +0.033 C 
ATOM      3  C   UNL     1      29.949  19.846  18.591  0.00  0.00    +0.109 C 
ATOM      4  N   UNL     1      29.643  19.209  17.327  0.00  0.00    -0.297 N 
ATOM      5  C   UNL     1      29.451  17.836  17.234  0.00  0.00    +0.247 C 
ATOM      6  O   UNL     1      29.451  17.118  18.233  0.00  0.00    -0.270 OA
ATOM      7  C   UNL     1      29.721  20.195  16.261  0.00  0.00    +0.120 C 
ENDROOT
BRANCH   5   8
ATOM      8  C   UNL     1      29.161  17.187  15.912  0.00  0.00    +0.038 A 
ATOM      9  C   UNL     1      27.870  17.016  15.404  0.00  0.00    +0.013 A 
ATOM     10  C   UNL     1      27.650  16.296  14.230  0.00  0.00    +0.002 A 
ATOM     11  C   UNL     1      28.731  15.829  13.491  0.00  0.00    +0.015 A 
ATOM     12  C   UNL     1      30.037  16.108  13.905  0.00  0.00    +0.017 A 
ATOM     13  C   UNL     1      30.246  16.754  15.132  0.00  0.00    +0.028 A 
BRANCH  12  14
ATOM     14  S   UNL     1      31.431  15.616  12.912  0.00  0.00    -0.016 S 
BRANCH  14  15
ATOM     15  C   UNL     1      30.638  14.524  11.712  0.00  0.00    +0.448 C 
ATOM     16  F   UNL     1      29.749  15.147  10.903  0.00  0.00    -0.160 F 
ATOM     17  F   UNL     1      31.560  13.937  10.912  0.00  0.00    -0.160 F 
ATOM     18  F   UNL     1      29.967  13.529  12.343  0.00  0.00    -0.160 F 
ENDBRANCH  14  15
ENDBRANCH  12  14
ENDBRANCH   5   8
BRANCH   1  20
ATOM     19  N   UNL     1      30.152  23.831  16.357  0.00  0.00    -0.329 N 
ATOM     20  C   UNL     1      30.589  22.549  16.516  0.00  0.00    +0.215 C 
ATOM     21  O   UNL     1      31.753  22.263  16.280  0.00  0.00    -0.276 OA
ATOM     22  H   UNL     1      30.821  24.514  16.023  0.00  0.00    +0.145 HD
ATOM     23  H   UNL     1      29.188  24.110  16.469  0.00  0.00    +0.145 HD
ENDBRANCH   1  20
TORSDOF 4
ENDMDL
MODEL 9
REMARK VINA RESULT:      -6.4      4.265      6.197
REMARK  Name = ZINC000826139982
REMARK  4 active torsions:
REMARK  status: ('A' for Active; 'I' for Inactive)
REMARK    1  A    between atoms: C_2  and  C_4
REMARK    2  A    between atoms: C_8  and  C_10
REMARK    3  A    between atoms: C_14  and  S_15
REMARK    4  A    between atoms: S_15  and  C_16
REMARK                            x       y       z     vdW  Elec       q    Type
REMARK                         _______ _______ _______ _____ _____    ______ ____
ROOT
ATOM      1  C   UNL     1      28.195  17.755  17.033  0.00  0.00    +0.093 C 
ATOM      2  C   UNL     1      28.272  17.367  15.552  0.00  0.00    +0.033 C 
ATOM      3  C   UNL     1      29.492  18.097  15.006  0.00  0.00    +0.109 C 
ATOM      4  N   UNL     1      29.618  19.263  15.855  0.00  0.00    -0.297 N 
ATOM      5  C   UNL     1      30.237  20.424  15.409  0.00  0.00    +0.247 C 
ATOM      6  O   UNL     1      30.628  20.537  14.247  0.00  0.00    -0.270 OA
ATOM      7  C   UNL     1      29.142  18.938  17.190  0.00  0.00    +0.120 C 
ENDROOT
BRANCH   5   8
ATOM      8  C   UNL     1      30.385  21.614  16.310  0.00  0.00    +0.038 A 
ATOM      9  C   UNL     1      29.306  22.389  16.747  0.00  0.00    +0.013 A 
ATOM     10  C   UNL     1      29.511  23.556  17.482  0.00  0.00    +0.002 A 
ATOM     11  C   UNL     1      30.796  23.906  17.882  0.00  0.00    +0.015 A 
ATOM     12  C   UNL     1      31.877  23.074  17.576  0.00  0.00    +0.017 A 
ATOM     13  C   UNL     1      31.672  21.951  16.761  0.00  0.00    +0.028 A 
BRANCH  12  14
ATOM     14  S   UNL     1      33.511  23.448  18.177  0.00  0.00    -0.016 S 
BRANCH  14  15
ATOM     15  C   UNL     1      33.520  22.557  19.747  0.00  0.00    +0.448 C 
ATOM     16  F   UNL     1      34.568  22.861  20.548  0.00  0.00    -0.160 F 
ATOM     17  F   UNL     1      32.393  22.812  20.453  0.00  0.00    -0.160 F 
ATOM     18  F   UNL     1      33.563  21.218  19.534  0.00  0.00    -0.160 F 
ENDBRANCH  14  15
ENDBRANCH  12  14
ENDBRANCH   5   8
BRANCH   1  20
ATOM     19  N   UNL     1      28.885  17.029  19.246  0.00  0.00    -0.329 N 
ATOM     20  C   UNL     1      28.524  16.628  17.994  0.00  0.00    +0.215 C 
ATOM     21  O   UNL     1      28.542  15.442  17.699  0.00  0.00    -0.276 OA
ATOM     22  H   UNL     1      29.180  16.313  19.899  0.00  0.00    +0.145 HD
ATOM     23  H   UNL     1      28.957  17.998  19.522  0.00  0.00    +0.145 HD
ENDBRANCH   1  20
TORSDOF 4
ENDMDL
