MODEL 1
REMARK VINA RESULT:      -7.8      0.000      0.000
REMARK  Name = ZINC001228612316
REMARK  5 active torsions:
REMARK  status: ('A' for Active; 'I' for Inactive)
REMARK    1  A    between atoms: C_2  and  C_4
REMARK    2  A    between atoms: C_8  and  O_9
REMARK    3  A    between atoms: O_9  and  C_10
REMARK    4  A    between atoms: C_10  and  C_11
REMARK    5  A    between atoms: C_10  and  C_17
REMARK                            x       y       z     vdW  Elec       q    Type
REMARK                         _______ _______ _______ _____ _____    ______ ____
ROOT
ATOM      1  C   UNL     1      28.993  22.166  16.982  0.00  0.00    +0.040 A 
ATOM      2  C   UNL     1      27.639  22.228  17.333  0.00  0.00    +0.013 A 
ATOM      3  C   UNL     1      26.811  21.126  17.119  0.00  0.00    +0.004 A 
ATOM      4  C   UNL     1      27.327  19.956  16.554  0.00  0.00    +0.046 A 
ATOM      5  C   UNL     1      28.673  19.885  16.196  0.00  0.00    +0.122 A 
ATOM      6  C   UNL     1      29.503  20.992  16.415  0.00  0.00    +0.058 A 
ENDROOT
BRANCH   1   8
ATOM      7  N   UNL     1      30.540  23.885  16.194  0.00  0.00    -0.325 N 
ATOM      8  C   UNL     1      29.839  23.361  17.246  0.00  0.00    +0.242 C 
ATOM      9  O   UNL     1      29.884  23.887  18.352  0.00  0.00    -0.270 OA
ATOM     10  H   UNL     1      31.023  24.757  16.371  0.00  0.00    +0.145 HD
ATOM     11  H   UNL     1      30.350  23.639  15.234  0.00  0.00    +0.145 HD
ENDBRANCH   1   8
BRANCH   5  12
ATOM     12  O   UNL     1      29.277  18.827  15.573  0.00  0.00    -0.484 OA
BRANCH  12  13
ATOM     13  C   UNL     1      28.745  17.507  15.776  0.00  0.00    +0.208 C 
BRANCH  13  14
ATOM     14  C   UNL     1      28.931  16.595  14.579  0.00  0.00    +0.011 A 
ATOM     15  C   UNL     1      27.867  16.049  13.857  0.00  0.00    +0.010 A 
ATOM     16  C   UNL     1      28.124  15.292  12.716  0.00  0.00    +0.020 A 
ATOM     17  C   UNL     1      29.441  15.105  12.331  0.00  0.00    +0.111 A 
ATOM     18  N   UNL     1      30.496  15.606  13.005  0.00  0.00    -0.263 NA
ATOM     19  C   UNL     1      30.218  16.337  14.106  0.00  0.00    +0.118 A 
ENDBRANCH  13  14
BRANCH  13  20
ATOM     20  C   UNL     1      29.454  16.855  16.958  0.00  0.00    +0.034 C 
ATOM     21  C   UNL     1      28.665  16.115  18.012  0.00  0.00    +0.008 C 
ATOM     22  C   UNL     1      29.374  17.393  18.369  0.00  0.00    +0.008 C 
ENDBRANCH  13  20
ENDBRANCH  12  13
ENDBRANCH   5  12
TORSDOF 5
ENDMDL
MODEL 2
REMARK VINA RESULT:      -7.4      1.655      2.022
REMARK  Name = ZINC001228612316
REMARK  5 active torsions:
REMARK  status: ('A' for Active; 'I' for Inactive)
REMARK    1  A    between atoms: C_2  and  C_4
REMARK    2  A    between atoms: C_8  and  O_9
REMARK    3  A    between atoms: O_9  and  C_10
REMARK    4  A    between atoms: C_10  and  C_11
REMARK    5  A    between atoms: C_10  and  C_17
REMARK                            x       y       z     vdW  Elec       q    Type
REMARK                         _______ _______ _______ _____ _____    ______ ____
ROOT
ATOM      1  C   UNL     1      27.731  21.107  16.651  0.00  0.00    +0.040 A 
ATOM      2  C   UNL     1      26.612  20.359  17.036  0.00  0.00    +0.013 A 
ATOM      3  C   UNL     1      26.552  18.995  16.752  0.00  0.00    +0.004 A 
ATOM      4  C   UNL     1      27.607  18.368  16.083  0.00  0.00    +0.046 A 
ATOM      5  C   UNL     1      28.725  19.104  15.691  0.00  0.00    +0.122 A 
ATOM      6  C   UNL     1      28.784  20.473  15.980  0.00  0.00    +0.058 A 
ENDROOT
BRANCH   1   8
ATOM      7  N   UNL     1      28.969  23.187  16.981  0.00  0.00    -0.325 N 
ATOM      8  C   UNL     1      27.755  22.555  16.993  0.00  0.00    +0.242 C 
ATOM      9  O   UNL     1      26.728  23.177  17.239  0.00  0.00    -0.270 OA
ATOM     10  H   UNL     1      28.950  24.190  17.112  0.00  0.00    +0.145 HD
ATOM     11  H   UNL     1      29.791  22.784  16.558  0.00  0.00    +0.145 HD
ENDBRANCH   1   8
BRANCH   5  12
ATOM     12  O   UNL     1      29.784  18.621  14.971  0.00  0.00    -0.484 OA
BRANCH  12  13
ATOM     13  C   UNL     1      30.200  17.261  15.177  0.00  0.00    +0.208 C 
BRANCH  13  14
ATOM     14  C   UNL     1      29.896  16.357  13.998  0.00  0.00    +0.011 A 
ATOM     15  C   UNL     1      28.598  16.020  13.604  0.00  0.00    +0.010 A 
ATOM     16  C   UNL     1      28.403  15.254  12.456  0.00  0.00    +0.020 A 
ATOM     17  C   UNL     1      29.515  14.851  11.735  0.00  0.00    +0.111 A 
ATOM     18  N   UNL     1      30.783  15.146  12.087  0.00  0.00    -0.263 NA
ATOM     19  C   UNL     1      30.943  15.891  13.202  0.00  0.00    +0.118 A 
ENDBRANCH  13  14
BRANCH  13  20
ATOM     20  C   UNL     1      31.708  17.223  15.400  0.00  0.00    +0.034 C 
ATOM     21  C   UNL     1      32.285  16.579  16.638  0.00  0.00    +0.008 C 
ATOM     22  C   UNL     1      32.411  18.065  16.442  0.00  0.00    +0.008 C 
ENDBRANCH  13  20
ENDBRANCH  12  13
ENDBRANCH   5  12
TORSDOF 5
ENDMDL
MODEL 3
REMARK VINA RESULT:      -7.4      2.390      6.396
REMARK  Name = ZINC001228612316
REMARK  5 active torsions:
REMARK  status: ('A' for Active; 'I' for Inactive)
REMARK    1  A    between atoms: C_2  and  C_4
REMARK    2  A    between atoms: C_8  and  O_9
REMARK    3  A    between atoms: O_9  and  C_10
REMARK    4  A    between atoms: C_10  and  C_11
REMARK    5  A    between atoms: C_10  and  C_17
REMARK                            x       y       z     vdW  Elec       q    Type
REMARK                         _______ _______ _______ _____ _____    ______ ____
ROOT
ATOM      1  C   UNL     1      30.753  15.542  12.849  0.00  0.00    +0.040 A 
ATOM      2  C   UNL     1      30.095  14.851  11.826  0.00  0.00    +0.013 A 
ATOM      3  C   UNL     1      28.701  14.837  11.776  0.00  0.00    +0.004 A 
ATOM      4  C   UNL     1      27.955  15.512  12.745  0.00  0.00    +0.046 A 
ATOM      5  C   UNL     1      28.599  16.201  13.773  0.00  0.00    +0.122 A 
ATOM      6  C   UNL     1      29.999  16.215  13.819  0.00  0.00    +0.058 A 
ENDROOT
BRANCH   1   8
ATOM      7  N   UNL     1      32.873  14.482  13.443  0.00  0.00    -0.325 N 
ATOM      8  C   UNL     1      32.240  15.542  12.849  0.00  0.00    +0.242 C 
ATOM      9  O   UNL     1      32.885  16.432  12.308  0.00  0.00    -0.270 OA
ATOM     10  H   UNL     1      33.879  14.449  13.339  0.00  0.00    +0.145 HD
ATOM     11  H   UNL     1      32.397  13.626  13.682  0.00  0.00    +0.145 HD
ENDBRANCH   1   8
BRANCH   5  12
ATOM     12  O   UNL     1      27.982  16.837  14.816  0.00  0.00    -0.484 OA
BRANCH  12  13
ATOM     13  C   UNL     1      28.779  17.618  15.720  0.00  0.00    +0.208 C 
BRANCH  13  14
ATOM     14  C   UNL     1      28.121  18.923  16.126  0.00  0.00    +0.011 A 
ATOM     15  C   UNL     1      26.817  19.003  16.621  0.00  0.00    +0.010 A 
ATOM     16  C   UNL     1      26.318  20.230  17.054  0.00  0.00    +0.020 A 
ATOM     17  C   UNL     1      27.143  21.340  16.981  0.00  0.00    +0.111 A 
ATOM     18  N   UNL     1      28.403  21.307  16.501  0.00  0.00    -0.263 NA
ATOM     19  C   UNL     1      28.861  20.105  16.090  0.00  0.00    +0.118 A 
ENDBRANCH  13  14
BRANCH  13  20
ATOM     20  C   UNL     1      29.024  16.818  16.996  0.00  0.00    +0.034 C 
ATOM     21  C   UNL     1      29.506  17.505  18.251  0.00  0.00    +0.008 C 
ATOM     22  C   UNL     1      30.406  16.532  17.540  0.00  0.00    +0.008 C 
ENDBRANCH  13  20
ENDBRANCH  12  13
ENDBRANCH   5  12
TORSDOF 5
ENDMDL
MODEL 4
REMARK VINA RESULT:      -7.3      1.967      6.842
REMARK  Name = ZINC001228612316
REMARK  5 active torsions:
REMARK  status: ('A' for Active; 'I' for Inactive)
REMARK    1  A    between atoms: C_2  and  C_4
REMARK    2  A    between atoms: C_8  and  O_9
REMARK    3  A    between atoms: O_9  and  C_10
REMARK    4  A    between atoms: C_10  and  C_11
REMARK    5  A    between atoms: C_10  and  C_17
REMARK                            x       y       z     vdW  Elec       q    Type
REMARK                         _______ _______ _______ _____ _____    ______ ____
ROOT
ATOM      1  C   UNL     1      29.777  15.379  12.857  0.00  0.00    +0.040 A 
ATOM      2  C   UNL     1      31.170  15.420  12.985  0.00  0.00    +0.013 A 
ATOM      3  C   UNL     1      31.765  16.322  13.868  0.00  0.00    +0.004 A 
ATOM      4  C   UNL     1      30.974  17.188  14.629  0.00  0.00    +0.046 A 
ATOM      5  C   UNL     1      29.585  17.159  14.507  0.00  0.00    +0.122 A 
ATOM      6  C   UNL     1      28.991  16.251  13.621  0.00  0.00    +0.058 A 
ENDROOT
BRANCH   1   8
ATOM      7  N   UNL     1      29.062  13.098  12.355  0.00  0.00    -0.325 N 
ATOM      8  C   UNL     1      29.191  14.388  11.915  0.00  0.00    +0.242 C 
ATOM      9  O   UNL     1      28.799  14.712  10.800  0.00  0.00    -0.270 OA
ATOM     10  H   UNL     1      28.565  12.466  11.740  0.00  0.00    +0.145 HD
ATOM     11  H   UNL     1      29.143  12.841  13.326  0.00  0.00    +0.145 HD
ENDBRANCH   1   8
BRANCH   5  12
ATOM     12  O   UNL     1      28.712  18.001  15.140  0.00  0.00    -0.484 OA
BRANCH  12  13
ATOM     13  C   UNL     1      29.068  18.528  16.428  0.00  0.00    +0.208 C 
BRANCH  13  14
ATOM     14  C   UNL     1      28.603  19.956  16.642  0.00  0.00    +0.011 A 
ATOM     15  C   UNL     1      27.267  20.303  16.859  0.00  0.00    +0.010 A 
ATOM     16  C   UNL     1      26.935  21.628  17.135  0.00  0.00    +0.020 A 
ATOM     17  C   UNL     1      27.953  22.566  17.188  0.00  0.00    +0.111 A 
ATOM     18  N   UNL     1      29.252  22.274  16.975  0.00  0.00    -0.263 NA
ATOM     19  C   UNL     1      29.546  20.982  16.712  0.00  0.00    +0.118 A 
ENDBRANCH  13  14
BRANCH  13  20
ATOM     20  C   UNL     1      28.427  17.675  17.517  0.00  0.00    +0.034 C 
ATOM     21  C   UNL     1      29.138  17.444  18.829  0.00  0.00    +0.008 C 
ATOM     22  C   UNL     1      28.922  16.293  17.884  0.00  0.00    +0.008 C 
ENDBRANCH  13  20
ENDBRANCH  12  13
ENDBRANCH   5  12
TORSDOF 5
ENDMDL
MODEL 5
REMARK VINA RESULT:      -7.0      2.249      6.626
REMARK  Name = ZINC001228612316
REMARK  5 active torsions:
REMARK  status: ('A' for Active; 'I' for Inactive)
REMARK    1  A    between atoms: C_2  and  C_4
REMARK    2  A    between atoms: C_8  and  O_9
REMARK    3  A    between atoms: O_9  and  C_10
REMARK    4  A    between atoms: C_10  and  C_11
REMARK    5  A    between atoms: C_10  and  C_17
REMARK                            x       y       z     vdW  Elec       q    Type
REMARK                         _______ _______ _______ _____ _____    ______ ____
ROOT
ATOM      1  C   UNL     1      29.968  15.432  12.701  0.00  0.00    +0.040 A 
ATOM      2  C   UNL     1      28.674  15.101  12.284  0.00  0.00    +0.013 A 
ATOM      3  C   UNL     1      27.572  15.504  13.040  0.00  0.00    +0.004 A 
ATOM      4  C   UNL     1      27.754  16.239  14.214  0.00  0.00    +0.046 A 
ATOM      5  C   UNL     1      29.039  16.570  14.642  0.00  0.00    +0.122 A 
ATOM      6  C   UNL     1      30.144  16.167  13.880  0.00  0.00    +0.058 A 
ENDROOT
BRANCH   1   8
ATOM      7  N   UNL     1      31.632  13.752  12.087  0.00  0.00    -0.325 N 
ATOM      8  C   UNL     1      31.109  14.995  11.852  0.00  0.00    +0.242 C 
ATOM      9  O   UNL     1      31.547  15.698  10.949  0.00  0.00    -0.270 OA
ATOM     10  H   UNL     1      32.334  13.434  11.431  0.00  0.00    +0.145 HD
ATOM     11  H   UNL     1      31.159  13.056  12.643  0.00  0.00    +0.145 HD
ENDBRANCH   1   8
BRANCH   5  12
ATOM     12  O   UNL     1      29.349  17.220  15.806  0.00  0.00    -0.484 OA
BRANCH  12  13
ATOM     13  C   UNL     1      30.060  18.467  15.735  0.00  0.00    +0.208 C 
BRANCH  13  14
ATOM     14  C   UNL     1      29.196  19.668  16.069  0.00  0.00    +0.011 A 
ATOM     15  C   UNL     1      27.889  19.564  16.551  0.00  0.00    +0.010 A 
ATOM     16  C   UNL     1      27.195  20.716  16.917  0.00  0.00    +0.020 A 
ATOM     17  C   UNL     1      27.833  21.939  16.791  0.00  0.00    +0.111 A 
ATOM     18  N   UNL     1      29.089  22.083  16.321  0.00  0.00    -0.263 NA
ATOM     19  C   UNL     1      29.739  20.950  15.976  0.00  0.00    +0.118 A 
ENDBRANCH  13  14
BRANCH  13  20
ATOM     20  C   UNL     1      31.213  18.447  16.733  0.00  0.00    +0.034 C 
ATOM     21  C   UNL     1      32.566  19.000  16.353  0.00  0.00    +0.008 C 
ATOM     22  C   UNL     1      32.405  17.525  16.600  0.00  0.00    +0.008 C 
ENDBRANCH  13  20
ENDBRANCH  12  13
ENDBRANCH   5  12
TORSDOF 5
ENDMDL
MODEL 6
REMARK VINA RESULT:      -6.9      1.524      2.110
REMARK  Name = ZINC001228612316
REMARK  5 active torsions:
REMARK  status: ('A' for Active; 'I' for Inactive)
REMARK    1  A    between atoms: C_2  and  C_4
REMARK    2  A    between atoms: C_8  and  O_9
REMARK    3  A    between atoms: O_9  and  C_10
REMARK    4  A    between atoms: C_10  and  C_11
REMARK    5  A    between atoms: C_10  and  C_17
REMARK                            x       y       z     vdW  Elec       q    Type
REMARK                         _______ _______ _______ _____ _____    ______ ____
ROOT
ATOM      1  C   UNL     1      29.510  21.415  17.158  0.00  0.00    +0.040 A 
ATOM      2  C   UNL     1      30.646  21.809  17.874  0.00  0.00    +0.013 A 
ATOM      3  C   UNL     1      31.830  21.080  17.762  0.00  0.00    +0.004 A 
ATOM      4  C   UNL     1      31.889  19.956  16.934  0.00  0.00    +0.046 A 
ATOM      5  C   UNL     1      30.762  19.551  16.219  0.00  0.00    +0.122 A 
ATOM      6  C   UNL     1      29.575  20.286  16.332  0.00  0.00    +0.058 A 
ENDROOT
BRANCH   1   8
ATOM      7  N   UNL     1      28.429  23.589  17.433  0.00  0.00    -0.325 N 
ATOM      8  C   UNL     1      28.277  22.235  17.298  0.00  0.00    +0.242 C 
ATOM      9  O   UNL     1      27.160  21.732  17.257  0.00  0.00    -0.270 OA
ATOM     10  H   UNL     1      27.578  24.136  17.419  0.00  0.00    +0.145 HD
ATOM     11  H   UNL     1      29.296  24.064  17.233  0.00  0.00    +0.145 HD
ENDBRANCH   1   8
BRANCH   5  12
ATOM     12  O   UNL     1      30.674  18.432  15.436  0.00  0.00    -0.484 OA
BRANCH  12  13
ATOM     13  C   UNL     1      29.569  17.535  15.631  0.00  0.00    +0.208 C 
BRANCH  13  14
ATOM     14  C   UNL     1      29.382  16.556  14.489  0.00  0.00    +0.011 A 
ATOM     15  C   UNL     1      28.130  16.192  13.986  0.00  0.00    +0.010 A 
ATOM     16  C   UNL     1      28.049  15.353  12.877  0.00  0.00    +0.020 A 
ATOM     17  C   UNL     1      29.227  14.905  12.301  0.00  0.00    +0.111 A 
ATOM     18  N   UNL     1      30.454  15.224  12.761  0.00  0.00    -0.263 NA
ATOM     19  C   UNL     1      30.503  16.040  13.837  0.00  0.00    +0.118 A 
ENDBRANCH  13  14
BRANCH  13  20
ATOM     20  C   UNL     1      29.801  16.717  16.897  0.00  0.00    +0.034 C 
ATOM     21  C   UNL     1      28.637  16.105  17.639  0.00  0.00    +0.008 C 
ATOM     22  C   UNL     1      29.433  17.210  18.279  0.00  0.00    +0.008 C 
ENDBRANCH  13  20
ENDBRANCH  12  13
ENDBRANCH   5  12
TORSDOF 5
ENDMDL
MODEL 7
REMARK VINA RESULT:      -6.9      1.817      2.978
REMARK  Name = ZINC001228612316
REMARK  5 active torsions:
REMARK  status: ('A' for Active; 'I' for Inactive)
REMARK    1  A    between atoms: C_2  and  C_4
REMARK    2  A    between atoms: C_8  and  O_9
REMARK    3  A    between atoms: O_9  and  C_10
REMARK    4  A    between atoms: C_10  and  C_11
REMARK    5  A    between atoms: C_10  and  C_17
REMARK                            x       y       z     vdW  Elec       q    Type
REMARK                         _______ _______ _______ _____ _____    ______ ____
ROOT
ATOM      1  C   UNL     1      28.509  20.982  16.582  0.00  0.00    +0.040 A 
ATOM      2  C   UNL     1      27.135  20.959  16.847  0.00  0.00    +0.013 A 
ATOM      3  C   UNL     1      26.442  19.749  16.839  0.00  0.00    +0.004 A 
ATOM      4  C   UNL     1      27.114  18.554  16.569  0.00  0.00    +0.046 A 
ATOM      5  C   UNL     1      28.483  18.565  16.300  0.00  0.00    +0.122 A 
ATOM      6  C   UNL     1      29.177  19.782  16.310  0.00  0.00    +0.058 A 
ENDROOT
BRANCH   1   8
ATOM      7  N   UNL     1      28.553  23.342  17.214  0.00  0.00    -0.325 N 
ATOM      8  C   UNL     1      29.207  22.296  16.619  0.00  0.00    +0.242 C 
ATOM      9  O   UNL     1      30.338  22.438  16.172  0.00  0.00    -0.270 OA
ATOM     10  H   UNL     1      29.087  24.195  17.322  0.00  0.00    +0.145 HD
ATOM     11  H   UNL     1      27.741  23.218  17.798  0.00  0.00    +0.145 HD
ENDBRANCH   1   8
BRANCH   5  12
ATOM     12  O   UNL     1      29.235  17.476  15.951  0.00  0.00    -0.484 OA
BRANCH  12  13
ATOM     13  C   UNL     1      29.492  17.228  14.560  0.00  0.00    +0.208 C 
BRANCH  13  14
ATOM     14  C   UNL     1      30.966  17.085  14.237  0.00  0.00    +0.011 A 
ATOM     15  C   UNL     1      31.559  15.874  13.871  0.00  0.00    +0.010 A 
ATOM     16  C   UNL     1      32.903  15.846  13.505  0.00  0.00    +0.020 A 
ATOM     17  C   UNL     1      33.614  17.035  13.514  0.00  0.00    +0.111 A 
ATOM     18  N   UNL     1      33.083  18.222  13.871  0.00  0.00    -0.263 NA
ATOM     19  C   UNL     1      31.778  18.220  14.219  0.00  0.00    +0.118 A 
ENDBRANCH  13  14
BRANCH  13  20
ATOM     20  C   UNL     1      28.810  15.927  14.145  0.00  0.00    +0.034 C 
ATOM     21  C   UNL     1      28.193  15.788  12.774  0.00  0.00    +0.008 C 
ATOM     22  C   UNL     1      27.311  15.792  13.993  0.00  0.00    +0.008 C 
ENDBRANCH  13  20
ENDBRANCH  12  13
ENDBRANCH   5  12
TORSDOF 5
ENDMDL
MODEL 8
REMARK VINA RESULT:      -6.6      2.132      3.709
REMARK  Name = ZINC001228612316
REMARK  5 active torsions:
REMARK  status: ('A' for Active; 'I' for Inactive)
REMARK    1  A    between atoms: C_2  and  C_4
REMARK    2  A    between atoms: C_8  and  O_9
REMARK    3  A    between atoms: O_9  and  C_10
REMARK    4  A    between atoms: C_10  and  C_11
REMARK    5  A    between atoms: C_10  and  C_17
REMARK                            x       y       z     vdW  Elec       q    Type
REMARK                         _______ _______ _______ _____ _____    ______ ____
ROOT
ATOM      1  C   UNL     1      28.843  20.048  15.457  0.00  0.00    +0.040 A 
ATOM      2  C   UNL     1      27.683  19.900  16.224  0.00  0.00    +0.013 A 
ATOM      3  C   UNL     1      27.286  18.634  16.656  0.00  0.00    +0.004 A 
ATOM      4  C   UNL     1      28.045  17.508  16.325  0.00  0.00    +0.046 A 
ATOM      5  C   UNL     1      29.201  17.642  15.557  0.00  0.00    +0.122 A 
ATOM      6  C   UNL     1      29.598  18.915  15.127  0.00  0.00    +0.058 A 
ENDROOT
BRANCH   1   8
ATOM      7  N   UNL     1      29.312  22.381  16.008  0.00  0.00    -0.325 N 
ATOM      8  C   UNL     1      29.234  21.420  15.036  0.00  0.00    +0.242 C 
ATOM      9  O   UNL     1      29.514  21.682  13.873  0.00  0.00    -0.270 OA
ATOM     10  H   UNL     1      29.681  23.278  15.718  0.00  0.00    +0.145 HD
ATOM     11  H   UNL     1      29.327  22.163  16.992  0.00  0.00    +0.145 HD
ENDBRANCH   1   8
BRANCH   5  12
ATOM     12  O   UNL     1      29.984  16.613  15.109  0.00  0.00    -0.484 OA
BRANCH  12  13
ATOM     13  C   UNL     1      30.090  16.387  13.694  0.00  0.00    +0.208 C 
BRANCH  13  14
ATOM     14  C   UNL     1      31.482  15.977  13.254  0.00  0.00    +0.011 A 
ATOM     15  C   UNL     1      31.895  15.974  11.919  0.00  0.00    +0.010 A 
ATOM     16  C   UNL     1      33.218  15.669  11.608  0.00  0.00    +0.020 A 
ATOM     17  C   UNL     1      34.090  15.378  12.644  0.00  0.00    +0.111 A 
ATOM     18  N   UNL     1      33.729  15.361  13.943  0.00  0.00    -0.263 NA
ATOM     19  C   UNL     1      32.441  15.662  14.217  0.00  0.00    +0.118 A 
ENDBRANCH  13  14
BRANCH  13  20
ATOM     20  C   UNL     1      29.139  15.265  13.291  0.00  0.00    +0.034 C 
ATOM     21  C   UNL     1      28.700  15.111  11.854  0.00  0.00    +0.008 C 
ATOM     22  C   UNL     1      27.696  15.504  12.903  0.00  0.00    +0.008 C 
ENDBRANCH  13  20
ENDBRANCH  12  13
ENDBRANCH   5  12
TORSDOF 5
ENDMDL
MODEL 9
REMARK VINA RESULT:      -6.4      2.298      2.935
REMARK  Name = ZINC001228612316
REMARK  5 active torsions:
REMARK  status: ('A' for Active; 'I' for Inactive)
REMARK    1  A    between atoms: C_2  and  C_4
REMARK    2  A    between atoms: C_8  and  O_9
REMARK    3  A    between atoms: O_9  and  C_10
REMARK    4  A    between atoms: C_10  and  C_11
REMARK    5  A    between atoms: C_10  and  C_17
REMARK                            x       y       z     vdW  Elec       q    Type
REMARK                         _______ _______ _______ _____ _____    ______ ____
ROOT
ATOM      1  C   UNL     1      28.601  20.673  17.203  0.00  0.00    +0.040 A 
ATOM      2  C   UNL     1      29.418  21.102  18.255  0.00  0.00    +0.013 A 
ATOM      3  C   UNL     1      30.758  20.715  18.301  0.00  0.00    +0.004 A 
ATOM      4  C   UNL     1      31.290  19.899  17.299  0.00  0.00    +0.046 A 
ATOM      5  C   UNL     1      30.484  19.463  16.248  0.00  0.00    +0.122 A 
ATOM      6  C   UNL     1      29.140  19.855  16.203  0.00  0.00    +0.058 A 
ENDROOT
BRANCH   1   8
ATOM      7  N   UNL     1      26.212  20.164  17.212  0.00  0.00    -0.325 N 
ATOM      8  C   UNL     1      27.184  21.127  17.188  0.00  0.00    +0.242 C 
ATOM      9  O   UNL     1      26.888  22.316  17.194  0.00  0.00    -0.270 OA
ATOM     10  H   UNL     1      25.260  20.496  17.309  0.00  0.00    +0.145 HD
ATOM     11  H   UNL     1      26.400  19.202  17.447  0.00  0.00    +0.145 HD
ENDBRANCH   1   8
BRANCH   5  12
ATOM     12  O   UNL     1      30.868  18.607  15.251  0.00  0.00    -0.484 OA
BRANCH  12  13
ATOM     13  C   UNL     1      30.781  17.191  15.482  0.00  0.00    +0.208 C 
BRANCH  13  14
ATOM     14  C   UNL     1      29.946  16.465  14.445  0.00  0.00    +0.011 A 
ATOM     15  C   UNL     1      28.549  16.499  14.424  0.00  0.00    +0.010 A 
ATOM     16  C   UNL     1      27.860  15.877  13.385  0.00  0.00    +0.020 A 
ATOM     17  C   UNL     1      28.592  15.242  12.395  0.00  0.00    +0.111 A 
ATOM     18  N   UNL     1      29.939  15.178  12.384  0.00  0.00    -0.263 NA
ATOM     19  C   UNL     1      30.581  15.791  13.402  0.00  0.00    +0.118 A 
ENDBRANCH  13  14
BRANCH  13  20
ATOM     20  C   UNL     1      32.181  16.586  15.441  0.00  0.00    +0.034 C 
ATOM     21  C   UNL     1      33.030  16.532  16.688  0.00  0.00    +0.008 C 
ATOM     22  C   UNL     1      33.442  17.415  15.542  0.00  0.00    +0.008 C 
ENDBRANCH  13  20
ENDBRANCH  12  13
ENDBRANCH   5  12
TORSDOF 5
ENDMDL
