MODEL 1
REMARK VINA RESULT:      -6.3      0.000      0.000
REMARK  Name = ZINC000329563636
REMARK  3 active torsions:
REMARK  status: ('A' for Active; 'I' for Inactive)
REMARK    1  A    between atoms: C_1  and  C_2
REMARK    2  A    between atoms: C_2  and  N_3
REMARK    3  A    between atoms: N_9  and  C_10
REMARK                            x       y       z     vdW  Elec       q    Type
REMARK                         _______ _______ _______ _____ _____    ______ ____
ROOT
ATOM      1  C   UNL     1      34.749  20.739  14.545  0.00  0.00    +0.112 C 
ATOM      2  C   UNL     1      35.709  21.375  15.557  0.00  0.00    +0.075 C 
ATOM      3  C   UNL     1      35.054  21.833  16.869  0.00  0.00    +0.113 C 
ATOM      4  C   UNL     1      34.890  20.720  17.937  0.00  0.00    +0.048 C 
ATOM      5  C   UNL     1      35.848  21.069  19.070  0.00  0.00    +0.004 C 
ATOM      6  C   UNL     1      35.924  22.583  19.030  0.00  0.00    +0.004 C 
ATOM      7  C   UNL     1      35.982  22.879  17.541  0.00  0.00    +0.048 C 
ATOM      8  O   UNL     1      33.787  22.479  16.640  0.00  0.00    -0.485 OA
ATOM      9  C   UNL     1      32.899  21.690  15.957  0.00  0.00    +0.126 A 
ATOM     10  C   UNL     1      31.552  21.798  16.298  0.00  0.00    +0.046 A 
ATOM     11  C   UNL     1      30.605  20.990  15.667  0.00  0.00    +0.004 A 
ATOM     12  C   UNL     1      31.004  20.093  14.679  0.00  0.00    +0.001 A 
ATOM     13  C   UNL     1      32.349  20.011  14.318  0.00  0.00    +0.009 A 
ATOM     14  C   UNL     1      33.309  20.811  14.958  0.00  0.00    +0.015 A 
ENDROOT
BRANCH   1  21
ATOM     15  N   UNL     1      34.327  22.555   8.509  0.00  0.00    -0.299 N 
ATOM     16  C   UNL     1      34.321  21.111   8.741  0.00  0.00    +0.127 C 
ATOM     17  C   UNL     1      35.439  20.690   9.687  0.00  0.00    +0.129 C 
ATOM     18  N   UNL     1      35.277  21.397  10.949  0.00  0.00    -0.275 N 
ATOM     19  C   UNL     1      35.076  20.668  12.100  0.00  0.00    +0.303 C 
ATOM     20  O   UNL     1      35.025  19.439  12.102  0.00  0.00    -0.253 OA
ATOM     21  N   UNL     1      34.904  21.391  13.243  0.00  0.00    -0.292 N 
ATOM     22  C   UNL     1      35.270  22.858  10.826  0.00  0.00    +0.205 C 
ATOM     23  C   UNL     1      34.702  23.443   9.515  0.00  0.00    +0.233 C 
ATOM     24  O   UNL     1      34.624  24.666   9.374  0.00  0.00    -0.274 OA
ATOM     25  H   UNL     1      35.293  22.319  13.280  0.00  0.00    +0.151 HD
BRANCH  15  27
ATOM     26  C   UNL     1      32.155  23.384   7.649  0.00  0.00    +0.024 C 
ATOM     27  C   UNL     1      33.612  23.068   7.346  0.00  0.00    +0.104 C 
ENDBRANCH  15  27
ENDBRANCH   1  21
TORSDOF 2
ENDMDL
MODEL 2
REMARK VINA RESULT:      -6.2      1.039      1.190
REMARK  Name = ZINC000329563636
REMARK  3 active torsions:
REMARK  status: ('A' for Active; 'I' for Inactive)
REMARK    1  A    between atoms: C_1  and  C_2
REMARK    2  A    between atoms: C_2  and  N_3
REMARK    3  A    between atoms: N_9  and  C_10
REMARK                            x       y       z     vdW  Elec       q    Type
REMARK                         _______ _______ _______ _____ _____    ______ ____
ROOT
ATOM      1  C   UNL     1      34.709  21.258  14.365  0.00  0.00    +0.112 C 
ATOM      2  C   UNL     1      35.583  22.076  15.322  0.00  0.00    +0.075 C 
ATOM      3  C   UNL     1      34.902  22.474  16.640  0.00  0.00    +0.113 C 
ATOM      4  C   UNL     1      34.949  21.390  17.749  0.00  0.00    +0.048 C 
ATOM      5  C   UNL     1      35.871  21.930  18.836  0.00  0.00    +0.004 C 
ATOM      6  C   UNL     1      35.703  23.434  18.744  0.00  0.00    +0.004 C 
ATOM      7  C   UNL     1      35.670  23.679  17.244  0.00  0.00    +0.048 C 
ATOM      8  O   UNL     1      33.542  22.903  16.434  0.00  0.00    -0.485 OA
ATOM      9  C   UNL     1      32.772  21.957  15.809  0.00  0.00    +0.126 A 
ATOM     10  C   UNL     1      31.435  21.864  16.192  0.00  0.00    +0.046 A 
ATOM     11  C   UNL     1      30.611  20.892  15.621  0.00  0.00    +0.004 A 
ATOM     12  C   UNL     1      31.119  20.032  14.650  0.00  0.00    +0.001 A 
ATOM     13  C   UNL     1      32.450  20.151  14.245  0.00  0.00    +0.009 A 
ATOM     14  C   UNL     1      33.288  21.117  14.825  0.00  0.00    +0.015 A 
ENDROOT
BRANCH   1  21
ATOM     15  N   UNL     1      34.895  22.470   8.168  0.00  0.00    -0.299 N 
ATOM     16  C   UNL     1      35.855  21.478   8.652  0.00  0.00    +0.127 C 
ATOM     17  C   UNL     1      36.594  21.970   9.892  0.00  0.00    +0.129 C 
ATOM     18  N   UNL     1      35.619  22.267  10.931  0.00  0.00    -0.275 N 
ATOM     19  C   UNL     1      35.678  21.570  12.117  0.00  0.00    +0.303 C 
ATOM     20  O   UNL     1      36.523  20.703  12.332  0.00  0.00    -0.253 OA
ATOM     21  N   UNL     1      34.720  21.876  13.038  0.00  0.00    -0.292 N 
ATOM     22  C   UNL     1      34.606  23.254  10.545  0.00  0.00    +0.205 C 
ATOM     23  C   UNL     1      34.207  23.296   9.054  0.00  0.00    +0.233 C 
ATOM     24  O   UNL     1      33.324  24.072   8.678  0.00  0.00    -0.274 OA
ATOM     25  H   UNL     1      34.293  22.787  12.994  0.00  0.00    +0.151 HD
BRANCH  15  27
ATOM     26  C   UNL     1      34.738  20.994   6.182  0.00  0.00    +0.024 C 
ATOM     27  C   UNL     1      34.412  22.347   6.797  0.00  0.00    +0.104 C 
ENDBRANCH  15  27
ENDBRANCH   1  21
TORSDOF 2
ENDMDL
MODEL 3
REMARK VINA RESULT:      -6.2      1.882      2.082
REMARK  Name = ZINC000329563636
REMARK  3 active torsions:
REMARK  status: ('A' for Active; 'I' for Inactive)
REMARK    1  A    between atoms: C_1  and  C_2
REMARK    2  A    between atoms: C_2  and  N_3
REMARK    3  A    between atoms: N_9  and  C_10
REMARK                            x       y       z     vdW  Elec       q    Type
REMARK                         _______ _______ _______ _____ _____    ______ ____
ROOT
ATOM      1  C   UNL     1      34.146  19.020  13.851  0.00  0.00    +0.112 C 
ATOM      2  C   UNL     1      35.437  18.667  14.597  0.00  0.00    +0.075 C 
ATOM      3  C   UNL     1      35.423  18.985  16.100  0.00  0.00    +0.113 C 
ATOM      4  C   UNL     1      34.778  17.890  16.989  0.00  0.00    +0.048 C 
ATOM      5  C   UNL     1      35.911  17.281  17.807  0.00  0.00    +0.004 C 
ATOM      6  C   UNL     1      36.898  18.420  17.970  0.00  0.00    +0.004 C 
ATOM      7  C   UNL     1      36.890  19.071  16.596  0.00  0.00    +0.048 C 
ATOM      8  O   UNL     1      34.811  20.260  16.374  0.00  0.00    -0.485 OA
ATOM      9  C   UNL     1      33.531  20.353  15.892  0.00  0.00    +0.126 A 
ATOM     10  C   UNL     1      32.614  21.083  16.647  0.00  0.00    +0.046 A 
ATOM     11  C   UNL     1      31.285  21.179  16.229  0.00  0.00    +0.004 A 
ATOM     12  C   UNL     1      30.882  20.566  15.045  0.00  0.00    +0.001 A 
ATOM     13  C   UNL     1      31.811  19.864  14.276  0.00  0.00    +0.009 A 
ATOM     14  C   UNL     1      33.146  19.751  14.696  0.00  0.00    +0.015 A 
ENDROOT
BRANCH   1  21
ATOM     15  N   UNL     1      34.130  22.058   8.312  0.00  0.00    -0.299 N 
ATOM     16  C   UNL     1      33.640  20.680   8.284  0.00  0.00    +0.127 C 
ATOM     17  C   UNL     1      34.585  19.733   9.016  0.00  0.00    +0.129 C 
ATOM     18  N   UNL     1      34.723  20.183  10.393  0.00  0.00    -0.275 N 
ATOM     19  C   UNL     1      34.332  19.343  11.412  0.00  0.00    +0.303 C 
ATOM     20  O   UNL     1      33.865  18.224  11.201  0.00  0.00    -0.253 OA
ATOM     21  N   UNL     1      34.462  19.835  12.676  0.00  0.00    -0.292 N 
ATOM     22  C   UNL     1      35.210  21.559  10.533  0.00  0.00    +0.205 C 
ATOM     23  C   UNL     1      34.825  22.551   9.415  0.00  0.00    +0.233 C 
ATOM     24  O   UNL     1      35.163  23.734   9.502  0.00  0.00    -0.274 OA
ATOM     25  H   UNL     1      35.145  20.557  12.836  0.00  0.00    +0.151 HD
BRANCH  15  27
ATOM     26  C   UNL     1      32.174  23.446   7.686  0.00  0.00    +0.024 C 
ATOM     27  C   UNL     1      33.587  23.000   7.340  0.00  0.00    +0.104 C 
ENDBRANCH  15  27
ENDBRANCH   1  21
TORSDOF 2
ENDMDL
MODEL 4
REMARK VINA RESULT:      -6.1      2.674      7.653
REMARK  Name = ZINC000329563636
REMARK  3 active torsions:
REMARK  status: ('A' for Active; 'I' for Inactive)
REMARK    1  A    between atoms: C_1  and  C_2
REMARK    2  A    between atoms: C_2  and  N_3
REMARK    3  A    between atoms: N_9  and  C_10
REMARK                            x       y       z     vdW  Elec       q    Type
REMARK                         _______ _______ _______ _____ _____    ______ ____
ROOT
ATOM      1  C   UNL     1      33.797  23.095  14.856  0.00  0.00    +0.112 C 
ATOM      2  C   UNL     1      34.327  23.406  13.452  0.00  0.00    +0.075 C 
ATOM      3  C   UNL     1      33.495  22.821  12.302  0.00  0.00    +0.113 C 
ATOM      4  C   UNL     1      32.276  23.682  11.878  0.00  0.00    +0.048 C 
ATOM      5  C   UNL     1      32.594  24.220  10.488  0.00  0.00    +0.004 C 
ATOM      6  C   UNL     1      33.478  23.151   9.877  0.00  0.00    +0.004 C 
ATOM      7  C   UNL     1      34.385  22.761  11.033  0.00  0.00    +0.048 C 
ATOM      8  O   UNL     1      33.066  21.474  12.579  0.00  0.00    -0.485 OA
ATOM      9  C   UNL     1      32.347  21.370  13.741  0.00  0.00    +0.126 A 
ATOM     10  C   UNL     1      31.304  20.446  13.768  0.00  0.00    +0.046 A 
ATOM     11  C   UNL     1      30.509  20.323  14.909  0.00  0.00    +0.004 A 
ATOM     12  C   UNL     1      30.774  21.108  16.029  0.00  0.00    +0.001 A 
ATOM     13  C   UNL     1      31.840  22.008  16.009  0.00  0.00    +0.009 A 
ATOM     14  C   UNL     1      32.636  22.146  14.861  0.00  0.00    +0.015 A 
ENDROOT
BRANCH   1  21
ATOM     15  N   UNL     1      37.385  20.768  19.505  0.00  0.00    -0.299 N 
ATOM     16  C   UNL     1      36.573  21.934  19.851  0.00  0.00    +0.127 C 
ATOM     17  C   UNL     1      36.704  23.038  18.808  0.00  0.00    +0.129 C 
ATOM     18  N   UNL     1      36.294  22.512  17.515  0.00  0.00    -0.275 N 
ATOM     19  C   UNL     1      35.224  23.091  16.870  0.00  0.00    +0.303 C 
ATOM     20  O   UNL     1      34.598  24.036  17.347  0.00  0.00    -0.253 OA
ATOM     21  N   UNL     1      34.873  22.534  15.676  0.00  0.00    -0.292 N 
ATOM     22  C   UNL     1      37.049  21.336  17.074  0.00  0.00    +0.205 C 
ATOM     23  C   UNL     1      37.576  20.393  18.177  0.00  0.00    +0.233 C 
ATOM     24  O   UNL     1      38.176  19.361  17.866  0.00  0.00    -0.274 OA
ATOM     25  H   UNL     1      35.579  22.034  15.160  0.00  0.00    +0.151 HD
BRANCH  15  27
ATOM     26  C   UNL     1      36.450  19.248  21.227  0.00  0.00    +0.024 C 
ATOM     27  C   UNL     1      37.697  19.810  20.561  0.00  0.00    +0.104 C 
ENDBRANCH  15  27
ENDBRANCH   1  21
TORSDOF 2
ENDMDL
MODEL 5
REMARK VINA RESULT:      -6.0      2.494      4.185
REMARK  Name = ZINC000329563636
REMARK  3 active torsions:
REMARK  status: ('A' for Active; 'I' for Inactive)
REMARK    1  A    between atoms: C_1  and  C_2
REMARK    2  A    between atoms: C_2  and  N_3
REMARK    3  A    between atoms: N_9  and  C_10
REMARK                            x       y       z     vdW  Elec       q    Type
REMARK                         _______ _______ _______ _____ _____    ______ ____
ROOT
ATOM      1  C   UNL     1      34.370  20.775  12.568  0.00  0.00    +0.112 C 
ATOM      2  C   UNL     1      33.194  21.442  13.290  0.00  0.00    +0.075 C 
ATOM      3  C   UNL     1      32.388  20.513  14.208  0.00  0.00    +0.113 C 
ATOM      4  C   UNL     1      32.977  20.335  15.632  0.00  0.00    +0.048 C 
ATOM      5  C   UNL     1      32.006  21.023  16.585  0.00  0.00    +0.004 C 
ATOM      6  C   UNL     1      30.660  20.879  15.903  0.00  0.00    +0.004 C 
ATOM      7  C   UNL     1      30.992  21.146  14.444  0.00  0.00    +0.048 C 
ATOM      8  O   UNL     1      32.168  19.222  13.607  0.00  0.00    -0.485 OA
ATOM      9  C   UNL     1      33.332  18.591  13.255  0.00  0.00    +0.126 A 
ATOM     10  C   UNL     1      33.376  17.204  13.390  0.00  0.00    +0.046 A 
ATOM     11  C   UNL     1      34.548  16.509  13.086  0.00  0.00    +0.004 A 
ATOM     12  C   UNL     1      35.666  17.200  12.624  0.00  0.00    +0.001 A 
ATOM     13  C   UNL     1      35.607  18.584  12.459  0.00  0.00    +0.009 A 
ATOM     14  C   UNL     1      34.436  19.291  12.775  0.00  0.00    +0.015 A 
ENDROOT
BRANCH   1  21
ATOM     15  N   UNL     1      35.409  22.578   6.603  0.00  0.00    -0.299 N 
ATOM     16  C   UNL     1      35.785  23.544   7.635  0.00  0.00    +0.127 C 
ATOM     17  C   UNL     1      34.674  23.730   8.662  0.00  0.00    +0.129 C 
ATOM     18  N   UNL     1      34.380  22.441   9.271  0.00  0.00    -0.275 N 
ATOM     19  C   UNL     1      34.556  22.290  10.629  0.00  0.00    +0.303 C 
ATOM     20  O   UNL     1      34.956  23.205  11.348  0.00  0.00    -0.253 OA
ATOM     21  N   UNL     1      34.290  21.052  11.133  0.00  0.00    -0.292 N 
ATOM     22  C   UNL     1      33.991  21.397   8.318  0.00  0.00    +0.205 C 
ATOM     23  C   UNL     1      34.609  21.478   6.906  0.00  0.00    +0.233 C 
ATOM     24  O   UNL     1      34.358  20.601   6.076  0.00  0.00    -0.274 OA
ATOM     25  H   UNL     1      33.651  20.461  10.625  0.00  0.00    +0.151 HD
BRANCH  15  27
ATOM     26  C   UNL     1      36.903  23.890   5.122  0.00  0.00    +0.024 C 
ATOM     27  C   UNL     1      36.158  22.583   5.351  0.00  0.00    +0.104 C 
ENDBRANCH  15  27
ENDBRANCH   1  21
TORSDOF 2
ENDMDL
MODEL 6
REMARK VINA RESULT:      -5.9      3.253      8.246
REMARK  Name = ZINC000329563636
REMARK  3 active torsions:
REMARK  status: ('A' for Active; 'I' for Inactive)
REMARK    1  A    between atoms: C_1  and  C_2
REMARK    2  A    between atoms: C_2  and  N_3
REMARK    3  A    between atoms: N_9  and  C_10
REMARK                            x       y       z     vdW  Elec       q    Type
REMARK                         _______ _______ _______ _____ _____    ______ ____
ROOT
ATOM      1  C   UNL     1      34.852  20.425  14.926  0.00  0.00    +0.112 C 
ATOM      2  C   UNL     1      35.246  19.798  13.585  0.00  0.00    +0.075 C 
ATOM      3  C   UNL     1      34.094  19.634  12.583  0.00  0.00    +0.113 C 
ATOM      4  C   UNL     1      33.781  20.897  11.739  0.00  0.00    +0.048 C 
ATOM      5  C   UNL     1      34.187  20.566  10.308  0.00  0.00    +0.004 C 
ATOM      6  C   UNL     1      33.976  19.069  10.205  0.00  0.00    +0.004 C 
ATOM      7  C   UNL     1      34.500  18.562  11.538  0.00  0.00    +0.048 C 
ATOM      8  O   UNL     1      32.890  19.164  13.222  0.00  0.00    -0.485 OA
ATOM      9  C   UNL     1      32.474  19.978  14.243  0.00  0.00    +0.126 A 
ATOM     10  C   UNL     1      31.100  20.126  14.424  0.00  0.00    +0.046 A 
ATOM     11  C   UNL     1      30.615  20.974  15.422  0.00  0.00    +0.004 A 
ATOM     12  C   UNL     1      31.505  21.652  16.252  0.00  0.00    +0.001 A 
ATOM     13  C   UNL     1      32.880  21.475  16.088  0.00  0.00    +0.009 A 
ATOM     14  C   UNL     1      33.375  20.634  15.078  0.00  0.00    +0.015 A 
ENDROOT
BRANCH   1  21
ATOM     15  N   UNL     1      36.862  18.105  20.447  0.00  0.00    -0.299 N 
ATOM     16  C   UNL     1      37.442  19.386  20.047  0.00  0.00    +0.127 C 
ATOM     17  C   UNL     1      37.924  19.357  18.600  0.00  0.00    +0.129 C 
ATOM     18  N   UNL     1      36.798  19.030  17.738  0.00  0.00    -0.275 N 
ATOM     19  C   UNL     1      36.407  19.938  16.780  0.00  0.00    +0.303 C 
ATOM     20  O   UNL     1      36.972  21.019  16.625  0.00  0.00    -0.253 OA
ATOM     21  N   UNL     1      35.329  19.582  16.024  0.00  0.00    -0.292 N 
ATOM     22  C   UNL     1      36.143  17.758  18.058  0.00  0.00    +0.205 C 
ATOM     23  C   UNL     1      36.155  17.320  19.538  0.00  0.00    +0.233 C 
ATOM     24  O   UNL     1      35.577  16.284  19.876  0.00  0.00    -0.274 OA
ATOM     25  H   UNL     1      35.124  18.601  15.921  0.00  0.00    +0.151 HD
BRANCH  15  27
ATOM     26  C   UNL     1      35.929  18.892  22.605  0.00  0.00    +0.024 C 
ATOM     27  C   UNL     1      36.730  17.826  21.873  0.00  0.00    +0.104 C 
ENDBRANCH  15  27
ENDBRANCH   1  21
TORSDOF 2
ENDMDL
MODEL 7
REMARK VINA RESULT:      -5.9      3.633      5.044
REMARK  Name = ZINC000329563636
REMARK  3 active torsions:
REMARK  status: ('A' for Active; 'I' for Inactive)
REMARK    1  A    between atoms: C_1  and  C_2
REMARK    2  A    between atoms: C_2  and  N_3
REMARK    3  A    between atoms: N_9  and  C_10
REMARK                            x       y       z     vdW  Elec       q    Type
REMARK                         _______ _______ _______ _____ _____    ______ ____
ROOT
ATOM      1  C   UNL     1      34.943  22.028  11.654  0.00  0.00    +0.112 C 
ATOM      2  C   UNL     1      35.044  21.057  12.835  0.00  0.00    +0.075 C 
ATOM      3  C   UNL     1      33.795  20.990  13.726  0.00  0.00    +0.113 C 
ATOM      4  C   UNL     1      32.685  20.033  13.218  0.00  0.00    +0.048 C 
ATOM      5  C   UNL     1      32.636  18.872  14.205  0.00  0.00    +0.004 C 
ATOM      6  C   UNL     1      33.066  19.493  15.520  0.00  0.00    +0.004 C 
ATOM      7  C   UNL     1      34.206  20.408  15.104  0.00  0.00    +0.048 C 
ATOM      8  O   UNL     1      33.238  22.296  13.970  0.00  0.00    -0.485 OA
ATOM      9  C   UNL     1      32.921  22.967  12.818  0.00  0.00    +0.126 A 
ATOM     10  C   UNL     1      31.790  23.781  12.840  0.00  0.00    +0.046 A 
ATOM     11  C   UNL     1      31.393  24.457  11.685  0.00  0.00    +0.004 A 
ATOM     12  C   UNL     1      32.142  24.336  10.517  0.00  0.00    +0.001 A 
ATOM     13  C   UNL     1      33.292  23.546  10.508  0.00  0.00    +0.009 A 
ATOM     14  C   UNL     1      33.690  22.853  11.662  0.00  0.00    +0.015 A 
ENDROOT
BRANCH   1  21
ATOM     15  N   UNL     1      39.332  26.370  10.316  0.00  0.00    -0.299 N 
ATOM     16  C   UNL     1      38.899  25.537   9.195  0.00  0.00    +0.127 C 
ATOM     17  C   UNL     1      38.892  24.057   9.565  0.00  0.00    +0.129 C 
ATOM     18  N   UNL     1      38.003  23.863  10.701  0.00  0.00    -0.275 N 
ATOM     19  C   UNL     1      36.908  23.041  10.558  0.00  0.00    +0.303 C 
ATOM     20  O   UNL     1      36.650  22.464   9.502  0.00  0.00    -0.253 OA
ATOM     21  N   UNL     1      36.101  22.923  11.650  0.00  0.00    -0.292 N 
ATOM     22  C   UNL     1      38.352  24.658  11.883  0.00  0.00    +0.205 C 
ATOM     23  C   UNL     1      39.020  26.026  11.630  0.00  0.00    +0.233 C 
ATOM     24  O   UNL     1      39.291  26.762  12.583  0.00  0.00    -0.274 OA
ATOM     25  H   UNL     1      36.504  23.095  12.558  0.00  0.00    +0.151 HD
BRANCH  15  27
ATOM     26  C   UNL     1      38.713  28.564   9.342  0.00  0.00    +0.024 C 
ATOM     27  C   UNL     1      39.782  27.728  10.029  0.00  0.00    +0.104 C 
ENDBRANCH  15  27
ENDBRANCH   1  21
TORSDOF 2
ENDMDL
MODEL 8
REMARK VINA RESULT:      -5.9      2.216      4.512
REMARK  Name = ZINC000329563636
REMARK  3 active torsions:
REMARK  status: ('A' for Active; 'I' for Inactive)
REMARK    1  A    between atoms: C_1  and  C_2
REMARK    2  A    between atoms: C_2  and  N_3
REMARK    3  A    between atoms: N_9  and  C_10
REMARK                            x       y       z     vdW  Elec       q    Type
REMARK                         _______ _______ _______ _____ _____    ______ ____
ROOT
ATOM      1  C   UNL     1      33.320  22.528  12.197  0.00  0.00    +0.112 C 
ATOM      2  C   UNL     1      32.102  21.837  12.821  0.00  0.00    +0.075 C 
ATOM      3  C   UNL     1      32.329  21.278  14.233  0.00  0.00    +0.113 C 
ATOM      4  C   UNL     1      32.153  22.310  15.378  0.00  0.00    +0.048 C 
ATOM      5  C   UNL     1      30.898  21.896  16.137  0.00  0.00    +0.004 C 
ATOM      6  C   UNL     1      30.849  20.390  15.968  0.00  0.00    +0.004 C 
ATOM      7  C   UNL     1      31.249  20.201  14.514  0.00  0.00    +0.048 C 
ATOM      8  O   UNL     1      33.611  20.629  14.354  0.00  0.00    -0.485 OA
ATOM      9  C   UNL     1      34.659  21.452  14.033  0.00  0.00    +0.126 A 
ATOM     10  C   UNL     1      35.839  21.299  14.758  0.00  0.00    +0.046 A 
ATOM     11  C   UNL     1      36.928  22.135  14.504  0.00  0.00    +0.004 A 
ATOM     12  C   UNL     1      36.842  23.106  13.509  0.00  0.00    +0.001 A 
ATOM     13  C   UNL     1      35.670  23.233  12.763  0.00  0.00    +0.009 A 
ATOM     14  C   UNL     1      34.566  22.405  13.021  0.00  0.00    +0.015 A 
ENDROOT
BRANCH   1  21
ATOM     15  N   UNL     1      35.376  21.320   6.347  0.00  0.00    -0.299 N 
ATOM     16  C   UNL     1      35.078  22.722   6.640  0.00  0.00    +0.127 C 
ATOM     17  C   UNL     1      33.722  22.877   7.319  0.00  0.00    +0.129 C 
ATOM     18  N   UNL     1      33.723  22.101   8.550  0.00  0.00    -0.275 N 
ATOM     19  C   UNL     1      33.534  22.753   9.748  0.00  0.00    +0.303 C 
ATOM     20  O   UNL     1      33.367  23.969   9.819  0.00  0.00    -0.253 OA
ATOM     21  N   UNL     1      33.573  21.973  10.866  0.00  0.00    -0.292 N 
ATOM     22  C   UNL     1      34.013  20.676   8.365  0.00  0.00    +0.205 C 
ATOM     23  C   UNL     1      34.950  20.301   7.197  0.00  0.00    +0.233 C 
ATOM     24  O   UNL     1      35.270  19.123   7.022  0.00  0.00    -0.274 OA
ATOM     25  H   UNL     1      33.354  20.994  10.769  0.00  0.00    +0.151 HD
BRANCH  15  27
ATOM     26  C   UNL     1      36.938  22.284   4.680  0.00  0.00    +0.024 C 
ATOM     27  C   UNL     1      36.409  21.029   5.359  0.00  0.00    +0.104 C 
ENDBRANCH  15  27
ENDBRANCH   1  21
TORSDOF 2
ENDMDL
MODEL 9
REMARK VINA RESULT:      -5.8      2.152      4.173
REMARK  Name = ZINC000329563636
REMARK  3 active torsions:
REMARK  status: ('A' for Active; 'I' for Inactive)
REMARK    1  A    between atoms: C_1  and  C_2
REMARK    2  A    between atoms: C_2  and  N_3
REMARK    3  A    between atoms: N_9  and  C_10
REMARK                            x       y       z     vdW  Elec       q    Type
REMARK                         _______ _______ _______ _____ _____    ______ ____
ROOT
ATOM      1  C   UNL     1      34.224  21.421  17.189  0.00  0.00    +0.112 C 
ATOM      2  C   UNL     1      34.815  20.055  17.557  0.00  0.00    +0.075 C 
ATOM      3  C   UNL     1      36.005  20.105  18.525  0.00  0.00    +0.113 C 
ATOM      4  C   UNL     1      35.619  20.183  20.026  0.00  0.00    +0.048 C 
ATOM      5  C   UNL     1      36.029  18.851  20.643  0.00  0.00    +0.004 C 
ATOM      6  C   UNL     1      37.220  18.414  19.813  0.00  0.00    +0.004 C 
ATOM      7  C   UNL     1      36.796  18.776  18.399  0.00  0.00    +0.048 C 
ATOM      8  O   UNL     1      36.918  21.171  18.200  0.00  0.00    -0.485 OA
ATOM      9  C   UNL     1      36.317  22.402  18.178  0.00  0.00    +0.126 A 
ATOM     10  C   UNL     1      37.068  23.489  18.623  0.00  0.00    +0.046 A 
ATOM     11  C   UNL     1      36.496  24.763  18.663  0.00  0.00    +0.004 A 
ATOM     12  C   UNL     1      35.184  24.950  18.235  0.00  0.00    +0.001 A 
ATOM     13  C   UNL     1      34.447  23.864  17.759  0.00  0.00    +0.009 A 
ATOM     14  C   UNL     1      35.011  22.578  17.728  0.00  0.00    +0.015 A 
ENDROOT
BRANCH   1  21
ATOM     15  N   UNL     1      33.158  23.282  11.247  0.00  0.00    -0.299 N 
ATOM     16  C   UNL     1      32.056  23.490  12.186  0.00  0.00    +0.127 C 
ATOM     17  C   UNL     1      31.781  22.239  13.013  0.00  0.00    +0.129 C 
ATOM     18  N   UNL     1      32.991  21.881  13.738  0.00  0.00    -0.275 N 
ATOM     19  C   UNL     1      32.962  21.860  15.115  0.00  0.00    +0.303 C 
ATOM     20  O   UNL     1      31.950  22.137  15.757  0.00  0.00    -0.253 OA
ATOM     21  N   UNL     1      34.135  21.544  15.733  0.00  0.00    -0.292 N 
ATOM     22  C   UNL     1      34.160  21.650  12.884  0.00  0.00    +0.205 C 
ATOM     23  C   UNL     1      34.238  22.464  11.575  0.00  0.00    +0.233 C 
ATOM     24  O   UNL     1      35.222  22.350  10.840  0.00  0.00    -0.274 OA
ATOM     25  H   UNL     1      34.808  20.995  15.222  0.00  0.00    +0.151 HD
BRANCH  15  27
ATOM     26  C   UNL     1      32.604  23.688   8.865  0.00  0.00    +0.024 C 
ATOM     27  C   UNL     1      33.286  24.204  10.124  0.00  0.00    +0.104 C 
ENDBRANCH  15  27
ENDBRANCH   1  21
TORSDOF 2
ENDMDL
