MODEL 1
REMARK VINA RESULT:      -7.2      0.000      0.000
REMARK  Name = ZINC000870248439
REMARK  2 active torsions:
REMARK  status: ('A' for Active; 'I' for Inactive)
REMARK    1  A    between atoms: C_2  and  C_4
REMARK    2  A    between atoms: C_7  and  C_8
REMARK                            x       y       z     vdW  Elec       q    Type
REMARK                         _______ _______ _______ _____ _____    ______ ____
ROOT
ATOM      1  C   UNL     1      31.304  21.673  15.361  0.00  0.00    +0.247 C 
ATOM      2  O   UNL     1      31.240  20.444  15.357  0.00  0.00    -0.270 OA
ATOM      3  N   UNL     1      31.880  22.415  14.321  0.00  0.00    -0.297 N 
ATOM      4  C   UNL     1      32.016  23.873  14.289  0.00  0.00    +0.108 C 
ATOM      5  C   UNL     1      31.798  24.469  12.904  0.00  0.00    +0.026 C 
ATOM      6  C   UNL     1      32.621  23.777  11.796  0.00  0.00    -0.025 C 
ATOM      7  C   UNL     1      32.132  24.338  10.437  0.00  0.00    +0.017 C 
ATOM      8  C   UNL     1      32.860  23.793   9.215  0.00  0.00    +0.069 C 
ATOM      9  S   UNL     1      34.637  24.156   9.253  0.00  0.00    -0.161 S 
ATOM     10  C   UNL     1      35.037  23.520  10.904  0.00  0.00    +0.069 C 
ATOM     11  C   UNL     1      34.125  24.107  11.976  0.00  0.00    +0.017 C 
ATOM     12  C   UNL     1      32.328  22.257  11.894  0.00  0.00    +0.026 C 
ATOM     13  C   UNL     1      32.603  21.684  13.284  0.00  0.00    +0.108 C 
ENDROOT
BRANCH   1  17
ATOM     14  C   UNL     1      29.525  23.450  18.812  0.00  0.00    +0.037 A 
ATOM     15  C   UNL     1      28.729  23.182  17.692  0.00  0.00    +0.014 A 
ATOM     16  C   UNL     1      29.319  22.692  16.527  0.00  0.00    +0.014 A 
ATOM     17  C   UNL     1      30.682  22.379  16.509  0.00  0.00    +0.037 A 
ATOM     18  C   UNL     1      31.491  22.731  17.596  0.00  0.00    +0.014 A 
ATOM     19  C   UNL     1      30.913  23.277  18.745  0.00  0.00    +0.014 A 
BRANCH  14  21
ATOM     20  N   UNL     1      27.615  24.322  20.036  0.00  0.00    -0.325 N 
ATOM     21  C   UNL     1      28.921  23.921  20.083  0.00  0.00    +0.242 C 
ATOM     22  O   UNL     1      29.542  23.900  21.135  0.00  0.00    -0.270 OA
ATOM     23  H   UNL     1      27.179  24.524  20.927  0.00  0.00    +0.145 HD
ATOM     24  H   UNL     1      27.009  24.104  19.257  0.00  0.00    +0.145 HD
ENDBRANCH  14  21
ENDBRANCH   1  17
TORSDOF 2
ENDMDL
MODEL 2
REMARK VINA RESULT:      -7.2      1.936      2.248
REMARK  Name = ZINC000870248439
REMARK  2 active torsions:
REMARK  status: ('A' for Active; 'I' for Inactive)
REMARK    1  A    between atoms: C_2  and  C_4
REMARK    2  A    between atoms: C_7  and  C_8
REMARK                            x       y       z     vdW  Elec       q    Type
REMARK                         _______ _______ _______ _____ _____    ______ ____
ROOT
ATOM      1  C   UNL     1      31.683  21.948  15.032  0.00  0.00    +0.247 C 
ATOM      2  O   UNL     1      32.373  21.050  15.512  0.00  0.00    -0.270 OA
ATOM      3  N   UNL     1      32.117  22.774  13.986  0.00  0.00    -0.297 N 
ATOM      4  C   UNL     1      31.354  23.879  13.401  0.00  0.00    +0.108 C 
ATOM      5  C   UNL     1      31.535  24.004  11.893  0.00  0.00    +0.026 C 
ATOM      6  C   UNL     1      33.012  24.005  11.444  0.00  0.00    -0.025 C 
ATOM      7  C   UNL     1      33.026  23.915   9.897  0.00  0.00    +0.017 C 
ATOM      8  C   UNL     1      34.411  23.940   9.263  0.00  0.00    +0.069 C 
ATOM      9  S   UNL     1      35.316  25.465   9.646  0.00  0.00    -0.161 S 
ATOM     10  C   UNL     1      35.147  25.468  11.451  0.00  0.00    +0.069 C 
ATOM     11  C   UNL     1      33.693  25.326  11.887  0.00  0.00    +0.017 C 
ATOM     12  C   UNL     1      33.679  22.752  12.069  0.00  0.00    +0.026 C 
ATOM     13  C   UNL     1      33.519  22.684  13.588  0.00  0.00    +0.108 C 
ENDROOT
BRANCH   1  17
ATOM     14  C   UNL     1      27.798  22.206  16.783  0.00  0.00    +0.037 A 
ATOM     15  C   UNL     1      27.967  21.483  15.598  0.00  0.00    +0.014 A 
ATOM     16  C   UNL     1      29.211  21.474  14.966  0.00  0.00    +0.014 A 
ATOM     17  C   UNL     1      30.307  22.103  15.566  0.00  0.00    +0.037 A 
ATOM     18  C   UNL     1      30.116  22.900  16.702  0.00  0.00    +0.014 A 
ATOM     19  C   UNL     1      28.857  22.960  17.305  0.00  0.00    +0.014 A 
BRANCH  14  21
ATOM     20  N   UNL     1      26.529  22.534  18.830  0.00  0.00    -0.325 N 
ATOM     21  C   UNL     1      26.502  22.193  17.507  0.00  0.00    +0.242 C 
ATOM     22  O   UNL     1      25.451  21.942  16.936  0.00  0.00    -0.270 OA
ATOM     23  H   UNL     1      25.629  22.641  19.281  0.00  0.00    +0.145 HD
ATOM     24  H   UNL     1      27.321  22.995  19.255  0.00  0.00    +0.145 HD
ENDBRANCH  14  21
ENDBRANCH   1  17
TORSDOF 2
ENDMDL
MODEL 3
REMARK VINA RESULT:      -7.1      2.132      3.013
REMARK  Name = ZINC000870248439
REMARK  2 active torsions:
REMARK  status: ('A' for Active; 'I' for Inactive)
REMARK    1  A    between atoms: C_2  and  C_4
REMARK    2  A    between atoms: C_7  and  C_8
REMARK                            x       y       z     vdW  Elec       q    Type
REMARK                         _______ _______ _______ _____ _____    ______ ____
ROOT
ATOM      1  C   UNL     1      31.901  20.089  13.134  0.00  0.00    +0.247 C 
ATOM      2  O   UNL     1      32.024  18.865  13.127  0.00  0.00    -0.270 OA
ATOM      3  N   UNL     1      32.466  20.923  12.160  0.00  0.00    -0.297 N 
ATOM      4  C   UNL     1      32.382  22.385  12.138  0.00  0.00    +0.108 C 
ATOM      5  C   UNL     1      32.228  22.959  10.735  0.00  0.00    +0.026 C 
ATOM      6  C   UNL     1      33.262  22.413   9.726  0.00  0.00    -0.025 C 
ATOM      7  C   UNL     1      32.844  22.911   8.319  0.00  0.00    +0.017 C 
ATOM      8  C   UNL     1      33.776  22.498   7.187  0.00  0.00    +0.069 C 
ATOM      9  S   UNL     1      35.462  23.125   7.418  0.00  0.00    -0.161 S 
ATOM     10  C   UNL     1      35.772  22.536   9.105  0.00  0.00    +0.069 C 
ATOM     11  C   UNL     1      34.670  22.964  10.068  0.00  0.00    +0.017 C 
ATOM     12  C   UNL     1      33.195  20.865   9.797  0.00  0.00    +0.026 C 
ATOM     13  C   UNL     1      33.401  20.322  11.212  0.00  0.00    +0.108 C 
ENDROOT
BRANCH   1  17
ATOM     14  C   UNL     1      29.451  22.026  16.046  0.00  0.00    +0.037 A 
ATOM     15  C   UNL     1      30.822  21.882  16.290  0.00  0.00    +0.014 A 
ATOM     16  C   UNL     1      31.613  21.166  15.392  0.00  0.00    +0.014 A 
ATOM     17  C   UNL     1      31.058  20.678  14.204  0.00  0.00    +0.037 A 
ATOM     18  C   UNL     1      29.673  20.744  14.004  0.00  0.00    +0.014 A 
ATOM     19  C   UNL     1      28.867  21.410  14.932  0.00  0.00    +0.014 A 
BRANCH  14  21
ATOM     20  N   UNL     1      27.256  22.547  16.949  0.00  0.00    -0.325 N 
ATOM     21  C   UNL     1      28.594  22.827  16.955  0.00  0.00    +0.242 C 
ATOM     22  O   UNL     1      29.066  23.660  17.714  0.00  0.00    -0.270 OA
ATOM     23  H   UNL     1      26.701  23.011  17.657  0.00  0.00    +0.145 HD
ATOM     24  H   UNL     1      26.881  21.703  16.540  0.00  0.00    +0.145 HD
ENDBRANCH  14  21
ENDBRANCH   1  17
TORSDOF 2
ENDMDL
MODEL 4
REMARK VINA RESULT:      -6.9      4.301      7.615
REMARK  Name = ZINC000870248439
REMARK  2 active torsions:
REMARK  status: ('A' for Active; 'I' for Inactive)
REMARK    1  A    between atoms: C_2  and  C_4
REMARK    2  A    between atoms: C_7  and  C_8
REMARK                            x       y       z     vdW  Elec       q    Type
REMARK                         _______ _______ _______ _____ _____    ______ ____
ROOT
ATOM      1  C   UNL     1      30.180  20.957  14.498  0.00  0.00    +0.247 C 
ATOM      2  O   UNL     1      29.089  21.327  14.065  0.00  0.00    -0.270 OA
ATOM      3  N   UNL     1      30.866  21.626  15.521  0.00  0.00    -0.297 N 
ATOM      4  C   UNL     1      32.180  21.252  16.050  0.00  0.00    +0.108 C 
ATOM      5  C   UNL     1      32.302  21.454  17.556  0.00  0.00    +0.026 C 
ATOM      6  C   UNL     1      31.852  22.852  18.032  0.00  0.00    -0.025 C 
ATOM      7  C   UNL     1      31.825  22.828  19.581  0.00  0.00    +0.017 C 
ATOM      8  C   UNL     1      31.434  24.144  20.239  0.00  0.00    +0.069 C 
ATOM      9  S   UNL     1      32.573  25.491  19.818  0.00  0.00    -0.161 S 
ATOM     10  C   UNL     1      32.556  25.343  18.011  0.00  0.00    +0.069 C 
ATOM     11  C   UNL     1      32.867  23.922  17.553  0.00  0.00    +0.017 C 
ATOM     12  C   UNL     1      30.427  23.088  17.466  0.00  0.00    +0.026 C 
ATOM     13  C   UNL     1      30.351  22.924  15.948  0.00  0.00    +0.108 C 
ENDROOT
BRANCH   1  17
ATOM     14  C   UNL     1      31.937  17.314  13.131  0.00  0.00    +0.037 A 
ATOM     15  C   UNL     1      32.430  18.533  12.653  0.00  0.00    +0.014 A 
ATOM     16  C   UNL     1      31.800  19.724  13.018  0.00  0.00    +0.014 A 
ATOM     17  C   UNL     1      30.743  19.706  13.934  0.00  0.00    +0.037 A 
ATOM     18  C   UNL     1      30.195  18.482  14.340  0.00  0.00    +0.014 A 
ATOM     19  C   UNL     1      30.787  17.285  13.929  0.00  0.00    +0.014 A 
BRANCH  14  21
ATOM     20  N   UNL     1      32.770  15.138  13.824  0.00  0.00    -0.325 N 
ATOM     21  C   UNL     1      32.617  16.036  12.805  0.00  0.00    +0.242 C 
ATOM     22  O   UNL     1      32.975  15.772  11.667  0.00  0.00    -0.270 OA
ATOM     23  H   UNL     1      33.121  14.225  13.565  0.00  0.00    +0.145 HD
ATOM     24  H   UNL     1      32.258  15.213  14.692  0.00  0.00    +0.145 HD
ENDBRANCH  14  21
ENDBRANCH   1  17
TORSDOF 2
ENDMDL
MODEL 5
REMARK VINA RESULT:      -6.9      4.591      7.487
REMARK  Name = ZINC000870248439
REMARK  2 active torsions:
REMARK  status: ('A' for Active; 'I' for Inactive)
REMARK    1  A    between atoms: C_2  and  C_4
REMARK    2  A    between atoms: C_7  and  C_8
REMARK                            x       y       z     vdW  Elec       q    Type
REMARK                         _______ _______ _______ _____ _____    ______ ____
ROOT
ATOM      1  C   UNL     1      31.244  23.497  19.574  0.00  0.00    +0.247 C 
ATOM      2  O   UNL     1      31.016  22.789  20.554  0.00  0.00    -0.270 OA
ATOM      3  N   UNL     1      32.022  24.661  19.631  0.00  0.00    -0.297 N 
ATOM      4  C   UNL     1      32.296  25.558  18.507  0.00  0.00    +0.108 C 
ATOM      5  C   UNL     1      33.712  26.121  18.516  0.00  0.00    +0.026 C 
ATOM      6  C   UNL     1      34.126  26.733  19.872  0.00  0.00    -0.025 C 
ATOM      7  C   UNL     1      35.640  27.055  19.792  0.00  0.00    +0.017 C 
ATOM      8  C   UNL     1      36.227  27.705  21.038  0.00  0.00    +0.069 C 
ATOM      9  S   UNL     1      35.436  29.291  21.426  0.00  0.00    -0.161 S 
ATOM     10  C   UNL     1      33.699  28.771  21.410  0.00  0.00    +0.069 C 
ATOM     11  C   UNL     1      33.335  28.043  20.121  0.00  0.00    +0.017 C 
ATOM     12  C   UNL     1      33.855  25.659  20.958  0.00  0.00    +0.026 C 
ATOM     13  C   UNL     1      32.413  25.151  20.950  0.00  0.00    +0.108 C 
ENDROOT
BRANCH   1  17
ATOM     14  C   UNL     1      29.836  22.404  15.694  0.00  0.00    +0.037 A 
ATOM     15  C   UNL     1      28.953  23.003  16.599  0.00  0.00    +0.014 A 
ATOM     16  C   UNL     1      29.375  23.274  17.900  0.00  0.00    +0.014 A 
ATOM     17  C   UNL     1      30.704  23.039  18.269  0.00  0.00    +0.037 A 
ATOM     18  C   UNL     1      31.560  22.359  17.393  0.00  0.00    +0.014 A 
ATOM     19  C   UNL     1      31.121  22.031  16.107  0.00  0.00    +0.014 A 
BRANCH  14  21
ATOM     20  N   UNL     1      29.676  23.149  13.386  0.00  0.00    -0.325 N 
ATOM     21  C   UNL     1      29.433  22.151  14.288  0.00  0.00    +0.242 C 
ATOM     22  O   UNL     1      28.957  21.082  13.940  0.00  0.00    -0.270 OA
ATOM     23  H   UNL     1      29.512  22.920  12.414  0.00  0.00    +0.145 HD
ATOM     24  H   UNL     1      30.298  23.920  13.585  0.00  0.00    +0.145 HD
ENDBRANCH  14  21
ENDBRANCH   1  17
TORSDOF 2
ENDMDL
MODEL 6
REMARK VINA RESULT:      -6.6      3.171      4.486
REMARK  Name = ZINC000870248439
REMARK  2 active torsions:
REMARK  status: ('A' for Active; 'I' for Inactive)
REMARK    1  A    between atoms: C_2  and  C_4
REMARK    2  A    between atoms: C_7  and  C_8
REMARK                            x       y       z     vdW  Elec       q    Type
REMARK                         _______ _______ _______ _____ _____    ______ ____
ROOT
ATOM      1  C   UNL     1      31.173  22.313  14.627  0.00  0.00    +0.247 C 
ATOM      2  O   UNL     1      31.307  23.131  13.718  0.00  0.00    -0.270 OA
ATOM      3  N   UNL     1      31.647  20.996  14.551  0.00  0.00    -0.297 N 
ATOM      4  C   UNL     1      31.485  19.972  15.585  0.00  0.00    +0.108 C 
ATOM      5  C   UNL     1      32.701  19.066  15.732  0.00  0.00    +0.026 C 
ATOM      6  C   UNL     1      33.200  18.478  14.394  0.00  0.00    -0.025 C 
ATOM      7  C   UNL     1      34.551  17.772  14.673  0.00  0.00    +0.017 C 
ATOM      8  C   UNL     1      35.185  17.094  13.466  0.00  0.00    +0.069 C 
ATOM      9  S   UNL     1      34.123  15.801  12.765  0.00  0.00    -0.161 S 
ATOM     10  C   UNL     1      32.590  16.748  12.568  0.00  0.00    +0.069 C 
ATOM     11  C   UNL     1      32.178  17.440  13.863  0.00  0.00    +0.017 C 
ATOM     12  C   UNL     1      33.401  19.669  13.420  0.00  0.00    +0.026 C 
ATOM     13  C   UNL     1      32.146  20.528  13.261  0.00  0.00    +0.108 C 
ENDROOT
BRANCH   1  17
ATOM     14  C   UNL     1      29.429  23.447  18.356  0.00  0.00    +0.037 A 
ATOM     15  C   UNL     1      28.611  22.922  17.349  0.00  0.00    +0.014 A 
ATOM     16  C   UNL     1      29.153  22.640  16.095  0.00  0.00    +0.014 A 
ATOM     17  C   UNL     1      30.527  22.789  15.876  0.00  0.00    +0.037 A 
ATOM     18  C   UNL     1      31.326  23.397  16.852  0.00  0.00    +0.014 A 
ATOM     19  C   UNL     1      30.773  23.736  18.090  0.00  0.00    +0.014 A 
BRANCH  14  21
ATOM     20  N   UNL     1      27.540  23.851  19.830  0.00  0.00    -0.325 N 
ATOM     21  C   UNL     1      28.894  23.708  19.716  0.00  0.00    +0.242 C 
ATOM     22  O   UNL     1      29.622  23.739  20.696  0.00  0.00    -0.270 OA
ATOM     23  H   UNL     1      27.176  23.905  20.774  0.00  0.00    +0.145 HD
ATOM     24  H   UNL     1      26.902  23.570  19.099  0.00  0.00    +0.145 HD
ENDBRANCH  14  21
ENDBRANCH   1  17
TORSDOF 2
ENDMDL
MODEL 7
REMARK VINA RESULT:      -6.5      4.613      7.688
REMARK  Name = ZINC000870248439
REMARK  2 active torsions:
REMARK  status: ('A' for Active; 'I' for Inactive)
REMARK    1  A    between atoms: C_2  and  C_4
REMARK    2  A    between atoms: C_7  and  C_8
REMARK                            x       y       z     vdW  Elec       q    Type
REMARK                         _______ _______ _______ _____ _____    ______ ____
ROOT
ATOM      1  C   UNL     1      29.667  22.823  16.902  0.00  0.00    +0.247 C 
ATOM      2  O   UNL     1      28.475  23.110  17.002  0.00  0.00    -0.270 OA
ATOM      3  N   UNL     1      30.658  23.353  17.741  0.00  0.00    -0.297 N 
ATOM      4  C   UNL     1      32.092  23.075  17.645  0.00  0.00    +0.108 C 
ATOM      5  C   UNL     1      32.777  22.967  19.003  0.00  0.00    +0.026 C 
ATOM      6  C   UNL     1      32.467  24.148  19.947  0.00  0.00    -0.025 C 
ATOM      7  C   UNL     1      33.044  23.790  21.341  0.00  0.00    +0.017 C 
ATOM      8  C   UNL     1      32.865  24.863  22.407  0.00  0.00    +0.069 C 
ATOM      9  S   UNL     1      33.675  26.423  21.958  0.00  0.00    -0.161 S 
ATOM     10  C   UNL     1      32.967  26.662  20.306  0.00  0.00    +0.069 C 
ATOM     11  C   UNL     1      33.156  25.434  19.422  0.00  0.00    +0.017 C 
ATOM     12  C   UNL     1      30.924  24.285  20.016  0.00  0.00    +0.026 C 
ATOM     13  C   UNL     1      30.276  24.438  18.640  0.00  0.00    +0.108 C 
ENDROOT
BRANCH   1  17
ATOM     14  C   UNL     1      30.564  19.739  14.089  0.00  0.00    +0.037 A 
ATOM     15  C   UNL     1      31.542  20.131  15.010  0.00  0.00    +0.014 A 
ATOM     16  C   UNL     1      31.294  21.203  15.868  0.00  0.00    +0.014 A 
ATOM     17  C   UNL     1      30.037  21.819  15.874  0.00  0.00    +0.037 A 
ATOM     18  C   UNL     1      29.094  21.486  14.894  0.00  0.00    +0.014 A 
ATOM     19  C   UNL     1      29.363  20.452  13.993  0.00  0.00    +0.014 A 
BRANCH  14  21
ATOM     20  N   UNL     1      31.532  18.775  12.079  0.00  0.00    -0.325 N 
ATOM     21  C   UNL     1      30.778  18.570  13.200  0.00  0.00    +0.242 C 
ATOM     22  O   UNL     1      30.347  17.462  13.482  0.00  0.00    -0.270 OA
ATOM     23  H   UNL     1      31.773  17.949  11.547  0.00  0.00    +0.145 HD
ATOM     24  H   UNL     1      32.111  19.594  11.958  0.00  0.00    +0.145 HD
ENDBRANCH  14  21
ENDBRANCH   1  17
TORSDOF 2
ENDMDL
MODEL 8
REMARK VINA RESULT:      -6.5      1.813      2.243
REMARK  Name = ZINC000870248439
REMARK  2 active torsions:
REMARK  status: ('A' for Active; 'I' for Inactive)
REMARK    1  A    between atoms: C_2  and  C_4
REMARK    2  A    between atoms: C_7  and  C_8
REMARK                            x       y       z     vdW  Elec       q    Type
REMARK                         _______ _______ _______ _____ _____    ______ ____
ROOT
ATOM      1  C   UNL     1      31.265  20.296  14.148  0.00  0.00    +0.247 C 
ATOM      2  O   UNL     1      31.057  19.097  14.328  0.00  0.00    -0.270 OA
ATOM      3  N   UNL     1      31.987  20.795  13.055  0.00  0.00    -0.297 N 
ATOM      4  C   UNL     1      32.296  22.206  12.811  0.00  0.00    +0.108 C 
ATOM      5  C   UNL     1      32.236  22.589  11.338  0.00  0.00    +0.026 C 
ATOM      6  C   UNL     1      33.038  21.643  10.419  0.00  0.00    -0.025 C 
ATOM      7  C   UNL     1      32.704  22.026   8.955  0.00  0.00    +0.017 C 
ATOM      8  C   UNL     1      33.438  21.216   7.894  0.00  0.00    +0.069 C 
ATOM      9  S   UNL     1      35.239  21.390   8.017  0.00  0.00    -0.161 S 
ATOM     10  C   UNL     1      35.458  20.990   9.772  0.00  0.00    +0.069 C 
ATOM     11  C   UNL     1      34.557  21.836  10.666  0.00  0.00    +0.017 C 
ATOM     12  C   UNL     1      32.564  20.199  10.726  0.00  0.00    +0.026 C 
ATOM     13  C   UNL     1      32.682  19.832  12.205  0.00  0.00    +0.108 C 
ENDROOT
BRANCH   1  17
ATOM     14  C   UNL     1      29.559  22.806  17.151  0.00  0.00    +0.037 A 
ATOM     15  C   UNL     1      28.725  22.226  16.190  0.00  0.00    +0.014 A 
ATOM     16  C   UNL     1      29.283  21.484  15.148  0.00  0.00    +0.014 A 
ATOM     17  C   UNL     1      30.660  21.240  15.120  0.00  0.00    +0.037 A 
ATOM     18  C   UNL     1      31.501  21.895  16.030  0.00  0.00    +0.014 A 
ATOM     19  C   UNL     1      30.950  22.687  17.040  0.00  0.00    +0.014 A 
BRANCH  14  21
ATOM     20  N   UNL     1      27.734  23.209  18.706  0.00  0.00    -0.325 N 
ATOM     21  C   UNL     1      28.993  23.555  18.301  0.00  0.00    +0.242 C 
ATOM     22  O   UNL     1      29.640  24.406  18.893  0.00  0.00    -0.270 OA
ATOM     23  H   UNL     1      27.408  23.638  19.562  0.00  0.00    +0.145 HD
ATOM     24  H   UNL     1      27.290  22.349  18.415  0.00  0.00    +0.145 HD
ENDBRANCH  14  21
ENDBRANCH   1  17
TORSDOF 2
ENDMDL
MODEL 9
REMARK VINA RESULT:      -6.4      4.875      7.681
REMARK  Name = ZINC000870248439
REMARK  2 active torsions:
REMARK  status: ('A' for Active; 'I' for Inactive)
REMARK    1  A    between atoms: C_2  and  C_4
REMARK    2  A    between atoms: C_7  and  C_8
REMARK                            x       y       z     vdW  Elec       q    Type
REMARK                         _______ _______ _______ _____ _____    ______ ____
ROOT
ATOM      1  C   UNL     1      32.334  23.374  16.267  0.00  0.00    +0.247 C 
ATOM      2  O   UNL     1      32.416  24.265  15.422  0.00  0.00    -0.270 OA
ATOM      3  N   UNL     1      32.689  23.556  17.611  0.00  0.00    -0.297 N 
ATOM      4  C   UNL     1      32.646  22.525  18.650  0.00  0.00    +0.108 C 
ATOM      5  C   UNL     1      32.196  23.054  20.006  0.00  0.00    +0.026 C 
ATOM      6  C   UNL     1      32.957  24.318  20.462  0.00  0.00    -0.025 C 
ATOM      7  C   UNL     1      32.246  24.855  21.730  0.00  0.00    +0.017 C 
ATOM      8  C   UNL     1      32.884  26.091  22.351  0.00  0.00    +0.069 C 
ATOM      9  S   UNL     1      34.596  25.796  22.870  0.00  0.00    -0.161 S 
ATOM     10  C   UNL     1      35.263  25.112  21.329  0.00  0.00    +0.069 C 
ATOM     11  C   UNL     1      34.422  23.950  20.811  0.00  0.00    +0.017 C 
ATOM     12  C   UNL     1      32.861  25.348  19.307  0.00  0.00    +0.026 C 
ATOM     13  C   UNL     1      33.365  24.799  17.972  0.00  0.00    +0.108 C 
ENDROOT
BRANCH   1  17
ATOM     14  C   UNL     1      30.838  19.682  14.734  0.00  0.00    +0.037 A 
ATOM     15  C   UNL     1      29.950  20.740  14.955  0.00  0.00    +0.014 A 
ATOM     16  C   UNL     1      30.412  21.917  15.547  0.00  0.00    +0.014 A 
ATOM     17  C   UNL     1      31.773  22.073  15.827  0.00  0.00    +0.037 A 
ATOM     18  C   UNL     1      32.642  20.983  15.689  0.00  0.00    +0.014 A 
ATOM     19  C   UNL     1      32.171  19.782  15.151  0.00  0.00    +0.014 A 
BRANCH  14  21
ATOM     20  N   UNL     1      30.325  18.464  12.693  0.00  0.00    -0.325 N 
ATOM     21  C   UNL     1      30.389  18.438  14.059  0.00  0.00    +0.242 C 
ATOM     22  O   UNL     1      30.140  17.421  14.688  0.00  0.00    -0.270 OA
ATOM     23  H   UNL     1      30.138  17.578  12.240  0.00  0.00    +0.145 HD
ATOM     24  H   UNL     1      30.770  19.185  12.144  0.00  0.00    +0.145 HD
ENDBRANCH  14  21
ENDBRANCH   1  17
TORSDOF 2
ENDMDL
