MODEL 1
REMARK VINA RESULT:      -6.3      0.000      0.000
REMARK  Name = ZINC000329563636
REMARK  3 active torsions:
REMARK  status: ('A' for Active; 'I' for Inactive)
REMARK    1  A    between atoms: C_1  and  C_2
REMARK    2  A    between atoms: C_2  and  N_3
REMARK    3  A    between atoms: N_9  and  C_10
REMARK                            x       y       z     vdW  Elec       q    Type
REMARK                         _______ _______ _______ _____ _____    ______ ____
ROOT
ATOM      1  C   UNL     1      34.755  20.723  14.562  0.00  0.00    +0.112 C 
ATOM      2  C   UNL     1      35.715  21.357  15.575  0.00  0.00    +0.075 C 
ATOM      3  C   UNL     1      35.062  21.814  16.887  0.00  0.00    +0.113 C 
ATOM      4  C   UNL     1      34.899  20.699  17.954  0.00  0.00    +0.048 C 
ATOM      5  C   UNL     1      35.858  21.048  19.087  0.00  0.00    +0.004 C 
ATOM      6  C   UNL     1      35.934  22.561  19.049  0.00  0.00    +0.004 C 
ATOM      7  C   UNL     1      35.991  22.859  17.560  0.00  0.00    +0.048 C 
ATOM      8  O   UNL     1      33.795  22.461  16.661  0.00  0.00    -0.485 OA
ATOM      9  C   UNL     1      32.906  21.672  15.978  0.00  0.00    +0.126 A 
ATOM     10  C   UNL     1      31.560  21.781  16.320  0.00  0.00    +0.046 A 
ATOM     11  C   UNL     1      30.611  20.974  15.688  0.00  0.00    +0.004 A 
ATOM     12  C   UNL     1      31.009  20.078  14.699  0.00  0.00    +0.001 A 
ATOM     13  C   UNL     1      32.355  19.996  14.336  0.00  0.00    +0.009 A 
ATOM     14  C   UNL     1      33.316  20.795  14.976  0.00  0.00    +0.015 A 
ENDROOT
BRANCH   1  21
ATOM     15  N   UNL     1      34.342  22.534   8.524  0.00  0.00    -0.299 N 
ATOM     16  C   UNL     1      34.350  21.090   8.756  0.00  0.00    +0.127 C 
ATOM     17  C   UNL     1      35.469  20.680   9.708  0.00  0.00    +0.129 C 
ATOM     18  N   UNL     1      35.293  21.386  10.969  0.00  0.00    -0.275 N 
ATOM     19  C   UNL     1      35.094  20.655  12.119  0.00  0.00    +0.303 C 
ATOM     20  O   UNL     1      35.057  19.426  12.121  0.00  0.00    -0.253 OA
ATOM     21  N   UNL     1      34.909  21.376  13.261  0.00  0.00    -0.292 N 
ATOM     22  C   UNL     1      35.270  22.847  10.845  0.00  0.00    +0.205 C 
ATOM     23  C   UNL     1      34.702  23.426   9.532  0.00  0.00    +0.233 C 
ATOM     24  O   UNL     1      34.611  24.648   9.390  0.00  0.00    -0.274 OA
ATOM     25  H   UNL     1      35.287  22.309  13.300  0.00  0.00    +0.151 HD
BRANCH  15  27
ATOM     26  C   UNL     1      32.164  23.337   7.653  0.00  0.00    +0.024 C 
ATOM     27  C   UNL     1      33.627  23.038   7.357  0.00  0.00    +0.104 C 
ENDBRANCH  15  27
ENDBRANCH   1  21
TORSDOF 2
ENDMDL
MODEL 2
REMARK VINA RESULT:      -6.2      1.011      1.156
REMARK  Name = ZINC000329563636
REMARK  3 active torsions:
REMARK  status: ('A' for Active; 'I' for Inactive)
REMARK    1  A    between atoms: C_1  and  C_2
REMARK    2  A    between atoms: C_2  and  N_3
REMARK    3  A    between atoms: N_9  and  C_10
REMARK                            x       y       z     vdW  Elec       q    Type
REMARK                         _______ _______ _______ _____ _____    ______ ____
ROOT
ATOM      1  C   UNL     1      34.728  21.237  14.371  0.00  0.00    +0.112 C 
ATOM      2  C   UNL     1      35.608  22.039  15.336  0.00  0.00    +0.075 C 
ATOM      3  C   UNL     1      34.925  22.443  16.650  0.00  0.00    +0.113 C 
ATOM      4  C   UNL     1      34.949  21.356  17.757  0.00  0.00    +0.048 C 
ATOM      5  C   UNL     1      35.872  21.880  18.851  0.00  0.00    +0.004 C 
ATOM      6  C   UNL     1      35.726  23.387  18.762  0.00  0.00    +0.004 C 
ATOM      7  C   UNL     1      35.706  23.635  17.263  0.00  0.00    +0.048 C 
ATOM      8  O   UNL     1      33.572  22.892  16.437  0.00  0.00    -0.485 OA
ATOM      9  C   UNL     1      32.793  21.959  15.805  0.00  0.00    +0.126 A 
ATOM     10  C   UNL     1      31.452  21.884  16.179  0.00  0.00    +0.046 A 
ATOM     11  C   UNL     1      30.618  20.926  15.600  0.00  0.00    +0.004 A 
ATOM     12  C   UNL     1      31.120  20.062  14.630  0.00  0.00    +0.001 A 
ATOM     13  C   UNL     1      32.454  20.162  14.234  0.00  0.00    +0.009 A 
ATOM     14  C   UNL     1      33.303  21.114  14.822  0.00  0.00    +0.015 A 
ENDROOT
BRANCH   1  21
ATOM     15  N   UNL     1      34.924  22.459   8.177  0.00  0.00    -0.299 N 
ATOM     16  C   UNL     1      35.844  21.426   8.651  0.00  0.00    +0.127 C 
ATOM     17  C   UNL     1      36.611  21.882   9.887  0.00  0.00    +0.129 C 
ATOM     18  N   UNL     1      35.657  22.217  10.934  0.00  0.00    -0.275 N 
ATOM     19  C   UNL     1      35.694  21.514  12.118  0.00  0.00    +0.303 C 
ATOM     20  O   UNL     1      36.503  20.611  12.324  0.00  0.00    -0.253 OA
ATOM     21  N   UNL     1      34.756  21.857  13.046  0.00  0.00    -0.292 N 
ATOM     22  C   UNL     1      34.685  23.248  10.558  0.00  0.00    +0.205 C 
ATOM     23  C   UNL     1      34.277  23.311   9.070  0.00  0.00    +0.233 C 
ATOM     24  O   UNL     1      33.426  24.125   8.702  0.00  0.00    -0.274 OA
ATOM     25  H   UNL     1      34.369  22.787  13.007  0.00  0.00    +0.151 HD
BRANCH  15  27
ATOM     26  C   UNL     1      34.713  21.006   6.179  0.00  0.00    +0.024 C 
ATOM     27  C   UNL     1      34.426  22.361   6.809  0.00  0.00    +0.104 C 
ENDBRANCH  15  27
ENDBRANCH   1  21
TORSDOF 2
ENDMDL
MODEL 3
REMARK VINA RESULT:      -6.2      1.909      2.171
REMARK  Name = ZINC000329563636
REMARK  3 active torsions:
REMARK  status: ('A' for Active; 'I' for Inactive)
REMARK    1  A    between atoms: C_1  and  C_2
REMARK    2  A    between atoms: C_2  and  N_3
REMARK    3  A    between atoms: N_9  and  C_10
REMARK                            x       y       z     vdW  Elec       q    Type
REMARK                         _______ _______ _______ _____ _____    ______ ____
ROOT
ATOM      1  C   UNL     1      34.163  18.928  13.846  0.00  0.00    +0.112 C 
ATOM      2  C   UNL     1      35.453  18.540  14.578  0.00  0.00    +0.075 C 
ATOM      3  C   UNL     1      35.460  18.845  16.083  0.00  0.00    +0.113 C 
ATOM      4  C   UNL     1      34.798  17.757  16.969  0.00  0.00    +0.048 C 
ATOM      5  C   UNL     1      35.924  17.115  17.771  0.00  0.00    +0.004 C 
ATOM      6  C   UNL     1      36.938  18.230  17.934  0.00  0.00    +0.004 C 
ATOM      7  C   UNL     1      36.933  18.893  16.567  0.00  0.00    +0.048 C 
ATOM      8  O   UNL     1      34.879  20.131  16.373  0.00  0.00    -0.485 OA
ATOM      9  C   UNL     1      33.598  20.257  15.904  0.00  0.00    +0.126 A 
ATOM     10  C   UNL     1      32.705  21.001  16.673  0.00  0.00    +0.046 A 
ATOM     11  C   UNL     1      31.374  21.131  16.269  0.00  0.00    +0.004 A 
ATOM     12  C   UNL     1      30.947  20.537  15.084  0.00  0.00    +0.001 A 
ATOM     13  C   UNL     1      31.853  19.821  14.300  0.00  0.00    +0.009 A 
ATOM     14  C   UNL     1      33.188  19.675  14.707  0.00  0.00    +0.015 A 
ENDROOT
BRANCH   1  21
ATOM     15  N   UNL     1      34.168  22.011   8.333  0.00  0.00    -0.299 N 
ATOM     16  C   UNL     1      33.648  20.645   8.297  0.00  0.00    +0.127 C 
ATOM     17  C   UNL     1      34.578  19.672   9.014  0.00  0.00    +0.129 C 
ATOM     18  N   UNL     1      34.737  20.107  10.393  0.00  0.00    -0.275 N 
ATOM     19  C   UNL     1      34.336  19.267  11.408  0.00  0.00    +0.303 C 
ATOM     20  O   UNL     1      33.843  18.161  11.193  0.00  0.00    -0.253 OA
ATOM     21  N   UNL     1      34.487  19.746  12.676  0.00  0.00    -0.292 N 
ATOM     22  C   UNL     1      35.255  21.471  10.540  0.00  0.00    +0.205 C 
ATOM     23  C   UNL     1      34.882  22.481   9.433  0.00  0.00    +0.233 C 
ATOM     24  O   UNL     1      35.247  23.655   9.527  0.00  0.00    -0.274 OA
ATOM     25  H   UNL     1      35.188  20.452  12.836  0.00  0.00    +0.151 HD
BRANCH  15  27
ATOM     26  C   UNL     1      32.221  23.416   7.713  0.00  0.00    +0.024 C 
ATOM     27  C   UNL     1      33.637  22.974   7.373  0.00  0.00    +0.104 C 
ENDBRANCH  15  27
ENDBRANCH   1  21
TORSDOF 2
ENDMDL
MODEL 4
REMARK VINA RESULT:      -6.1      2.661      7.674
REMARK  Name = ZINC000329563636
REMARK  3 active torsions:
REMARK  status: ('A' for Active; 'I' for Inactive)
REMARK    1  A    between atoms: C_1  and  C_2
REMARK    2  A    between atoms: C_2  and  N_3
REMARK    3  A    between atoms: N_9  and  C_10
REMARK                            x       y       z     vdW  Elec       q    Type
REMARK                         _______ _______ _______ _____ _____    ______ ____
ROOT
ATOM      1  C   UNL     1      33.807  23.094  14.873  0.00  0.00    +0.112 C 
ATOM      2  C   UNL     1      34.359  23.401  13.476  0.00  0.00    +0.075 C 
ATOM      3  C   UNL     1      33.550  22.805  12.315  0.00  0.00    +0.113 C 
ATOM      4  C   UNL     1      32.333  23.655  11.866  0.00  0.00    +0.048 C 
ATOM      5  C   UNL     1      32.673  24.187  10.478  0.00  0.00    +0.004 C 
ATOM      6  C   UNL     1      33.574  23.121   9.888  0.00  0.00    +0.004 C 
ATOM      7  C   UNL     1      34.463  22.744  11.062  0.00  0.00    +0.048 C 
ATOM      8  O   UNL     1      33.126  21.456  12.593  0.00  0.00    -0.485 OA
ATOM      9  C   UNL     1      32.387  21.353  13.742  0.00  0.00    +0.126 A 
ATOM     10  C   UNL     1      31.350  20.422  13.756  0.00  0.00    +0.046 A 
ATOM     11  C   UNL     1      30.536  20.300  14.884  0.00  0.00    +0.004 A 
ATOM     12  C   UNL     1      30.776  21.093  16.004  0.00  0.00    +0.001 A 
ATOM     13  C   UNL     1      31.837  22.000  15.998  0.00  0.00    +0.009 A 
ATOM     14  C   UNL     1      32.651  22.138  14.862  0.00  0.00    +0.015 A 
ENDROOT
BRANCH   1  21
ATOM     15  N   UNL     1      37.328  20.817  19.597  0.00  0.00    -0.299 N 
ATOM     16  C   UNL     1      36.504  21.981  19.922  0.00  0.00    +0.127 C 
ATOM     17  C   UNL     1      36.646  23.079  18.874  0.00  0.00    +0.129 C 
ATOM     18  N   UNL     1      36.261  22.543  17.577  0.00  0.00    -0.275 N 
ATOM     19  C   UNL     1      35.198  23.111  16.910  0.00  0.00    +0.303 C 
ATOM     20  O   UNL     1      34.558  24.055  17.371  0.00  0.00    -0.253 OA
ATOM     21  N   UNL     1      34.871  22.545  15.714  0.00  0.00    -0.292 N 
ATOM     22  C   UNL     1      37.031  21.369  17.157  0.00  0.00    +0.205 C 
ATOM     23  C   UNL     1      37.545  20.436  18.274  0.00  0.00    +0.233 C 
ATOM     24  O   UNL     1      38.156  19.405  17.980  0.00  0.00    -0.274 OA
ATOM     25  H   UNL     1      35.589  22.046  15.214  0.00  0.00    +0.151 HD
BRANCH  15  27
ATOM     26  C   UNL     1      36.375  19.356  21.358  0.00  0.00    +0.024 C 
ATOM     27  C   UNL     1      37.628  19.868  20.663  0.00  0.00    +0.104 C 
ENDBRANCH  15  27
ENDBRANCH   1  21
TORSDOF 2
ENDMDL
MODEL 5
REMARK VINA RESULT:      -6.0      2.542      4.160
REMARK  Name = ZINC000329563636
REMARK  3 active torsions:
REMARK  status: ('A' for Active; 'I' for Inactive)
REMARK    1  A    between atoms: C_1  and  C_2
REMARK    2  A    between atoms: C_2  and  N_3
REMARK    3  A    between atoms: N_9  and  C_10
REMARK                            x       y       z     vdW  Elec       q    Type
REMARK                         _______ _______ _______ _____ _____    ______ ____
ROOT
ATOM      1  C   UNL     1      34.331  20.540  12.582  0.00  0.00    +0.112 C 
ATOM      2  C   UNL     1      33.229  21.306  13.323  0.00  0.00    +0.075 C 
ATOM      3  C   UNL     1      32.344  20.445  14.236  0.00  0.00    +0.113 C 
ATOM      4  C   UNL     1      32.923  20.192  15.652  0.00  0.00    +0.048 C 
ATOM      5  C   UNL     1      32.029  20.956  16.622  0.00  0.00    +0.004 C 
ATOM      6  C   UNL     1      30.671  20.951  15.949  0.00  0.00    +0.004 C 
ATOM      7  C   UNL     1      31.016  21.206  14.491  0.00  0.00    +0.048 C 
ATOM      8  O   UNL     1      31.997  19.190  13.619  0.00  0.00    -0.485 OA
ATOM      9  C   UNL     1      33.093  18.455  13.248  0.00  0.00    +0.126 A 
ATOM     10  C   UNL     1      33.004  17.069  13.364  0.00  0.00    +0.046 A 
ATOM     11  C   UNL     1      34.103  16.270  13.041  0.00  0.00    +0.004 A 
ATOM     12  C   UNL     1      35.278  16.857  12.579  0.00  0.00    +0.001 A 
ATOM     13  C   UNL     1      35.351  18.243  12.433  0.00  0.00    +0.009 A 
ATOM     14  C   UNL     1      34.256  19.054  12.769  0.00  0.00    +0.015 A 
ENDROOT
BRANCH   1  21
ATOM     15  N   UNL     1      35.443  22.447   6.663  0.00  0.00    -0.299 N 
ATOM     16  C   UNL     1      35.813  23.392   7.716  0.00  0.00    +0.127 C 
ATOM     17  C   UNL     1      34.692  23.565   8.735  0.00  0.00    +0.129 C 
ATOM     18  N   UNL     1      34.384  22.267   9.318  0.00  0.00    -0.275 N 
ATOM     19  C   UNL     1      34.545  22.090  10.674  0.00  0.00    +0.303 C 
ATOM     20  O   UNL     1      34.942  22.988  11.414  0.00  0.00    -0.253 OA
ATOM     21  N   UNL     1      34.266  20.844  11.152  0.00  0.00    -0.292 N 
ATOM     22  C   UNL     1      34.000  21.243   8.341  0.00  0.00    +0.205 C 
ATOM     23  C   UNL     1      34.633  21.347   6.937  0.00  0.00    +0.233 C 
ATOM     24  O   UNL     1      34.386  20.486   6.089  0.00  0.00    -0.274 OA
ATOM     25  H   UNL     1      33.630  20.266  10.626  0.00  0.00    +0.151 HD
BRANCH  15  27
ATOM     26  C   UNL     1      36.734  23.858   5.086  0.00  0.00    +0.024 C 
ATOM     27  C   UNL     1      36.204  22.471   5.420  0.00  0.00    +0.104 C 
ENDBRANCH  15  27
ENDBRANCH   1  21
TORSDOF 2
ENDMDL
MODEL 6
REMARK VINA RESULT:      -5.9      3.235      8.232
REMARK  Name = ZINC000329563636
REMARK  3 active torsions:
REMARK  status: ('A' for Active; 'I' for Inactive)
REMARK    1  A    between atoms: C_1  and  C_2
REMARK    2  A    between atoms: C_2  and  N_3
REMARK    3  A    between atoms: N_9  and  C_10
REMARK                            x       y       z     vdW  Elec       q    Type
REMARK                         _______ _______ _______ _____ _____    ______ ____
ROOT
ATOM      1  C   UNL     1      34.849  20.434  14.921  0.00  0.00    +0.112 C 
ATOM      2  C   UNL     1      35.241  19.808  13.578  0.00  0.00    +0.075 C 
ATOM      3  C   UNL     1      34.087  19.645  12.578  0.00  0.00    +0.113 C 
ATOM      4  C   UNL     1      33.772  20.909  11.736  0.00  0.00    +0.048 C 
ATOM      5  C   UNL     1      34.177  20.579  10.303  0.00  0.00    +0.004 C 
ATOM      6  C   UNL     1      33.966  19.082  10.199  0.00  0.00    +0.004 C 
ATOM      7  C   UNL     1      34.493  18.574  11.532  0.00  0.00    +0.048 C 
ATOM      8  O   UNL     1      32.885  19.174  13.218  0.00  0.00    -0.485 OA
ATOM      9  C   UNL     1      32.470  19.986  14.241  0.00  0.00    +0.126 A 
ATOM     10  C   UNL     1      31.096  20.133  14.425  0.00  0.00    +0.046 A 
ATOM     11  C   UNL     1      30.612  20.980  15.424  0.00  0.00    +0.004 A 
ATOM     12  C   UNL     1      31.503  21.658  16.253  0.00  0.00    +0.001 A 
ATOM     13  C   UNL     1      32.877  21.482  16.086  0.00  0.00    +0.009 A 
ATOM     14  C   UNL     1      33.372  20.642  15.075  0.00  0.00    +0.015 A 
ENDROOT
BRANCH   1  21
ATOM     15  N   UNL     1      36.850  18.105  20.441  0.00  0.00    -0.299 N 
ATOM     16  C   UNL     1      37.418  19.395  20.052  0.00  0.00    +0.127 C 
ATOM     17  C   UNL     1      37.909  19.379  18.608  0.00  0.00    +0.129 C 
ATOM     18  N   UNL     1      36.792  19.044  17.737  0.00  0.00    -0.275 N 
ATOM     19  C   UNL     1      36.397  19.953  16.781  0.00  0.00    +0.303 C 
ATOM     20  O   UNL     1      36.951  21.042  16.636  0.00  0.00    -0.253 OA
ATOM     21  N   UNL     1      35.328  19.590  16.017  0.00  0.00    -0.292 N 
ATOM     22  C   UNL     1      36.149  17.764  18.046  0.00  0.00    +0.205 C 
ATOM     23  C   UNL     1      36.156  17.318  19.524  0.00  0.00    +0.233 C 
ATOM     24  O   UNL     1      35.587  16.274  19.852  0.00  0.00    -0.274 OA
ATOM     25  H   UNL     1      35.135  18.608  15.908  0.00  0.00    +0.151 HD
BRANCH  15  27
ATOM     26  C   UNL     1      35.925  18.889  22.604  0.00  0.00    +0.024 C 
ATOM     27  C   UNL     1      36.712  17.817  21.865  0.00  0.00    +0.104 C 
ENDBRANCH  15  27
ENDBRANCH   1  21
TORSDOF 2
ENDMDL
MODEL 7
REMARK VINA RESULT:      -5.8      2.214      4.511
REMARK  Name = ZINC000329563636
REMARK  3 active torsions:
REMARK  status: ('A' for Active; 'I' for Inactive)
REMARK    1  A    between atoms: C_1  and  C_2
REMARK    2  A    between atoms: C_2  and  N_3
REMARK    3  A    between atoms: N_9  and  C_10
REMARK                            x       y       z     vdW  Elec       q    Type
REMARK                         _______ _______ _______ _____ _____    ______ ____
ROOT
ATOM      1  C   UNL     1      33.327  22.516  12.220  0.00  0.00    +0.112 C 
ATOM      2  C   UNL     1      32.107  21.823  12.838  0.00  0.00    +0.075 C 
ATOM      3  C   UNL     1      32.327  21.265  14.251  0.00  0.00    +0.113 C 
ATOM      4  C   UNL     1      32.141  22.297  15.394  0.00  0.00    +0.048 C 
ATOM      5  C   UNL     1      30.883  21.881  16.146  0.00  0.00    +0.004 C 
ATOM      6  C   UNL     1      30.837  20.375  15.977  0.00  0.00    +0.004 C 
ATOM      7  C   UNL     1      31.246  20.186  14.526  0.00  0.00    +0.048 C 
ATOM      8  O   UNL     1      33.608  20.619  14.380  0.00  0.00    -0.485 OA
ATOM      9  C   UNL     1      34.657  21.443  14.065  0.00  0.00    +0.126 A 
ATOM     10  C   UNL     1      35.833  21.293  14.797  0.00  0.00    +0.046 A 
ATOM     11  C   UNL     1      36.922  22.131  14.550  0.00  0.00    +0.004 A 
ATOM     12  C   UNL     1      36.840  23.101  13.554  0.00  0.00    +0.001 A 
ATOM     13  C   UNL     1      35.672  23.226  12.800  0.00  0.00    +0.009 A 
ATOM     14  C   UNL     1      34.569  22.396  13.052  0.00  0.00    +0.015 A 
ENDROOT
BRANCH   1  21
ATOM     15  N   UNL     1      35.450  21.286   6.399  0.00  0.00    -0.299 N 
ATOM     16  C   UNL     1      35.179  22.693   6.693  0.00  0.00    +0.127 C 
ATOM     17  C   UNL     1      33.816  22.876   7.351  0.00  0.00    +0.129 C 
ATOM     18  N   UNL     1      33.780  22.095   8.579  0.00  0.00    -0.275 N 
ATOM     19  C   UNL     1      33.585  22.746   9.777  0.00  0.00    +0.303 C 
ATOM     20  O   UNL     1      33.444  23.966   9.850  0.00  0.00    -0.253 OA
ATOM     21  N   UNL     1      33.589  21.961  10.891  0.00  0.00    -0.292 N 
ATOM     22  C   UNL     1      34.040  20.664   8.393  0.00  0.00    +0.205 C 
ATOM     23  C   UNL     1      34.988  20.274   7.238  0.00  0.00    +0.233 C 
ATOM     24  O   UNL     1      35.285  19.089   7.062  0.00  0.00    -0.274 OA
ATOM     25  H   UNL     1      33.350  20.987  10.787  0.00  0.00    +0.151 HD
BRANCH  15  27
ATOM     26  C   UNL     1      36.937  22.199   4.637  0.00  0.00    +0.024 C 
ATOM     27  C   UNL     1      36.493  20.976   5.427  0.00  0.00    +0.104 C 
ENDBRANCH  15  27
ENDBRANCH   1  21
TORSDOF 2
ENDMDL
MODEL 8
REMARK VINA RESULT:      -5.8      2.147      4.153
REMARK  Name = ZINC000329563636
REMARK  3 active torsions:
REMARK  status: ('A' for Active; 'I' for Inactive)
REMARK    1  A    between atoms: C_1  and  C_2
REMARK    2  A    between atoms: C_2  and  N_3
REMARK    3  A    between atoms: N_9  and  C_10
REMARK                            x       y       z     vdW  Elec       q    Type
REMARK                         _______ _______ _______ _____ _____    ______ ____
ROOT
ATOM      1  C   UNL     1      34.133  21.485  17.198  0.00  0.00    +0.112 C 
ATOM      2  C   UNL     1      34.710  20.120  17.589  0.00  0.00    +0.075 C 
ATOM      3  C   UNL     1      35.891  20.174  18.569  0.00  0.00    +0.113 C 
ATOM      4  C   UNL     1      35.492  20.275  20.065  0.00  0.00    +0.048 C 
ATOM      5  C   UNL     1      35.886  18.948  20.703  0.00  0.00    +0.004 C 
ATOM      6  C   UNL     1      37.082  18.493  19.891  0.00  0.00    +0.004 C 
ATOM      7  C   UNL     1      36.675  18.839  18.468  0.00  0.00    +0.048 C 
ATOM      8  O   UNL     1      36.815  21.230  18.239  0.00  0.00    -0.485 OA
ATOM      9  C   UNL     1      36.223  22.465  18.195  0.00  0.00    +0.126 A 
ATOM     10  C   UNL     1      36.976  23.553  18.633  0.00  0.00    +0.046 A 
ATOM     11  C   UNL     1      36.412  24.830  18.651  0.00  0.00    +0.004 A 
ATOM     12  C   UNL     1      35.106  25.020  18.207  0.00  0.00    +0.001 A 
ATOM     13  C   UNL     1      34.367  23.933  17.738  0.00  0.00    +0.009 A 
ATOM     14  C   UNL     1      34.922  22.644  17.730  0.00  0.00    +0.015 A 
ENDROOT
BRANCH   1  21
ATOM     15  N   UNL     1      33.153  23.282  11.222  0.00  0.00    -0.299 N 
ATOM     16  C   UNL     1      32.047  23.522  12.148  0.00  0.00    +0.127 C 
ATOM     17  C   UNL     1      31.742  22.288  12.989  0.00  0.00    +0.129 C 
ATOM     18  N   UNL     1      32.939  21.918  13.730  0.00  0.00    -0.275 N 
ATOM     19  C   UNL     1      32.897  21.918  15.106  0.00  0.00    +0.303 C 
ATOM     20  O   UNL     1      31.885  22.221  15.736  0.00  0.00    -0.253 OA
ATOM     21  N   UNL     1      34.059  21.589  15.740  0.00  0.00    -0.292 N 
ATOM     22  C   UNL     1      34.111  21.655  12.890  0.00  0.00    +0.205 C 
ATOM     23  C   UNL     1      34.215  22.450  11.570  0.00  0.00    +0.233 C 
ATOM     24  O   UNL     1      35.203  22.308  10.846  0.00  0.00    -0.274 OA
ATOM     25  H   UNL     1      34.726  21.021  15.242  0.00  0.00    +0.151 HD
BRANCH  15  27
ATOM     26  C   UNL     1      32.526  23.726   8.864  0.00  0.00    +0.024 C 
ATOM     27  C   UNL     1      33.308  24.185  10.087  0.00  0.00    +0.104 C 
ENDBRANCH  15  27
ENDBRANCH   1  21
TORSDOF 2
ENDMDL
MODEL 9
REMARK VINA RESULT:      -5.8      3.116      7.461
REMARK  Name = ZINC000329563636
REMARK  3 active torsions:
REMARK  status: ('A' for Active; 'I' for Inactive)
REMARK    1  A    between atoms: C_1  and  C_2
REMARK    2  A    between atoms: C_2  and  N_3
REMARK    3  A    between atoms: N_9  and  C_10
REMARK                            x       y       z     vdW  Elec       q    Type
REMARK                         _______ _______ _______ _____ _____    ______ ____
ROOT
ATOM      1  C   UNL     1      34.272  22.646  10.490  0.00  0.00    +0.112 C 
ATOM      2  C   UNL     1      35.201  23.749  11.009  0.00  0.00    +0.075 C 
ATOM      3  C   UNL     1      36.149  24.343   9.958  0.00  0.00    +0.113 C 
ATOM      4  C   UNL     1      35.531  25.470   9.088  0.00  0.00    +0.048 C 
ATOM      5  C   UNL     1      36.242  26.758   9.488  0.00  0.00    +0.004 C 
ATOM      6  C   UNL     1      37.624  26.297   9.909  0.00  0.00    +0.004 C 
ATOM      7  C   UNL     1      37.331  25.028  10.693  0.00  0.00    +0.048 C 
ATOM      8  O   UNL     1      36.715  23.327   9.108  0.00  0.00    -0.485 OA
ATOM      9  C   UNL     1      35.764  22.574   8.468  0.00  0.00    +0.126 A 
ATOM     10  C   UNL     1      36.051  22.145   7.174  0.00  0.00    +0.046 A 
ATOM     11  C   UNL     1      35.106  21.410   6.456  0.00  0.00    +0.004 A 
ATOM     12  C   UNL     1      33.885  21.085   7.044  0.00  0.00    +0.001 A 
ATOM     13  C   UNL     1      33.615  21.489   8.352  0.00  0.00    +0.009 A 
ATOM     14  C   UNL     1      34.556  22.240   9.075  0.00  0.00    +0.015 A 
ENDROOT
BRANCH   1  21
ATOM     15  N   UNL     1      33.226  17.420  13.881  0.00  0.00    -0.299 N 
ATOM     16  C   UNL     1      32.201  18.458  13.980  0.00  0.00    +0.127 C 
ATOM     17  C   UNL     1      32.815  19.830  14.235  0.00  0.00    +0.129 C 
ATOM     18  N   UNL     1      33.734  20.141  13.151  0.00  0.00    -0.275 N 
ATOM     19  C   UNL     1      33.492  21.248  12.369  0.00  0.00    +0.303 C 
ATOM     20  O   UNL     1      32.524  21.986  12.550  0.00  0.00    -0.253 OA
ATOM     21  N   UNL     1      34.375  21.468  11.353  0.00  0.00    -0.292 N 
ATOM     22  C   UNL     1      34.805  19.157  12.966  0.00  0.00    +0.205 C 
ATOM     23  C   UNL     1      34.473  17.692  13.323  0.00  0.00    +0.233 C 
ATOM     24  O   UNL     1      35.318  16.811  13.142  0.00  0.00    -0.274 OA
ATOM     25  H   UNL     1      35.305  21.092  11.444  0.00  0.00    +0.151 HD
BRANCH  15  27
ATOM     26  C   UNL     1      32.117  15.477  12.813  0.00  0.00    +0.024 C 
ATOM     27  C   UNL     1      32.815  16.030  14.047  0.00  0.00    +0.104 C 
ENDBRANCH  15  27
ENDBRANCH   1  21
TORSDOF 2
ENDMDL
