MODEL 1
REMARK VINA RESULT:      -6.0      0.000      0.000
REMARK  Name = ZINC000543478179
REMARK  8 active torsions:
REMARK  status: ('A' for Active; 'I' for Inactive)
REMARK    1  A    between atoms: C_1  and  C_2
REMARK    2  A    between atoms: C_2  and  N_3
REMARK    3  A    between atoms: N_9  and  C_10
REMARK    4  A    between atoms: C_10  and  C_11
REMARK    5  A    between atoms: C_10  and  C_12
REMARK    6  A    between atoms: C_15  and  O_16
REMARK    7  A    between atoms: O_16  and  C_17
REMARK    8  A    between atoms: C_17  and  C_18
REMARK                            x       y       z     vdW  Elec       q    Type
REMARK                         _______ _______ _______ _____ _____    ______ ____
ROOT
ATOM      1  C   UNL     1      33.304  23.006   8.105  0.00  0.00    +0.102 C 
ATOM      2  C   UNL     1      32.092  23.702   7.470  0.00  0.00    +0.033 C 
ENDROOT
BRANCH   1   9
ATOM      3  N   UNL     1      38.711  24.943   5.298  0.00  0.00    -0.299 N 
ATOM      4  C   UNL     1      38.121  23.748   4.692  0.00  0.00    +0.127 C 
ATOM      5  C   UNL     1      37.667  22.736   5.748  0.00  0.00    +0.129 C 
ATOM      6  N   UNL     1      36.695  23.370   6.635  0.00  0.00    -0.275 N 
ATOM      7  C   UNL     1      35.466  22.766   6.863  0.00  0.00    +0.303 C 
ATOM      8  O   UNL     1      35.154  21.684   6.385  0.00  0.00    -0.253 OA
ATOM      9  N   UNL     1      34.605  23.498   7.643  0.00  0.00    -0.293 N 
ATOM     10  C   UNL     1      37.126  24.648   7.206  0.00  0.00    +0.205 C 
ATOM     11  C   UNL     1      38.351  25.342   6.583  0.00  0.00    +0.233 C 
ATOM     12  O   UNL     1      38.881  26.297   7.153  0.00  0.00    -0.274 OA
ATOM     13  H   UNL     1      35.060  24.102   8.307  0.00  0.00    +0.151 HD
BRANCH   3  15
ATOM     14  C   UNL     1      38.431  26.603   3.491  0.00  0.00    +0.024 C 
ATOM     15  C   UNL     1      39.398  25.906   4.439  0.00  0.00    +0.104 C 
ENDBRANCH   3  15
ENDBRANCH   1   9
BRANCH   1  16
ATOM     16  C   UNL     1      33.258  23.175   9.619  0.00  0.00    -0.024 A 
ATOM     17  C   UNL     1      34.151  22.448  10.428  0.00  0.00    +0.009 A 
ATOM     18  C   UNL     1      34.082  22.512  11.817  0.00  0.00    +0.049 A 
ATOM     19  C   UNL     1      33.086  23.269  12.434  0.00  0.00    +0.156 A 
ATOM     20  C   UNL     1      32.236  24.044  11.640  0.00  0.00    +0.165 A 
ATOM     21  F   UNL     1      31.300  24.819  12.207  0.00  0.00    -0.202 F 
ATOM     22  C   UNL     1      32.313  24.000  10.244  0.00  0.00    +0.047 A 
BRANCH  19  23
ATOM     23  O   UNL     1      32.874  23.280  13.787  0.00  0.00    -0.489 OA
BRANCH  23  24
ATOM     24  C   UNL     1      32.836  21.983  14.391  0.00  0.00    +0.232 C 
BRANCH  24  25
ATOM     25  C   UNL     1      31.468  21.409  14.223  0.00  0.00    +0.027 C 
ATOM     26  C   UNL     1      30.799  20.692  15.367  0.00  0.00    +0.007 C 
ATOM     27  C   UNL     1      31.259  19.915  14.163  0.00  0.00    +0.007 C 
ENDBRANCH  24  25
ENDBRANCH  23  24
ENDBRANCH  19  23
ENDBRANCH   1  16
TORSDOF 6
ENDMDL
MODEL 2
REMARK VINA RESULT:      -5.9      7.534      9.445
REMARK  Name = ZINC000543478179
REMARK  8 active torsions:
REMARK  status: ('A' for Active; 'I' for Inactive)
REMARK    1  A    between atoms: C_1  and  C_2
REMARK    2  A    between atoms: C_2  and  N_3
REMARK    3  A    between atoms: N_9  and  C_10
REMARK    4  A    between atoms: C_10  and  C_11
REMARK    5  A    between atoms: C_10  and  C_12
REMARK    6  A    between atoms: C_15  and  O_16
REMARK    7  A    between atoms: O_16  and  C_17
REMARK    8  A    between atoms: C_17  and  C_18
REMARK                            x       y       z     vdW  Elec       q    Type
REMARK                         _______ _______ _______ _____ _____    ______ ____
ROOT
ATOM      1  C   UNL     1      31.915  21.456  15.131  0.00  0.00    +0.102 C 
ATOM      2  C   UNL     1      30.596  21.182  15.866  0.00  0.00    +0.033 C 
ENDROOT
BRANCH   1   9
ATOM      3  N   UNL     1      36.026  25.266  18.206  0.00  0.00    -0.299 N 
ATOM      4  C   UNL     1      35.770  25.662  16.821  0.00  0.00    +0.127 C 
ATOM      5  C   UNL     1      35.798  24.463  15.869  0.00  0.00    +0.129 C 
ATOM      6  N   UNL     1      34.799  23.487  16.294  0.00  0.00    -0.275 N 
ATOM      7  C   UNL     1      33.864  23.010  15.387  0.00  0.00    +0.303 C 
ATOM      8  O   UNL     1      33.850  23.335  14.207  0.00  0.00    -0.253 OA
ATOM      9  N   UNL     1      32.924  22.165  15.924  0.00  0.00    -0.293 N 
ATOM     10  C   UNL     1      34.874  23.106  17.706  0.00  0.00    +0.205 C 
ATOM     11  C   UNL     1      35.726  23.979  18.646  0.00  0.00    +0.233 C 
ATOM     12  O   UNL     1      35.997  23.588  19.783  0.00  0.00    -0.274 OA
ATOM     13  H   UNL     1      33.246  21.639  16.718  0.00  0.00    +0.151 HD
BRANCH   3  15
ATOM     14  C   UNL     1      37.522  27.100  18.913  0.00  0.00    +0.024 C 
ATOM     15  C   UNL     1      36.256  26.306  19.208  0.00  0.00    +0.104 C 
ENDBRANCH   3  15
ENDBRANCH   1   9
BRANCH   1  16
ATOM     16  C   UNL     1      32.531  20.139  14.674  0.00  0.00    -0.024 A 
ATOM     17  C   UNL     1      32.777  19.924  13.305  0.00  0.00    +0.009 A 
ATOM     18  C   UNL     1      33.259  18.702  12.842  0.00  0.00    +0.049 A 
ATOM     19  C   UNL     1      33.462  17.648  13.731  0.00  0.00    +0.156 A 
ATOM     20  C   UNL     1      33.282  17.872  15.099  0.00  0.00    +0.165 A 
ATOM     21  F   UNL     1      33.516  16.891  15.983  0.00  0.00    -0.202 F 
ATOM     22  C   UNL     1      32.817  19.103  15.573  0.00  0.00    +0.047 A 
BRANCH  19  23
ATOM     23  O   UNL     1      33.810  16.382  13.338  0.00  0.00    -0.489 OA
BRANCH  23  24
ATOM     24  C   UNL     1      32.704  15.491  13.166  0.00  0.00    +0.232 C 
BRANCH  24  25
ATOM     25  C   UNL     1      32.403  15.366  11.708  0.00  0.00    +0.027 C 
ATOM     26  C   UNL     1      31.124  14.715  11.250  0.00  0.00    +0.007 C 
ATOM     27  C   UNL     1      32.440  14.020  11.025  0.00  0.00    +0.007 C 
ENDBRANCH  24  25
ENDBRANCH  23  24
ENDBRANCH  19  23
ENDBRANCH   1  16
TORSDOF 6
ENDMDL
MODEL 3
REMARK VINA RESULT:      -5.8      4.343      6.960
REMARK  Name = ZINC000543478179
REMARK  8 active torsions:
REMARK  status: ('A' for Active; 'I' for Inactive)
REMARK    1  A    between atoms: C_1  and  C_2
REMARK    2  A    between atoms: C_2  and  N_3
REMARK    3  A    between atoms: N_9  and  C_10
REMARK    4  A    between atoms: C_10  and  C_11
REMARK    5  A    between atoms: C_10  and  C_12
REMARK    6  A    between atoms: C_15  and  O_16
REMARK    7  A    between atoms: O_16  and  C_17
REMARK    8  A    between atoms: C_17  and  C_18
REMARK                            x       y       z     vdW  Elec       q    Type
REMARK                         _______ _______ _______ _____ _____    ______ ____
ROOT
ATOM      1  C   UNL     1      32.407  20.450  14.878  0.00  0.00    +0.102 C 
ATOM      2  C   UNL     1      30.925  20.737  15.156  0.00  0.00    +0.033 C 
ENDROOT
BRANCH   1   9
ATOM      3  N   UNL     1      34.041  22.235   8.962  0.00  0.00    -0.299 N 
ATOM      4  C   UNL     1      33.748  20.807   9.092  0.00  0.00    +0.127 C 
ATOM      5  C   UNL     1      34.402  20.201  10.338  0.00  0.00    +0.129 C 
ATOM      6  N   UNL     1      33.930  20.911  11.523  0.00  0.00    -0.275 N 
ATOM      7  C   UNL     1      33.397  20.203  12.590  0.00  0.00    +0.303 C 
ATOM      8  O   UNL     1      33.333  18.981  12.617  0.00  0.00    -0.253 OA
ATOM      9  N   UNL     1      32.908  20.984  13.609  0.00  0.00    -0.293 N 
ATOM     10  C   UNL     1      34.054  22.368  11.456  0.00  0.00    +0.205 C 
ATOM     11  C   UNL     1      34.330  23.009  10.083  0.00  0.00    +0.233 C 
ATOM     12  O   UNL     1      34.654  24.194  10.003  0.00  0.00    -0.274 OA
ATOM     13  H   UNL     1      33.368  21.872  13.706  0.00  0.00    +0.151 HD
BRANCH   3  15
ATOM     14  C   UNL     1      32.230  23.370   7.723  0.00  0.00    +0.024 C 
ATOM     15  C   UNL     1      33.685  22.918   7.719  0.00  0.00    +0.104 C 
ENDBRANCH   3  15
ENDBRANCH   1   9
BRANCH   1  16
ATOM     16  C   UNL     1      33.262  21.037  15.995  0.00  0.00    -0.024 A 
ATOM     17  C   UNL     1      33.660  22.385  15.932  0.00  0.00    +0.009 A 
ATOM     18  C   UNL     1      34.510  22.932  16.888  0.00  0.00    +0.049 A 
ATOM     19  C   UNL     1      35.023  22.131  17.909  0.00  0.00    +0.156 A 
ATOM     20  C   UNL     1      34.582  20.809  18.018  0.00  0.00    +0.165 A 
ATOM     21  F   UNL     1      35.020  20.028  19.016  0.00  0.00    -0.202 F 
ATOM     22  C   UNL     1      33.712  20.259  17.071  0.00  0.00    +0.047 A 
BRANCH  19  23
ATOM     23  O   UNL     1      35.961  22.561  18.810  0.00  0.00    -0.489 OA
BRANCH  23  24
ATOM     24  C   UNL     1      36.201  23.972  18.785  0.00  0.00    +0.232 C 
BRANCH  24  25
ATOM     25  C   UNL     1      35.434  24.613  19.895  0.00  0.00    +0.027 C 
ATOM     26  C   UNL     1      34.402  25.668  19.592  0.00  0.00    +0.007 C 
ATOM     27  C   UNL     1      35.686  26.052  20.276  0.00  0.00    +0.007 C 
ENDBRANCH  24  25
ENDBRANCH  23  24
ENDBRANCH  19  23
ENDBRANCH   1  16
TORSDOF 6
ENDMDL
MODEL 4
REMARK VINA RESULT:      -5.8      4.647      7.132
REMARK  Name = ZINC000543478179
REMARK  8 active torsions:
REMARK  status: ('A' for Active; 'I' for Inactive)
REMARK    1  A    between atoms: C_1  and  C_2
REMARK    2  A    between atoms: C_2  and  N_3
REMARK    3  A    between atoms: N_9  and  C_10
REMARK    4  A    between atoms: C_10  and  C_11
REMARK    5  A    between atoms: C_10  and  C_12
REMARK    6  A    between atoms: C_15  and  O_16
REMARK    7  A    between atoms: O_16  and  C_17
REMARK    8  A    between atoms: C_17  and  C_18
REMARK                            x       y       z     vdW  Elec       q    Type
REMARK                         _______ _______ _______ _____ _____    ______ ____
ROOT
ATOM      1  C   UNL     1      32.218  20.451  15.014  0.00  0.00    +0.102 C 
ATOM      2  C   UNL     1      30.911  21.107  15.481  0.00  0.00    +0.033 C 
ENDROOT
BRANCH   1   9
ATOM      3  N   UNL     1      33.967  22.114   9.095  0.00  0.00    -0.299 N 
ATOM      4  C   UNL     1      33.699  20.685   9.256  0.00  0.00    +0.127 C 
ATOM      5  C   UNL     1      34.333  20.124  10.533  0.00  0.00    +0.129 C 
ATOM      6  N   UNL     1      33.817  20.855  11.687  0.00  0.00    -0.275 N 
ATOM      7  C   UNL     1      33.270  20.164  12.759  0.00  0.00    +0.303 C 
ATOM      8  O   UNL     1      33.230  18.942  12.816  0.00  0.00    -0.253 OA
ATOM      9  N   UNL     1      32.741  20.962  13.744  0.00  0.00    -0.293 N 
ATOM     10  C   UNL     1      33.914  22.313  11.584  0.00  0.00    +0.205 C 
ATOM     11  C   UNL     1      34.212  22.923  10.202  0.00  0.00    +0.233 C 
ATOM     12  O   UNL     1      34.516  24.112  10.099  0.00  0.00    -0.274 OA
ATOM     13  H   UNL     1      33.181  21.861  13.829  0.00  0.00    +0.151 HD
BRANCH   3  15
ATOM     14  C   UNL     1      32.215  23.322   7.840  0.00  0.00    +0.024 C 
ATOM     15  C   UNL     1      33.630  22.758   7.826  0.00  0.00    +0.104 C 
ENDBRANCH   3  15
ENDBRANCH   1   9
BRANCH   1  16
ATOM     16  C   UNL     1      33.298  20.649  16.071  0.00  0.00    -0.024 A 
ATOM     17  C   UNL     1      33.955  19.529  16.614  0.00  0.00    +0.009 A 
ATOM     18  C   UNL     1      34.885  19.665  17.640  0.00  0.00    +0.049 A 
ATOM     19  C   UNL     1      35.149  20.923  18.183  0.00  0.00    +0.156 A 
ATOM     20  C   UNL     1      34.552  22.047  17.606  0.00  0.00    +0.165 A 
ATOM     21  F   UNL     1      34.822  23.274  18.075  0.00  0.00    -0.202 F 
ATOM     22  C   UNL     1      33.630  21.919  16.561  0.00  0.00    +0.047 A 
BRANCH  19  23
ATOM     23  O   UNL     1      35.952  21.122  19.275  0.00  0.00    -0.489 OA
BRANCH  23  24
ATOM     24  C   UNL     1      36.257  19.933  20.010  0.00  0.00    +0.232 C 
BRANCH  24  25
ATOM     25  C   UNL     1      35.450  19.920  21.267  0.00  0.00    +0.027 C 
ATOM     26  C   UNL     1      36.108  20.192  22.595  0.00  0.00    +0.007 C 
ATOM     27  C   UNL     1      35.610  18.808  22.275  0.00  0.00    +0.007 C 
ENDBRANCH  24  25
ENDBRANCH  23  24
ENDBRANCH  19  23
ENDBRANCH   1  16
TORSDOF 6
ENDMDL
MODEL 5
REMARK VINA RESULT:      -5.7      3.892      8.867
REMARK  Name = ZINC000543478179
REMARK  8 active torsions:
REMARK  status: ('A' for Active; 'I' for Inactive)
REMARK    1  A    between atoms: C_1  and  C_2
REMARK    2  A    between atoms: C_2  and  N_3
REMARK    3  A    between atoms: N_9  and  C_10
REMARK    4  A    between atoms: C_10  and  C_11
REMARK    5  A    between atoms: C_10  and  C_12
REMARK    6  A    between atoms: C_15  and  O_16
REMARK    7  A    between atoms: O_16  and  C_17
REMARK    8  A    between atoms: C_17  and  C_18
REMARK                            x       y       z     vdW  Elec       q    Type
REMARK                         _______ _______ _______ _____ _____    ______ ____
ROOT
ATOM      1  C   UNL     1      33.470  23.021   8.245  0.00  0.00    +0.102 C 
ATOM      2  C   UNL     1      32.138  23.367   7.564  0.00  0.00    +0.033 C 
ENDROOT
BRANCH   1   9
ATOM      3  N   UNL     1      32.216  20.963  14.166  0.00  0.00    -0.299 N 
ATOM      4  C   UNL     1      31.955  22.389  13.964  0.00  0.00    +0.127 C 
ATOM      5  C   UNL     1      33.089  23.075  13.196  0.00  0.00    +0.129 C 
ATOM      6  N   UNL     1      33.261  22.418  11.903  0.00  0.00    -0.275 N 
ATOM      7  C   UNL     1      33.259  23.169  10.737  0.00  0.00    +0.303 C 
ATOM      8  O   UNL     1      33.161  24.389  10.727  0.00  0.00    -0.253 OA
ATOM      9  N   UNL     1      33.340  22.432   9.580  0.00  0.00    -0.293 N 
ATOM     10  C   UNL     1      33.403  20.962  11.968  0.00  0.00    +0.205 C 
ATOM     11  C   UNL     1      33.031  20.256  13.285  0.00  0.00    +0.233 C 
ATOM     12  O   UNL     1      33.333  19.076  13.465  0.00  0.00    -0.274 OA
ATOM     13  H   UNL     1      33.831  21.560   9.680  0.00  0.00    +0.151 HD
BRANCH   3  15
ATOM     14  C   UNL     1      30.580  21.125  16.010  0.00  0.00    +0.024 C 
ATOM     15  C   UNL     1      31.350  20.207  15.069  0.00  0.00    +0.104 C 
ENDBRANCH   3  15
ENDBRANCH   1   9
BRANCH   1  16
ATOM     16  C   UNL     1      34.248  22.036   7.380  0.00  0.00    -0.024 A 
ATOM     17  C   UNL     1      34.340  20.687   7.772  0.00  0.00    +0.009 A 
ATOM     18  C   UNL     1      35.112  19.779   7.053  0.00  0.00    +0.049 A 
ATOM     19  C   UNL     1      35.851  20.206   5.950  0.00  0.00    +0.156 A 
ATOM     20  C   UNL     1      35.714  21.528   5.516  0.00  0.00    +0.165 A 
ATOM     21  F   UNL     1      36.375  21.956   4.430  0.00  0.00    -0.202 F 
ATOM     22  C   UNL     1      34.924  22.441   6.222  0.00  0.00    +0.047 A 
BRANCH  19  23
ATOM     23  O   UNL     1      36.730  19.404   5.272  0.00  0.00    -0.489 OA
BRANCH  23  24
ATOM     24  C   UNL     1      37.416  18.452   6.091  0.00  0.00    +0.232 C 
BRANCH  24  25
ATOM     25  C   UNL     1      37.307  17.103   5.460  0.00  0.00    +0.027 C 
ATOM     26  C   UNL     1      35.976  16.602   4.963  0.00  0.00    +0.007 C 
ATOM     27  C   UNL     1      36.608  15.971   6.175  0.00  0.00    +0.007 C 
ENDBRANCH  24  25
ENDBRANCH  23  24
ENDBRANCH  19  23
ENDBRANCH   1  16
TORSDOF 6
ENDMDL
MODEL 6
REMARK VINA RESULT:      -5.7     15.781     17.606
REMARK  Name = ZINC000543478179
REMARK  8 active torsions:
REMARK  status: ('A' for Active; 'I' for Inactive)
REMARK    1  A    between atoms: C_1  and  C_2
REMARK    2  A    between atoms: C_2  and  N_3
REMARK    3  A    between atoms: N_9  and  C_10
REMARK    4  A    between atoms: C_10  and  C_11
REMARK    5  A    between atoms: C_10  and  C_12
REMARK    6  A    between atoms: C_15  and  O_16
REMARK    7  A    between atoms: O_16  and  C_17
REMARK    8  A    between atoms: C_17  and  C_18
REMARK                            x       y       z     vdW  Elec       q    Type
REMARK                         _______ _______ _______ _____ _____    ______ ____
ROOT
ATOM      1  C   UNL     1      23.574  26.378  24.764  0.00  0.00    +0.102 C 
ATOM      2  C   UNL     1      23.195  27.325  25.912  0.00  0.00    +0.033 C 
ENDROOT
BRANCH   1   9
ATOM      3  N   UNL     1      24.740  29.256  19.177  0.00  0.00    -0.299 N 
ATOM      4  C   UNL     1      23.732  28.198  19.101  0.00  0.00    +0.127 C 
ATOM      5  C   UNL     1      24.162  26.942  19.866  0.00  0.00    +0.129 C 
ATOM      6  N   UNL     1      24.409  27.290  21.262  0.00  0.00    -0.275 N 
ATOM      7  C   UNL     1      23.790  26.572  22.276  0.00  0.00    +0.303 C 
ATOM      8  O   UNL     1      23.062  25.611  22.067  0.00  0.00    -0.253 OA
ATOM      9  N   UNL     1      24.030  27.047  23.543  0.00  0.00    -0.293 N 
ATOM     10  C   UNL     1      25.309  28.427  21.463  0.00  0.00    +0.205 C 
ATOM     11  C   UNL     1      25.623  29.325  20.251  0.00  0.00    +0.233 C 
ATOM     12  O   UNL     1      26.531  30.154  20.310  0.00  0.00    -0.274 OA
ATOM     13  H   UNL     1      24.916  27.509  23.650  0.00  0.00    +0.151 HD
BRANCH   3  15
ATOM     14  C   UNL     1      23.880  30.098  17.019  0.00  0.00    +0.024 C 
ATOM     15  C   UNL     1      24.593  30.434  18.323  0.00  0.00    +0.104 C 
ENDBRANCH   3  15
ENDBRANCH   1   9
BRANCH   1  16
ATOM     16  C   UNL     1      24.686  25.440  25.219  0.00  0.00    -0.024 A 
ATOM     17  C   UNL     1      25.991  25.613  24.719  0.00  0.00    +0.009 A 
ATOM     18  C   UNL     1      27.011  24.725  25.046  0.00  0.00    +0.049 A 
ATOM     19  C   UNL     1      26.743  23.612  25.842  0.00  0.00    +0.156 A 
ATOM     20  C   UNL     1      25.467  23.467  26.395  0.00  0.00    +0.165 A 
ATOM     21  F   UNL     1      25.192  22.433  27.203  0.00  0.00    -0.202 F 
ATOM     22  C   UNL     1      24.441  24.368  26.087  0.00  0.00    +0.047 A 
BRANCH  19  23
ATOM     23  O   UNL     1      27.660  22.627  26.101  0.00  0.00    -0.489 OA
BRANCH  23  24
ATOM     24  C   UNL     1      28.242  22.039  24.933  0.00  0.00    +0.232 C 
BRANCH  24  25
ATOM     25  C   UNL     1      27.205  21.223  24.233  0.00  0.00    +0.027 C 
ATOM     26  C   UNL     1      26.466  20.139  24.972  0.00  0.00    +0.007 C 
ATOM     27  C   UNL     1      27.458  19.773  23.902  0.00  0.00    +0.007 C 
ENDBRANCH  24  25
ENDBRANCH  23  24
ENDBRANCH  19  23
ENDBRANCH   1  16
TORSDOF 6
ENDMDL
MODEL 7
REMARK VINA RESULT:      -5.7      3.939      8.875
REMARK  Name = ZINC000543478179
REMARK  8 active torsions:
REMARK  status: ('A' for Active; 'I' for Inactive)
REMARK    1  A    between atoms: C_1  and  C_2
REMARK    2  A    between atoms: C_2  and  N_3
REMARK    3  A    between atoms: N_9  and  C_10
REMARK    4  A    between atoms: C_10  and  C_11
REMARK    5  A    between atoms: C_10  and  C_12
REMARK    6  A    between atoms: C_15  and  O_16
REMARK    7  A    between atoms: O_16  and  C_17
REMARK    8  A    between atoms: C_17  and  C_18
REMARK                            x       y       z     vdW  Elec       q    Type
REMARK                         _______ _______ _______ _____ _____    ______ ____
ROOT
ATOM      1  C   UNL     1      32.779  23.960  12.094  0.00  0.00    +0.102 C 
ATOM      2  C   UNL     1      31.367  24.560  12.157  0.00  0.00    +0.033 C 
ENDROOT
BRANCH   1   9
ATOM      3  N   UNL     1      33.538  18.620  15.526  0.00  0.00    -0.299 N 
ATOM      4  C   UNL     1      32.363  18.604  14.654  0.00  0.00    +0.127 C 
ATOM      5  C   UNL     1      31.581  19.920  14.723  0.00  0.00    +0.129 C 
ATOM      6  N   UNL     1      32.461  21.022  14.344  0.00  0.00    -0.275 N 
ATOM      7  C   UNL     1      32.071  21.914  13.355  0.00  0.00    +0.303 C 
ATOM      8  O   UNL     1      30.986  21.856  12.792  0.00  0.00    -0.253 OA
ATOM      9  N   UNL     1      33.017  22.854  13.026  0.00  0.00    -0.293 N 
ATOM     10  C   UNL     1      33.735  21.067  15.065  0.00  0.00    +0.205 C 
ATOM     11  C   UNL     1      34.159  19.820  15.862  0.00  0.00    +0.233 C 
ATOM     12  O   UNL     1      35.102  19.878  16.653  0.00  0.00    -0.274 OA
ATOM     13  H   UNL     1      33.639  23.095  13.778  0.00  0.00    +0.151 HD
BRANCH   3  15
ATOM     14  C   UNL     1      33.361  16.157  15.602  0.00  0.00    +0.024 C 
ATOM     15  C   UNL     1      34.266  17.373  15.752  0.00  0.00    +0.104 C 
ENDBRANCH   3  15
ENDBRANCH   1   9
BRANCH   1  16
ATOM     16  C   UNL     1      33.056  23.445  10.687  0.00  0.00    -0.024 A 
ATOM     17  C   UNL     1      34.134  22.567  10.466  0.00  0.00    +0.009 A 
ATOM     18  C   UNL     1      34.468  22.144   9.183  0.00  0.00    +0.049 A 
ATOM     19  C   UNL     1      33.761  22.625   8.081  0.00  0.00    +0.156 A 
ATOM     20  C   UNL     1      32.650  23.444   8.295  0.00  0.00    +0.165 A 
ATOM     21  F   UNL     1      31.921  23.884   7.258  0.00  0.00    -0.202 F 
ATOM     22  C   UNL     1      32.296  23.858   9.584  0.00  0.00    +0.047 A 
BRANCH  19  23
ATOM     23  O   UNL     1      34.109  22.357   6.783  0.00  0.00    -0.489 OA
BRANCH  23  24
ATOM     24  C   UNL     1      35.401  21.761   6.628  0.00  0.00    +0.232 C 
BRANCH  24  25
ATOM     25  C   UNL     1      35.232  20.357   6.145  0.00  0.00    +0.027 C 
ATOM     26  C   UNL     1      35.376  19.203   7.102  0.00  0.00    +0.007 C 
ATOM     27  C   UNL     1      36.418  19.430   6.041  0.00  0.00    +0.007 C 
ENDBRANCH  24  25
ENDBRANCH  23  24
ENDBRANCH  19  23
ENDBRANCH   1  16
TORSDOF 6
ENDMDL
MODEL 8
REMARK VINA RESULT:      -5.6      6.598      7.915
REMARK  Name = ZINC000543478179
REMARK  8 active torsions:
REMARK  status: ('A' for Active; 'I' for Inactive)
REMARK    1  A    between atoms: C_1  and  C_2
REMARK    2  A    between atoms: C_2  and  N_3
REMARK    3  A    between atoms: N_9  and  C_10
REMARK    4  A    between atoms: C_10  and  C_11
REMARK    5  A    between atoms: C_10  and  C_12
REMARK    6  A    between atoms: C_15  and  O_16
REMARK    7  A    between atoms: O_16  and  C_17
REMARK    8  A    between atoms: C_17  and  C_18
REMARK                            x       y       z     vdW  Elec       q    Type
REMARK                         _______ _______ _______ _____ _____    ______ ____
ROOT
ATOM      1  C   UNL     1      32.797  14.820  11.320  0.00  0.00    +0.102 C 
ATOM      2  C   UNL     1      31.309  14.576  11.031  0.00  0.00    +0.033 C 
ENDROOT
BRANCH   1   9
ATOM      3  N   UNL     1      35.998  15.945   5.901  0.00  0.00    -0.299 N 
ATOM      4  C   UNL     1      36.020  14.544   6.325  0.00  0.00    +0.127 C 
ATOM      5  C   UNL     1      36.301  14.404   7.824  0.00  0.00    +0.129 C 
ATOM      6  N   UNL     1      35.280  15.130   8.575  0.00  0.00    -0.275 N 
ATOM      7  C   UNL     1      34.577  14.492   9.587  0.00  0.00    +0.303 C 
ATOM      8  O   UNL     1      34.795  13.337   9.927  0.00  0.00    -0.253 OA
ATOM      9  N   UNL     1      33.585  15.250  10.160  0.00  0.00    -0.293 N 
ATOM     10  C   UNL     1      35.075  16.517   8.151  0.00  0.00    +0.205 C 
ATOM     11  C   UNL     1      35.672  16.957   6.801  0.00  0.00    +0.233 C 
ATOM     12  O   UNL     1      35.717  18.150   6.500  0.00  0.00    -0.274 OA
ATOM     13  H   UNL     1      33.758  16.240  10.142  0.00  0.00    +0.151 HD
BRANCH   3  15
ATOM     14  C   UNL     1      35.090  15.269   3.706  0.00  0.00    +0.024 C 
ATOM     15  C   UNL     1      35.967  16.250   4.472  0.00  0.00    +0.104 C 
ENDBRANCH   3  15
ENDBRANCH   1   9
BRANCH   1  16
ATOM     16  C   UNL     1      32.943  15.888  12.397  0.00  0.00    -0.024 A 
ATOM     17  C   UNL     1      33.415  17.168  12.050  0.00  0.00    +0.009 A 
ATOM     18  C   UNL     1      33.641  18.141  13.019  0.00  0.00    +0.049 A 
ATOM     19  C   UNL     1      33.446  17.844  14.368  0.00  0.00    +0.156 A 
ATOM     20  C   UNL     1      32.917  16.599  14.716  0.00  0.00    +0.165 A 
ATOM     21  F   UNL     1      32.674  16.301  16.001  0.00  0.00    -0.202 F 
ATOM     22  C   UNL     1      32.668  15.623  13.745  0.00  0.00    +0.047 A 
BRANCH  19  23
ATOM     23  O   UNL     1      33.768  18.703  15.385  0.00  0.00    -0.489 OA
BRANCH  23  24
ATOM     24  C   UNL     1      33.217  20.016  15.248  0.00  0.00    +0.232 C 
BRANCH  24  25
ATOM     25  C   UNL     1      31.728  19.915  15.194  0.00  0.00    +0.027 C 
ATOM     26  C   UNL     1      30.955  20.648  14.129  0.00  0.00    +0.007 C 
ATOM     27  C   UNL     1      30.860  21.094  15.563  0.00  0.00    +0.007 C 
ENDBRANCH  24  25
ENDBRANCH  23  24
ENDBRANCH  19  23
ENDBRANCH   1  16
TORSDOF 6
ENDMDL
MODEL 9
REMARK VINA RESULT:      -5.6      3.760      8.775
REMARK  Name = ZINC000543478179
REMARK  8 active torsions:
REMARK  status: ('A' for Active; 'I' for Inactive)
REMARK    1  A    between atoms: C_1  and  C_2
REMARK    2  A    between atoms: C_2  and  N_3
REMARK    3  A    between atoms: N_9  and  C_10
REMARK    4  A    between atoms: C_10  and  C_11
REMARK    5  A    between atoms: C_10  and  C_12
REMARK    6  A    between atoms: C_15  and  O_16
REMARK    7  A    between atoms: O_16  and  C_17
REMARK    8  A    between atoms: C_17  and  C_18
REMARK                            x       y       z     vdW  Elec       q    Type
REMARK                         _______ _______ _______ _____ _____    ______ ____
ROOT
ATOM      1  C   UNL     1      33.140  23.590  11.202  0.00  0.00    +0.102 C 
ATOM      2  C   UNL     1      31.729  24.186  11.301  0.00  0.00    +0.033 C 
ENDROOT
BRANCH   1   9
ATOM      3  N   UNL     1      33.339  18.110  14.488  0.00  0.00    -0.299 N 
ATOM      4  C   UNL     1      33.439  19.308  15.323  0.00  0.00    +0.127 C 
ATOM      5  C   UNL     1      34.409  20.336  14.733  0.00  0.00    +0.129 C 
ATOM      6  N   UNL     1      33.962  20.706  13.393  0.00  0.00    -0.275 N 
ATOM      7  C   UNL     1      33.795  22.043  13.061  0.00  0.00    +0.303 C 
ATOM      8  O   UNL     1      34.047  22.960  13.831  0.00  0.00    -0.253 OA
ATOM      9  N   UNL     1      33.288  22.261  11.803  0.00  0.00    -0.293 N 
ATOM     10  C   UNL     1      33.702  19.576  12.499  0.00  0.00    +0.205 C 
ATOM     11  C   UNL     1      33.592  18.171  13.120  0.00  0.00    +0.233 C 
ATOM     12  O   UNL     1      33.591  17.171  12.401  0.00  0.00    -0.274 OA
ATOM     13  H   UNL     1      33.519  21.547  11.134  0.00  0.00    +0.151 HD
BRANCH   3  15
ATOM     14  C   UNL     1      33.549  16.067  15.861  0.00  0.00    +0.024 C 
ATOM     15  C   UNL     1      32.635  16.941  15.012  0.00  0.00    +0.104 C 
ENDBRANCH   3  15
ENDBRANCH   1   9
BRANCH   1  16
ATOM     16  C   UNL     1      33.550  23.483   9.738  0.00  0.00    -0.024 A 
ATOM     17  C   UNL     1      32.582  23.171   8.765  0.00  0.00    +0.009 A 
ATOM     18  C   UNL     1      32.935  22.981   7.432  0.00  0.00    +0.049 A 
ATOM     19  C   UNL     1      34.273  23.052   7.045  0.00  0.00    +0.156 A 
ATOM     20  C   UNL     1      35.232  23.425   7.991  0.00  0.00    +0.165 A 
ATOM     21  F   UNL     1      36.520  23.547   7.639  0.00  0.00    -0.202 F 
ATOM     22  C   UNL     1      34.882  23.636   9.329  0.00  0.00    +0.047 A 
BRANCH  19  23
ATOM     23  O   UNL     1      34.713  22.753   5.783  0.00  0.00    -0.489 OA
BRANCH  23  24
ATOM     24  C   UNL     1      35.663  21.684   5.724  0.00  0.00    +0.232 C 
BRANCH  24  25
ATOM     25  C   UNL     1      34.961  20.395   6.000  0.00  0.00    +0.027 C 
ATOM     26  C   UNL     1      35.086  19.736   7.349  0.00  0.00    +0.007 C 
ATOM     27  C   UNL     1      35.737  19.109   6.146  0.00  0.00    +0.007 C 
ENDBRANCH  24  25
ENDBRANCH  23  24
ENDBRANCH  19  23
ENDBRANCH   1  16
TORSDOF 6
ENDMDL
