MODEL 1
REMARK VINA RESULT:      -6.9      0.000      0.000
REMARK  Name = ZINC000329563636
REMARK  3 active torsions:
REMARK  status: ('A' for Active; 'I' for Inactive)
REMARK    1  A    between atoms: C_1  and  C_2
REMARK    2  A    between atoms: C_2  and  N_3
REMARK    3  A    between atoms: N_9  and  C_10
REMARK                            x       y       z     vdW  Elec       q    Type
REMARK                         _______ _______ _______ _____ _____    ______ ____
ROOT
ATOM      1  C   UNL     1      32.165  21.361  16.069  0.00  0.00    +0.112 C 
ATOM      2  C   UNL     1      32.623  19.901  15.984  0.00  0.00    +0.075 C 
ATOM      3  C   UNL     1      31.516  18.861  16.215  0.00  0.00    +0.113 C 
ATOM      4  C   UNL     1      30.671  18.522  14.959  0.00  0.00    +0.048 C 
ATOM      5  C   UNL     1      31.020  17.086  14.585  0.00  0.00    +0.004 C 
ATOM      6  C   UNL     1      31.371  16.437  15.909  0.00  0.00    +0.004 C 
ATOM      7  C   UNL     1      32.181  17.516  16.608  0.00  0.00    +0.048 C 
ATOM      8  O   UNL     1      30.647  19.235  17.302  0.00  0.00    -0.485 OA
ATOM      9  C   UNL     1      30.067  20.464  17.124  0.00  0.00    +0.126 A 
ATOM     10  C   UNL     1      28.763  20.630  17.588  0.00  0.00    +0.046 A 
ATOM     11  C   UNL     1      28.104  21.846  17.400  0.00  0.00    +0.004 A 
ATOM     12  C   UNL     1      28.760  22.902  16.770  0.00  0.00    +0.001 A 
ATOM     13  C   UNL     1      30.076  22.742  16.336  0.00  0.00    +0.009 A 
ATOM     14  C   UNL     1      30.741  21.517  16.511  0.00  0.00    +0.015 A 
ENDROOT
BRANCH   1  21
ATOM     15  N   UNL     1      35.113  25.741  19.538  0.00  0.00    -0.299 N 
ATOM     16  C   UNL     1      34.858  26.100  18.143  0.00  0.00    +0.127 C 
ATOM     17  C   UNL     1      35.278  24.984  17.192  0.00  0.00    +0.129 C 
ATOM     18  N   UNL     1      34.545  23.775  17.536  0.00  0.00    -0.275 N 
ATOM     19  C   UNL     1      33.710  23.211  16.597  0.00  0.00    +0.303 C 
ATOM     20  O   UNL     1      33.557  23.694  15.476  0.00  0.00    -0.253 OA
ATOM     21  N   UNL     1      33.033  22.096  16.991  0.00  0.00    -0.292 N 
ATOM     22  C   UNL     1      34.733  23.329  18.920  0.00  0.00    +0.205 C 
ATOM     23  C   UNL     1      34.985  24.425  19.977  0.00  0.00    +0.233 C 
ATOM     24  O   UNL     1      35.101  24.115  21.165  0.00  0.00    -0.274 OA
ATOM     25  H   UNL     1      33.426  21.540  17.734  0.00  0.00    +0.151 HD
BRANCH  15  27
ATOM     26  C   UNL     1      35.984  28.003  20.060  0.00  0.00    +0.024 C 
ATOM     27  C   UNL     1      35.157  26.814  20.526  0.00  0.00    +0.104 C 
ENDBRANCH  15  27
ENDBRANCH   1  21
TORSDOF 2
ENDMDL
MODEL 2
REMARK VINA RESULT:      -6.6      5.304      8.636
REMARK  Name = ZINC000329563636
REMARK  3 active torsions:
REMARK  status: ('A' for Active; 'I' for Inactive)
REMARK    1  A    between atoms: C_1  and  C_2
REMARK    2  A    between atoms: C_2  and  N_3
REMARK    3  A    between atoms: N_9  and  C_10
REMARK                            x       y       z     vdW  Elec       q    Type
REMARK                         _______ _______ _______ _____ _____    ______ ____
ROOT
ATOM      1  C   UNL     1      26.262  24.365  19.982  0.00  0.00    +0.112 C 
ATOM      2  C   UNL     1      26.481  25.337  21.147  0.00  0.00    +0.075 C 
ATOM      3  C   UNL     1      25.569  26.572  21.139  0.00  0.00    +0.113 C 
ATOM      4  C   UNL     1      24.170  26.351  21.773  0.00  0.00    +0.048 C 
ATOM      5  C   UNL     1      24.150  27.169  23.060  0.00  0.00    +0.004 C 
ATOM      6  C   UNL     1      25.078  28.332  22.768  0.00  0.00    +0.004 C 
ATOM      7  C   UNL     1      26.222  27.670  22.019  0.00  0.00    +0.048 C 
ATOM      8  O   UNL     1      25.423  27.124  19.816  0.00  0.00    -0.485 OA
ATOM      9  C   UNL     1      24.943  26.217  18.908  0.00  0.00    +0.126 A 
ATOM     10  C   UNL     1      24.087  26.694  17.917  0.00  0.00    +0.046 A 
ATOM     11  C   UNL     1      23.533  25.811  16.988  0.00  0.00    +0.004 A 
ATOM     12  C   UNL     1      23.856  24.457  17.038  0.00  0.00    +0.001 A 
ATOM     13  C   UNL     1      24.740  23.989  18.011  0.00  0.00    +0.009 A 
ATOM     14  C   UNL     1      25.290  24.869  18.957  0.00  0.00    +0.015 A 
ENDROOT
BRANCH   1  21
ATOM     15  N   UNL     1      30.879  22.795  15.967  0.00  0.00    -0.299 N 
ATOM     16  C   UNL     1      29.716  21.909  15.977  0.00  0.00    +0.127 C 
ATOM     17  C   UNL     1      29.315  21.525  17.397  0.00  0.00    +0.129 C 
ATOM     18  N   UNL     1      29.022  22.738  18.145  0.00  0.00    -0.275 N 
ATOM     19  C   UNL     1      27.758  22.913  18.661  0.00  0.00    +0.303 C 
ATOM     20  O   UNL     1      26.862  22.083  18.510  0.00  0.00    -0.253 OA
ATOM     21  N   UNL     1      27.541  24.083  19.328  0.00  0.00    -0.292 N 
ATOM     22  C   UNL     1      30.129  23.698  18.197  0.00  0.00    +0.205 C 
ATOM     23  C   UNL     1      31.078  23.733  16.979  0.00  0.00    +0.233 C 
ATOM     24  O   UNL     1      31.998  24.554  16.942  0.00  0.00    -0.274 OA
ATOM     25  H   UNL     1      28.335  24.551  19.734  0.00  0.00    +0.151 HD
BRANCH  15  27
ATOM     26  C   UNL     1      31.099  22.027  13.620  0.00  0.00    +0.024 C 
ATOM     27  C   UNL     1      31.632  22.929  14.725  0.00  0.00    +0.104 C 
ENDBRANCH  15  27
ENDBRANCH   1  21
TORSDOF 2
ENDMDL
MODEL 3
REMARK VINA RESULT:      -6.5      3.240      8.494
REMARK  Name = ZINC000329563636
REMARK  3 active torsions:
REMARK  status: ('A' for Active; 'I' for Inactive)
REMARK    1  A    between atoms: C_1  and  C_2
REMARK    2  A    between atoms: C_2  and  N_3
REMARK    3  A    between atoms: N_9  and  C_10
REMARK                            x       y       z     vdW  Elec       q    Type
REMARK                         _______ _______ _______ _____ _____    ______ ____
ROOT
ATOM      1  C   UNL     1      31.489  20.980  15.626  0.00  0.00    +0.112 C 
ATOM      2  C   UNL     1      32.271  21.159  16.932  0.00  0.00    +0.075 C 
ATOM      3  C   UNL     1      33.169  22.404  16.982  0.00  0.00    +0.113 C 
ATOM      4  C   UNL     1      32.446  23.711  17.402  0.00  0.00    +0.048 C 
ATOM      5  C   UNL     1      32.993  24.079  18.777  0.00  0.00    +0.004 C 
ATOM      6  C   UNL     1      34.408  23.535  18.765  0.00  0.00    +0.004 C 
ATOM      7  C   UNL     1      34.245  22.189  18.079  0.00  0.00    +0.048 C 
ATOM      8  O   UNL     1      33.869  22.612  15.741  0.00  0.00    -0.485 OA
ATOM      9  C   UNL     1      33.029  22.719  14.664  0.00  0.00    +0.126 A 
ATOM     10  C   UNL     1      33.395  23.603  13.650  0.00  0.00    +0.046 A 
ATOM     11  C   UNL     1      32.559  23.786  12.547  0.00  0.00    +0.004 A 
ATOM     12  C   UNL     1      31.370  23.067  12.448  0.00  0.00    +0.001 A 
ATOM     13  C   UNL     1      31.023  22.159  13.450  0.00  0.00    +0.009 A 
ATOM     14  C   UNL     1      31.853  21.979  14.568  0.00  0.00    +0.015 A 
ENDROOT
BRANCH   1  21
ATOM     15  N   UNL     1      30.913  15.204  13.135  0.00  0.00    -0.299 N 
ATOM     16  C   UNL     1      29.889  15.582  14.108  0.00  0.00    +0.127 C 
ATOM     17  C   UNL     1      30.505  16.180  15.368  0.00  0.00    +0.129 C 
ATOM     18  N   UNL     1      31.292  17.346  14.995  0.00  0.00    -0.275 N 
ATOM     19  C   UNL     1      30.947  18.576  15.511  0.00  0.00    +0.303 C 
ATOM     20  O   UNL     1      29.993  18.727  16.274  0.00  0.00    -0.253 OA
ATOM     21  N   UNL     1      31.706  19.631  15.102  0.00  0.00    -0.292 N 
ATOM     22  C   UNL     1      32.351  17.074  14.019  0.00  0.00    +0.205 C 
ATOM     23  C   UNL     1      32.086  15.945  13.000  0.00  0.00    +0.233 C 
ATOM     24  O   UNL     1      32.919  15.702  12.123  0.00  0.00    -0.274 OA
ATOM     25  H   UNL     1      32.647  19.446  14.792  0.00  0.00    +0.151 HD
BRANCH  15  27
ATOM     26  C   UNL     1      29.045  14.016  12.017  0.00  0.00    +0.024 C 
ATOM     27  C   UNL     1      30.545  14.267  12.079  0.00  0.00    +0.104 C 
ENDBRANCH  15  27
ENDBRANCH   1  21
TORSDOF 2
ENDMDL
MODEL 4
REMARK VINA RESULT:      -6.4      5.257      7.410
REMARK  Name = ZINC000329563636
REMARK  3 active torsions:
REMARK  status: ('A' for Active; 'I' for Inactive)
REMARK    1  A    between atoms: C_1  and  C_2
REMARK    2  A    between atoms: C_2  and  N_3
REMARK    3  A    between atoms: N_9  and  C_10
REMARK                            x       y       z     vdW  Elec       q    Type
REMARK                         _______ _______ _______ _____ _____    ______ ____
ROOT
ATOM      1  C   UNL     1      31.690  22.357  13.583  0.00  0.00    +0.112 C 
ATOM      2  C   UNL     1      30.821  21.135  13.902  0.00  0.00    +0.075 C 
ATOM      3  C   UNL     1      31.157  20.430  15.224  0.00  0.00    +0.113 C 
ATOM      4  C   UNL     1      30.494  21.053  16.480  0.00  0.00    +0.048 C 
ATOM      5  C   UNL     1      29.468  20.037  16.970  0.00  0.00    +0.004 C 
ATOM      6  C   UNL     1      30.051  18.700  16.557  0.00  0.00    +0.004 C 
ATOM      7  C   UNL     1      30.595  18.985  15.166  0.00  0.00    +0.048 C 
ATOM      8  O   UNL     1      32.580  20.320  15.428  0.00  0.00    -0.485 OA
ATOM      9  C   UNL     1      33.219  21.531  15.400  0.00  0.00    +0.126 A 
ATOM     10  C   UNL     1      34.305  21.702  16.257  0.00  0.00    +0.046 A 
ATOM     11  C   UNL     1      34.971  22.929  16.304  0.00  0.00    +0.004 A 
ATOM     12  C   UNL     1      34.566  23.972  15.476  0.00  0.00    +0.001 A 
ATOM     13  C   UNL     1      33.500  23.786  14.595  0.00  0.00    +0.009 A 
ATOM     14  C   UNL     1      32.816  22.560  14.552  0.00  0.00    +0.015 A 
ENDROOT
BRANCH   1  21
ATOM     15  N   UNL     1      34.629  23.207   8.056  0.00  0.00    -0.299 N 
ATOM     16  C   UNL     1      33.888  24.360   8.566  0.00  0.00    +0.127 C 
ATOM     17  C   UNL     1      32.485  23.969   9.017  0.00  0.00    +0.129 C 
ATOM     18  N   UNL     1      32.591  22.950  10.050  0.00  0.00    -0.275 N 
ATOM     19  C   UNL     1      32.085  23.215  11.303  0.00  0.00    +0.303 C 
ATOM     20  O   UNL     1      31.548  24.285  11.585  0.00  0.00    -0.253 OA
ATOM     21  N   UNL     1      32.242  22.230  12.232  0.00  0.00    -0.292 N 
ATOM     22  C   UNL     1      33.321  21.747   9.638  0.00  0.00    +0.205 C 
ATOM     23  C   UNL     1      34.447  21.937   8.599  0.00  0.00    +0.233 C 
ATOM     24  O   UNL     1      35.129  20.969   8.251  0.00  0.00    -0.274 OA
ATOM     25  H   UNL     1      32.344  21.282  11.906  0.00  0.00    +0.151 HD
BRANCH  15  27
ATOM     26  C   UNL     1      36.572  24.695   7.658  0.00  0.00    +0.024 C 
ATOM     27  C   UNL     1      35.801  23.457   7.224  0.00  0.00    +0.104 C 
ENDBRANCH  15  27
ENDBRANCH   1  21
TORSDOF 2
ENDMDL
MODEL 5
REMARK VINA RESULT:      -6.4      2.670      4.270
REMARK  Name = ZINC000329563636
REMARK  3 active torsions:
REMARK  status: ('A' for Active; 'I' for Inactive)
REMARK    1  A    between atoms: C_1  and  C_2
REMARK    2  A    between atoms: C_2  and  N_3
REMARK    3  A    between atoms: N_9  and  C_10
REMARK                            x       y       z     vdW  Elec       q    Type
REMARK                         _______ _______ _______ _____ _____    ______ ____
ROOT
ATOM      1  C   UNL     1      33.084  23.171  16.488  0.00  0.00    +0.112 C 
ATOM      2  C   UNL     1      31.873  22.760  17.333  0.00  0.00    +0.075 C 
ATOM      3  C   UNL     1      30.702  22.164  16.539  0.00  0.00    +0.113 C 
ATOM      4  C   UNL     1      30.825  20.648  16.236  0.00  0.00    +0.048 C 
ATOM      5  C   UNL     1      29.746  19.957  17.062  0.00  0.00    +0.004 C 
ATOM      6  C   UNL     1      28.645  20.994  17.164  0.00  0.00    +0.004 C 
ATOM      7  C   UNL     1      29.415  22.283  17.398  0.00  0.00    +0.048 C 
ATOM      8  O   UNL     1      30.458  22.888  15.316  0.00  0.00    -0.485 OA
ATOM      9  C   UNL     1      31.558  22.946  14.501  0.00  0.00    +0.126 A 
ATOM     10  C   UNL     1      31.340  22.897  13.126  0.00  0.00    +0.046 A 
ATOM     11  C   UNL     1      32.424  22.911  12.245  0.00  0.00    +0.004 A 
ATOM     12  C   UNL     1      33.722  22.998  12.742  0.00  0.00    +0.001 A 
ATOM     13  C   UNL     1      33.934  23.080  14.119  0.00  0.00    +0.009 A 
ATOM     14  C   UNL     1      32.850  23.053  15.011  0.00  0.00    +0.015 A 
ENDROOT
BRANCH   1  21
ATOM     15  N   UNL     1      36.094  28.648  17.408  0.00  0.00    -0.299 N 
ATOM     16  C   UNL     1      36.796  27.451  17.870  0.00  0.00    +0.127 C 
ATOM     17  C   UNL     1      35.882  26.546  18.690  0.00  0.00    +0.129 C 
ATOM     18  N   UNL     1      34.740  26.168  17.872  0.00  0.00    -0.275 N 
ATOM     19  C   UNL     1      34.530  24.835  17.596  0.00  0.00    +0.303 C 
ATOM     20  O   UNL     1      35.274  23.950  18.013  0.00  0.00    -0.253 OA
ATOM     21  N   UNL     1      33.459  24.551  16.802  0.00  0.00    -0.292 N 
ATOM     22  C   UNL     1      33.965  27.301  17.356  0.00  0.00    +0.205 C 
ATOM     23  C   UNL     1      34.743  28.604  17.071  0.00  0.00    +0.233 C 
ATOM     24  O   UNL     1      34.154  29.576  16.589  0.00  0.00    -0.274 OA
ATOM     25  H   UNL     1      32.698  25.210  16.778  0.00  0.00    +0.151 HD
BRANCH  15  27
ATOM     26  C   UNL     1      37.286  30.698  18.129  0.00  0.00    +0.024 C 
ATOM     27  C   UNL     1      36.893  29.789  16.975  0.00  0.00    +0.104 C 
ENDBRANCH  15  27
ENDBRANCH   1  21
TORSDOF 2
ENDMDL
MODEL 6
REMARK VINA RESULT:      -6.3      2.483      4.725
REMARK  Name = ZINC000329563636
REMARK  3 active torsions:
REMARK  status: ('A' for Active; 'I' for Inactive)
REMARK    1  A    between atoms: C_1  and  C_2
REMARK    2  A    between atoms: C_2  and  N_3
REMARK    3  A    between atoms: N_9  and  C_10
REMARK                            x       y       z     vdW  Elec       q    Type
REMARK                         _______ _______ _______ _____ _____    ______ ____
ROOT
ATOM      1  C   UNL     1      31.657  18.479  16.786  0.00  0.00    +0.112 C 
ATOM      2  C   UNL     1      30.614  17.980  15.780  0.00  0.00    +0.075 C 
ATOM      3  C   UNL     1      30.842  16.551  15.267  0.00  0.00    +0.113 C 
ATOM      4  C   UNL     1      30.284  15.433  16.185  0.00  0.00    +0.048 C 
ATOM      5  C   UNL     1      29.117  14.803  15.432  0.00  0.00    +0.004 C 
ATOM      6  C   UNL     1      29.491  14.973  13.972  0.00  0.00    +0.004 C 
ATOM      7  C   UNL     1      30.068  16.379  13.934  0.00  0.00    +0.048 C 
ATOM      8  O   UNL     1      32.232  16.298  14.981  0.00  0.00    -0.485 OA
ATOM      9  C   UNL     1      33.048  16.514  16.062  0.00  0.00    +0.126 A 
ATOM     10  C   UNL     1      34.148  15.672  16.211  0.00  0.00    +0.046 A 
ATOM     11  C   UNL     1      34.992  15.816  17.314  0.00  0.00    +0.004 A 
ATOM     12  C   UNL     1      34.748  16.817  18.252  0.00  0.00    +0.001 A 
ATOM     13  C   UNL     1      33.664  17.678  18.080  0.00  0.00    +0.009 A 
ATOM     14  C   UNL     1      32.803  17.532  16.981  0.00  0.00    +0.015 A 
ENDROOT
BRANCH   1  21
ATOM     15  N   UNL     1      33.791  24.412  16.405  0.00  0.00    -0.299 N 
ATOM     16  C   UNL     1      32.621  24.211  17.259  0.00  0.00    +0.127 C 
ATOM     17  C   UNL     1      31.552  23.379  16.559  0.00  0.00    +0.129 C 
ATOM     18  N   UNL     1      32.126  22.094  16.190  0.00  0.00    -0.275 N 
ATOM     19  C   UNL     1      31.579  20.944  16.716  0.00  0.00    +0.303 C 
ATOM     20  O   UNL     1      30.624  20.963  17.491  0.00  0.00    -0.253 OA
ATOM     21  N   UNL     1      32.179  19.776  16.353  0.00  0.00    -0.292 N 
ATOM     22  C   UNL     1      33.310  22.185  15.330  0.00  0.00    +0.205 C 
ATOM     23  C   UNL     1      34.210  23.426  15.514  0.00  0.00    +0.233 C 
ATOM     24  O   UNL     1      35.247  23.534  14.854  0.00  0.00    -0.274 OA
ATOM     25  H   UNL     1      32.690  19.755  15.484  0.00  0.00    +0.151 HD
BRANCH  15  27
ATOM     26  C   UNL     1      33.992  26.814  16.988  0.00  0.00    +0.024 C 
ATOM     27  C   UNL     1      34.710  25.495  16.741  0.00  0.00    +0.104 C 
ENDBRANCH  15  27
ENDBRANCH   1  21
TORSDOF 2
ENDMDL
MODEL 7
REMARK VINA RESULT:      -6.2      3.698      5.367
REMARK  Name = ZINC000329563636
REMARK  3 active torsions:
REMARK  status: ('A' for Active; 'I' for Inactive)
REMARK    1  A    between atoms: C_1  and  C_2
REMARK    2  A    between atoms: C_2  and  N_3
REMARK    3  A    between atoms: N_9  and  C_10
REMARK                            x       y       z     vdW  Elec       q    Type
REMARK                         _______ _______ _______ _____ _____    ______ ____
ROOT
ATOM      1  C   UNL     1      31.371  18.653  15.647  0.00  0.00    +0.112 C 
ATOM      2  C   UNL     1      30.445  17.839  14.736  0.00  0.00    +0.075 C 
ATOM      3  C   UNL     1      30.637  16.317  14.813  0.00  0.00    +0.113 C 
ATOM      4  C   UNL     1      29.873  15.623  15.971  0.00  0.00    +0.048 C 
ATOM      5  C   UNL     1      28.780  14.783  15.320  0.00  0.00    +0.004 C 
ATOM      6  C   UNL     1      29.367  14.400  13.975  0.00  0.00    +0.004 C 
ATOM      7  C   UNL     1      30.046  15.683  13.526  0.00  0.00    +0.048 C 
ATOM      8  O   UNL     1      32.030  15.953  14.860  0.00  0.00    -0.485 OA
ATOM      9  C   UNL     1      32.700  16.534  15.905  0.00  0.00    +0.126 A 
ATOM     10  C   UNL     1      33.703  15.786  16.518  0.00  0.00    +0.046 A 
ATOM     11  C   UNL     1      34.392  16.308  17.615  0.00  0.00    +0.004 A 
ATOM     12  C   UNL     1      34.094  17.587  18.078  0.00  0.00    +0.001 A 
ATOM     13  C   UNL     1      33.112  18.345  17.440  0.00  0.00    +0.009 A 
ATOM     14  C   UNL     1      32.405  17.822  16.346  0.00  0.00    +0.015 A 
ENDROOT
BRANCH   1  21
ATOM     15  N   UNL     1      34.854  23.525  13.636  0.00  0.00    -0.299 N 
ATOM     16  C   UNL     1      34.107  23.744  14.875  0.00  0.00    +0.127 C 
ATOM     17  C   UNL     1      32.655  23.301  14.740  0.00  0.00    +0.129 C 
ATOM     18  N   UNL     1      32.626  21.890  14.386  0.00  0.00    -0.275 N 
ATOM     19  C   UNL     1      32.012  21.001  15.240  0.00  0.00    +0.303 C 
ATOM     20  O   UNL     1      31.488  21.354  16.295  0.00  0.00    -0.253 OA
ATOM     21  N   UNL     1      32.045  19.691  14.864  0.00  0.00    -0.292 N 
ATOM     22  C   UNL     1      33.350  21.561  13.154  0.00  0.00    +0.205 C 
ATOM     23  C   UNL     1      34.576  22.435  12.813  0.00  0.00    +0.233 C 
ATOM     24  O   UNL     1      35.254  22.177  11.815  0.00  0.00    -0.274 OA
ATOM     25  H   UNL     1      32.145  19.481  13.884  0.00  0.00    +0.151 HD
BRANCH  15  27
ATOM     26  C   UNL     1      36.844  24.481  14.764  0.00  0.00    +0.024 C 
ATOM     27  C   UNL     1      36.108  24.247  13.453  0.00  0.00    +0.104 C 
ENDBRANCH  15  27
ENDBRANCH   1  21
TORSDOF 2
ENDMDL
MODEL 8
REMARK VINA RESULT:      -6.2      5.952      8.949
REMARK  Name = ZINC000329563636
REMARK  3 active torsions:
REMARK  status: ('A' for Active; 'I' for Inactive)
REMARK    1  A    between atoms: C_1  and  C_2
REMARK    2  A    between atoms: C_2  and  N_3
REMARK    3  A    between atoms: N_9  and  C_10
REMARK                            x       y       z     vdW  Elec       q    Type
REMARK                         _______ _______ _______ _____ _____    ______ ____
ROOT
ATOM      1  C   UNL     1      26.210  25.260  20.452  0.00  0.00    +0.112 C 
ATOM      2  C   UNL     1      26.053  24.595  21.824  0.00  0.00    +0.075 C 
ATOM      3  C   UNL     1      25.816  25.565  22.990  0.00  0.00    +0.113 C 
ATOM      4  C   UNL     1      24.339  25.996  23.188  0.00  0.00    +0.048 C 
ATOM      5  C   UNL     1      23.880  25.362  24.496  0.00  0.00    +0.004 C 
ATOM      6  C   UNL     1      25.145  25.282  25.327  0.00  0.00    +0.004 C 
ATOM      7  C   UNL     1      26.188  24.843  24.312  0.00  0.00    +0.048 C 
ATOM      8  O   UNL     1      26.656  26.732  22.897  0.00  0.00    -0.485 OA
ATOM      9  C   UNL     1      26.497  27.413  21.719  0.00  0.00    +0.126 A 
ATOM     10  C   UNL     1      26.594  28.803  21.764  0.00  0.00    +0.046 A 
ATOM     11  C   UNL     1      26.401  29.554  20.603  0.00  0.00    +0.004 A 
ATOM     12  C   UNL     1      26.134  28.913  19.395  0.00  0.00    +0.001 A 
ATOM     13  C   UNL     1      26.070  27.520  19.349  0.00  0.00    +0.009 A 
ATOM     14  C   UNL     1      26.251  26.758  20.514  0.00  0.00    +0.015 A 
ENDROOT
BRANCH   1  21
ATOM     15  N   UNL     1      30.582  23.114  16.429  0.00  0.00    -0.299 N 
ATOM     16  C   UNL     1      29.265  22.485  16.332  0.00  0.00    +0.127 C 
ATOM     17  C   UNL     1      28.736  22.077  17.702  0.00  0.00    +0.129 C 
ATOM     18  N   UNL     1      28.661  23.259  18.548  0.00  0.00    -0.275 N 
ATOM     19  C   UNL     1      27.437  23.646  19.045  0.00  0.00    +0.303 C 
ATOM     20  O   UNL     1      26.401  23.032  18.800  0.00  0.00    -0.253 OA
ATOM     21  N   UNL     1      27.432  24.777  19.807  0.00  0.00    -0.292 N 
ATOM     22  C   UNL     1      29.936  23.966  18.710  0.00  0.00    +0.205 C 
ATOM     23  C   UNL     1      30.922  23.906  17.524  0.00  0.00    +0.233 C 
ATOM     24  O   UNL     1      31.989  24.522  17.583  0.00  0.00    -0.274 OA
ATOM     25  H   UNL     1      28.286  25.039  20.272  0.00  0.00    +0.151 HD
BRANCH  15  27
ATOM     26  C   UNL     1      30.987  22.167  14.174  0.00  0.00    +0.024 C 
ATOM     27  C   UNL     1      31.397  23.191  15.222  0.00  0.00    +0.104 C 
ENDBRANCH  15  27
ENDBRANCH   1  21
TORSDOF 2
ENDMDL
MODEL 9
REMARK VINA RESULT:      -6.2      3.027      8.246
REMARK  Name = ZINC000329563636
REMARK  3 active torsions:
REMARK  status: ('A' for Active; 'I' for Inactive)
REMARK    1  A    between atoms: C_1  and  C_2
REMARK    2  A    between atoms: C_2  and  N_3
REMARK    3  A    between atoms: N_9  and  C_10
REMARK                            x       y       z     vdW  Elec       q    Type
REMARK                         _______ _______ _______ _____ _____    ______ ____
ROOT
ATOM      1  C   UNL     1      32.777  20.093  16.584  0.00  0.00    +0.112 C 
ATOM      2  C   UNL     1      33.838  21.162  16.297  0.00  0.00    +0.075 C 
ATOM      3  C   UNL     1      33.308  22.601  16.241  0.00  0.00    +0.113 C 
ATOM      4  C   UNL     1      33.181  23.301  17.620  0.00  0.00    +0.048 C 
ATOM      5  C   UNL     1      34.239  24.399  17.641  0.00  0.00    +0.004 C 
ATOM      6  C   UNL     1      34.374  24.804  16.186  0.00  0.00    +0.004 C 
ATOM      7  C   UNL     1      34.328  23.470  15.460  0.00  0.00    +0.048 C 
ATOM      8  O   UNL     1      32.055  22.686  15.535  0.00  0.00    -0.485 OA
ATOM      9  C   UNL     1      31.084  21.880  16.069  0.00  0.00    +0.126 A 
ATOM     10  C   UNL     1      29.774  22.353  16.045  0.00  0.00    +0.046 A 
ATOM     11  C   UNL     1      28.747  21.595  16.612  0.00  0.00    +0.004 A 
ATOM     12  C   UNL     1      29.030  20.354  17.179  0.00  0.00    +0.001 A 
ATOM     13  C   UNL     1      30.339  19.870  17.171  0.00  0.00    +0.009 A 
ATOM     14  C   UNL     1      31.378  20.632  16.615  0.00  0.00    +0.015 A 
ENDROOT
BRANCH   1  21
ATOM     15  N   UNL     1      31.903  14.976  12.985  0.00  0.00    -0.299 N 
ATOM     16  C   UNL     1      31.781  14.768  14.427  0.00  0.00    +0.127 C 
ATOM     17  C   UNL     1      32.947  15.394  15.185  0.00  0.00    +0.129 C 
ATOM     18  N   UNL     1      32.987  16.818  14.890  0.00  0.00    -0.275 N 
ATOM     19  C   UNL     1      32.838  17.717  15.923  0.00  0.00    +0.303 C 
ATOM     20  O   UNL     1      32.669  17.361  17.088  0.00  0.00    -0.253 OA
ATOM     21  N   UNL     1      32.857  19.035  15.576  0.00  0.00    -0.292 N 
ATOM     22  C   UNL     1      33.108  17.136  13.464  0.00  0.00    +0.205 C 
ATOM     23  C   UNL     1      32.465  16.144  12.472  0.00  0.00    +0.233 C 
ATOM     24  O   UNL     1      32.492  16.383  11.262  0.00  0.00    -0.274 OA
ATOM     25  H   UNL     1      33.336  19.295  14.728  0.00  0.00    +0.151 HD
BRANCH  15  27
ATOM     26  C   UNL     1      29.624  14.334  12.251  0.00  0.00    +0.024 C 
ATOM     27  C   UNL     1      31.123  14.120  12.098  0.00  0.00    +0.104 C 
ENDBRANCH  15  27
ENDBRANCH   1  21
TORSDOF 2
ENDMDL
