MODEL 1
REMARK VINA RESULT:      -6.5      0.000      0.000
REMARK  Name = ZINC000870248439
REMARK  2 active torsions:
REMARK  status: ('A' for Active; 'I' for Inactive)
REMARK    1  A    between atoms: C_2  and  C_4
REMARK    2  A    between atoms: C_7  and  C_8
REMARK                            x       y       z     vdW  Elec       q    Type
REMARK                         _______ _______ _______ _____ _____    ______ ____
ROOT
ATOM      1  C   UNL     1      31.102  21.459  15.057  0.00  0.00    +0.247 C 
ATOM      2  O   UNL     1      31.314  20.346  14.577  0.00  0.00    -0.270 OA
ATOM      3  N   UNL     1      31.716  22.627  14.584  0.00  0.00    -0.297 N 
ATOM      4  C   UNL     1      31.495  23.976  15.100  0.00  0.00    +0.108 C 
ATOM      5  C   UNL     1      31.335  25.020  14.014  0.00  0.00    +0.026 C 
ATOM      6  C   UNL     1      32.476  24.981  12.982  0.00  0.00    -0.025 C 
ATOM      7  C   UNL     1      32.081  25.923  11.822  0.00  0.00    +0.017 C 
ATOM      8  C   UNL     1      33.132  26.052  10.727  0.00  0.00    +0.069 C 
ATOM      9  S   UNL     1      34.711  26.694  11.351  0.00  0.00    -0.161 S 
ATOM     10  C   UNL     1      34.981  25.544  12.725  0.00  0.00    +0.069 C 
ATOM     11  C   UNL     1      33.776  25.496  13.652  0.00  0.00    +0.017 C 
ATOM     12  C   UNL     1      32.599  23.517  12.475  0.00  0.00    +0.026 C 
ATOM     13  C   UNL     1      32.788  22.505  13.604  0.00  0.00    +0.108 C 
ENDROOT
BRANCH   1  17
ATOM     14  C   UNL     1      28.261  22.103  18.180  0.00  0.00    +0.037 A 
ATOM     15  C   UNL     1      29.576  21.771  18.508  0.00  0.00    +0.014 A 
ATOM     16  C   UNL     1      30.473  21.447  17.498  0.00  0.00    +0.014 A 
ATOM     17  C   UNL     1      30.102  21.561  16.152  0.00  0.00    +0.037 A 
ATOM     18  C   UNL     1      28.769  21.828  15.824  0.00  0.00    +0.014 A 
ATOM     19  C   UNL     1      27.845  22.087  16.842  0.00  0.00    +0.014 A 
BRANCH  14  21
ATOM     20  N   UNL     1      26.357  23.404  18.941  0.00  0.00    -0.325 N 
ATOM     21  C   UNL     1      27.296  22.455  19.247  0.00  0.00    +0.242 C 
ATOM     22  O   UNL     1      27.320  21.903  20.339  0.00  0.00    -0.270 OA
ATOM     23  H   UNL     1      25.647  23.562  19.651  0.00  0.00    +0.145 HD
ATOM     24  H   UNL     1      26.140  23.669  17.995  0.00  0.00    +0.145 HD
ENDBRANCH  14  21
ENDBRANCH   1  17
TORSDOF 2
ENDMDL
MODEL 2
REMARK VINA RESULT:      -6.5      4.071      5.662
REMARK  Name = ZINC000870248439
REMARK  2 active torsions:
REMARK  status: ('A' for Active; 'I' for Inactive)
REMARK    1  A    between atoms: C_2  and  C_4
REMARK    2  A    between atoms: C_7  and  C_8
REMARK                            x       y       z     vdW  Elec       q    Type
REMARK                         _______ _______ _______ _____ _____    ______ ____
ROOT
ATOM      1  C   UNL     1      31.061  21.258  15.319  0.00  0.00    +0.247 C 
ATOM      2  O   UNL     1      31.516  22.281  14.808  0.00  0.00    -0.270 OA
ATOM      3  N   UNL     1      31.502  19.971  14.983  0.00  0.00    -0.297 N 
ATOM      4  C   UNL     1      31.015  18.723  15.563  0.00  0.00    +0.108 C 
ATOM      5  C   UNL     1      32.119  17.742  15.902  0.00  0.00    +0.026 C 
ATOM      6  C   UNL     1      33.071  17.490  14.720  0.00  0.00    -0.025 C 
ATOM      7  C   UNL     1      34.264  16.665  15.255  0.00  0.00    +0.017 C 
ATOM      8  C   UNL     1      35.287  16.272  14.198  0.00  0.00    +0.069 C 
ATOM      9  S   UNL     1      34.563  15.266  12.871  0.00  0.00    -0.161 S 
ATOM     10  C   UNL     1      33.164  16.325  12.420  0.00  0.00    +0.069 C 
ATOM     11  C   UNL     1      32.319  16.676  13.635  0.00  0.00    +0.017 C 
ATOM     12  C   UNL     1      33.555  18.874  14.205  0.00  0.00    +0.026 C 
ATOM     13  C   UNL     1      32.407  19.818  13.850  0.00  0.00    +0.108 C 
ENDROOT
BRANCH   1  17
ATOM     14  C   UNL     1      28.135  22.060  18.324  0.00  0.00    +0.037 A 
ATOM     15  C   UNL     1      29.460  21.840  18.701  0.00  0.00    +0.014 A 
ATOM     16  C   UNL     1      30.391  21.464  17.741  0.00  0.00    +0.014 A 
ATOM     17  C   UNL     1      30.037  21.415  16.386  0.00  0.00    +0.037 A 
ATOM     18  C   UNL     1      28.697  21.570  16.016  0.00  0.00    +0.014 A 
ATOM     19  C   UNL     1      27.744  21.881  16.991  0.00  0.00    +0.014 A 
BRANCH  14  21
ATOM     20  N   UNL     1      26.217  23.410  18.955  0.00  0.00    -0.325 N 
ATOM     21  C   UNL     1      27.133  22.466  19.338  0.00  0.00    +0.242 C 
ATOM     22  O   UNL     1      27.109  21.960  20.452  0.00  0.00    -0.270 OA
ATOM     23  H   UNL     1      25.482  23.604  19.631  0.00  0.00    +0.145 HD
ATOM     24  H   UNL     1      26.039  23.637  17.992  0.00  0.00    +0.145 HD
ENDBRANCH  14  21
ENDBRANCH   1  17
TORSDOF 2
ENDMDL
MODEL 3
REMARK VINA RESULT:      -6.4      0.562      1.154
REMARK  Name = ZINC000870248439
REMARK  2 active torsions:
REMARK  status: ('A' for Active; 'I' for Inactive)
REMARK    1  A    between atoms: C_2  and  C_4
REMARK    2  A    between atoms: C_7  and  C_8
REMARK                            x       y       z     vdW  Elec       q    Type
REMARK                         _______ _______ _______ _____ _____    ______ ____
ROOT
ATOM      1  C   UNL     1      31.181  22.038  15.246  0.00  0.00    +0.247 C 
ATOM      2  O   UNL     1      31.417  20.863  14.963  0.00  0.00    -0.270 OA
ATOM      3  N   UNL     1      31.782  23.120  14.589  0.00  0.00    -0.297 N 
ATOM      4  C   UNL     1      31.533  24.532  14.866  0.00  0.00    +0.108 C 
ATOM      5  C   UNL     1      31.371  25.374  13.617  0.00  0.00    +0.026 C 
ATOM      6  C   UNL     1      32.527  25.182  12.619  0.00  0.00    -0.025 C 
ATOM      7  C   UNL     1      32.133  25.907  11.312  0.00  0.00    +0.017 C 
ATOM      8  C   UNL     1      33.197  25.868  10.222  0.00  0.00    +0.069 C 
ATOM      9  S   UNL     1      34.756  26.635  10.746  0.00  0.00    -0.161 S 
ATOM     10  C   UNL     1      35.025  25.739  12.298  0.00  0.00    +0.069 C 
ATOM     11  C   UNL     1      33.808  25.826  13.207  0.00  0.00    +0.017 C 
ATOM     12  C   UNL     1      32.680  23.656  12.369  0.00  0.00    +0.026 C 
ATOM     13  C   UNL     1      32.869  22.853  13.655  0.00  0.00    +0.108 C 
ENDROOT
BRANCH   1  17
ATOM     14  C   UNL     1      28.297  22.465  18.366  0.00  0.00    +0.037 A 
ATOM     15  C   UNL     1      27.863  22.255  17.057  0.00  0.00    +0.014 A 
ATOM     16  C   UNL     1      28.791  22.232  16.023  0.00  0.00    +0.014 A 
ATOM     17  C   UNL     1      30.164  22.304  16.296  0.00  0.00    +0.037 A 
ATOM     18  C   UNL     1      30.595  22.581  17.597  0.00  0.00    +0.014 A 
ATOM     19  C   UNL     1      29.657  22.673  18.631  0.00  0.00    +0.014 A 
BRANCH  14  21
ATOM     20  N   UNL     1      26.254  23.340  19.346  0.00  0.00    -0.325 N 
ATOM     21  C   UNL     1      27.318  22.487  19.477  0.00  0.00    +0.242 C 
ATOM     22  O   UNL     1      27.440  21.755  20.451  0.00  0.00    -0.270 OA
ATOM     23  H   UNL     1      25.546  23.270  20.072  0.00  0.00    +0.145 HD
ATOM     24  H   UNL     1      25.983  23.739  18.464  0.00  0.00    +0.145 HD
ENDBRANCH  14  21
ENDBRANCH   1  17
TORSDOF 2
ENDMDL
MODEL 4
REMARK VINA RESULT:      -6.2      5.571      6.949
REMARK  Name = ZINC000870248439
REMARK  2 active torsions:
REMARK  status: ('A' for Active; 'I' for Inactive)
REMARK    1  A    between atoms: C_2  and  C_4
REMARK    2  A    between atoms: C_7  and  C_8
REMARK                            x       y       z     vdW  Elec       q    Type
REMARK                         _______ _______ _______ _____ _____    ______ ____
ROOT
ATOM      1  C   UNL     1      32.663  17.822  16.658  0.00  0.00    +0.247 C 
ATOM      2  O   UNL     1      32.898  17.316  17.756  0.00  0.00    -0.270 OA
ATOM      3  N   UNL     1      33.339  17.457  15.486  0.00  0.00    -0.297 N 
ATOM      4  C   UNL     1      33.096  18.006  14.155  0.00  0.00    +0.108 C 
ATOM      5  C   UNL     1      33.057  16.954  13.065  0.00  0.00    +0.026 C 
ATOM      6  C   UNL     1      34.288  16.031  13.087  0.00  0.00    -0.025 C 
ATOM      7  C   UNL     1      34.021  14.879  12.092  0.00  0.00    +0.017 C 
ATOM      8  C   UNL     1      35.171  13.893  11.942  0.00  0.00    +0.069 C 
ATOM      9  S   UNL     1      36.697  14.687  11.361  0.00  0.00    -0.161 S 
ATOM     10  C   UNL     1      36.816  16.030  12.571  0.00  0.00    +0.069 C 
ATOM     11  C   UNL     1      35.529  16.840  12.629  0.00  0.00    +0.017 C 
ATOM     12  C   UNL     1      34.431  15.477  14.533  0.00  0.00    +0.026 C 
ATOM     13  C   UNL     1      34.495  16.575  15.593  0.00  0.00    +0.108 C 
ENDROOT
BRANCH   1  17
ATOM     14  C   UNL     1      29.482  20.668  16.782  0.00  0.00    +0.037 A 
ATOM     15  C   UNL     1      29.206  19.348  16.427  0.00  0.00    +0.014 A 
ATOM     16  C   UNL     1      30.252  18.447  16.272  0.00  0.00    +0.014 A 
ATOM     17  C   UNL     1      31.566  18.822  16.579  0.00  0.00    +0.037 A 
ATOM     18  C   UNL     1      31.852  20.160  16.870  0.00  0.00    +0.014 A 
ATOM     19  C   UNL     1      30.808  21.086  16.959  0.00  0.00    +0.014 A 
BRANCH  14  21
ATOM     20  N   UNL     1      28.488  22.829  16.290  0.00  0.00    -0.325 N 
ATOM     21  C   UNL     1      28.375  21.637  16.956  0.00  0.00    +0.242 C 
ATOM     22  O   UNL     1      27.393  21.372  17.638  0.00  0.00    -0.270 OA
ATOM     23  H   UNL     1      27.677  23.439  16.345  0.00  0.00    +0.145 HD
ATOM     24  H   UNL     1      29.127  22.966  15.525  0.00  0.00    +0.145 HD
ENDBRANCH  14  21
ENDBRANCH   1  17
TORSDOF 2
ENDMDL
MODEL 5
REMARK VINA RESULT:      -6.1      4.308      5.243
REMARK  Name = ZINC000870248439
REMARK  2 active torsions:
REMARK  status: ('A' for Active; 'I' for Inactive)
REMARK    1  A    between atoms: C_2  and  C_4
REMARK    2  A    between atoms: C_7  and  C_8
REMARK                            x       y       z     vdW  Elec       q    Type
REMARK                         _______ _______ _______ _____ _____    ______ ____
ROOT
ATOM      1  C   UNL     1      30.527  17.979  15.355  0.00  0.00    +0.247 C 
ATOM      2  O   UNL     1      29.907  16.916  15.312  0.00  0.00    -0.270 OA
ATOM      3  N   UNL     1      31.792  18.153  14.778  0.00  0.00    -0.297 N 
ATOM      4  C   UNL     1      32.569  19.389  14.781  0.00  0.00    +0.108 C 
ATOM      5  C   UNL     1      33.209  19.704  13.444  0.00  0.00    +0.026 C 
ATOM      6  C   UNL     1      34.017  18.523  12.880  0.00  0.00    -0.025 C 
ATOM      7  C   UNL     1      34.419  18.887  11.433  0.00  0.00    +0.017 C 
ATOM      8  C   UNL     1      35.281  17.844  10.735  0.00  0.00    +0.069 C 
ATOM      9  S   UNL     1      36.845  17.538  11.606  0.00  0.00    -0.161 S 
ATOM     10  C   UNL     1      36.203  17.208  13.268  0.00  0.00    +0.069 C 
ATOM     11  C   UNL     1      35.290  18.329  13.743  0.00  0.00    +0.017 C 
ATOM     12  C   UNL     1      33.089  17.275  12.888  0.00  0.00    +0.026 C 
ATOM     13  C   UNL     1      32.491  16.981  14.263  0.00  0.00    +0.108 C 
ENDROOT
BRANCH   1  17
ATOM     14  C   UNL     1      28.588  21.118  17.505  0.00  0.00    +0.037 A 
ATOM     15  C   UNL     1      27.843  20.326  16.631  0.00  0.00    +0.014 A 
ATOM     16  C   UNL     1      28.490  19.382  15.843  0.00  0.00    +0.014 A 
ATOM     17  C   UNL     1      29.861  19.141  16.001  0.00  0.00    +0.037 A 
ATOM     18  C   UNL     1      30.618  19.978  16.826  0.00  0.00    +0.014 A 
ATOM     19  C   UNL     1      29.980  20.976  17.569  0.00  0.00    +0.014 A 
BRANCH  14  21
ATOM     20  N   UNL     1      28.328  23.424  18.224  0.00  0.00    -0.325 N 
ATOM     21  C   UNL     1      27.910  22.125  18.354  0.00  0.00    +0.242 C 
ATOM     22  O   UNL     1      27.000  21.815  19.112  0.00  0.00    -0.270 OA
ATOM     23  H   UNL     1      27.787  24.110  18.743  0.00  0.00    +0.145 HD
ATOM     24  H   UNL     1      28.863  23.746  17.436  0.00  0.00    +0.145 HD
ENDBRANCH  14  21
ENDBRANCH   1  17
TORSDOF 2
ENDMDL
MODEL 6
REMARK VINA RESULT:      -6.1      2.579      3.744
REMARK  Name = ZINC000870248439
REMARK  2 active torsions:
REMARK  status: ('A' for Active; 'I' for Inactive)
REMARK    1  A    between atoms: C_2  and  C_4
REMARK    2  A    between atoms: C_7  and  C_8
REMARK                            x       y       z     vdW  Elec       q    Type
REMARK                         _______ _______ _______ _____ _____    ______ ____
ROOT
ATOM      1  C   UNL     1      30.482  23.225  15.601  0.00  0.00    +0.247 C 
ATOM      2  O   UNL     1      30.038  23.995  16.453  0.00  0.00    -0.270 OA
ATOM      3  N   UNL     1      31.209  23.656  14.483  0.00  0.00    -0.297 N 
ATOM      4  C   UNL     1      31.775  22.793  13.449  0.00  0.00    +0.108 C 
ATOM      5  C   UNL     1      33.187  23.173  13.051  0.00  0.00    +0.026 C 
ATOM      6  C   UNL     1      33.321  24.662  12.690  0.00  0.00    -0.025 C 
ATOM      7  C   UNL     1      34.828  24.965  12.528  0.00  0.00    +0.017 C 
ATOM      8  C   UNL     1      35.145  26.395  12.110  0.00  0.00    +0.069 C 
ATOM      9  S   UNL     1      34.392  26.837  10.518  0.00  0.00    -0.161 S 
ATOM     10  C   UNL     1      32.677  26.357  10.853  0.00  0.00    +0.069 C 
ATOM     11  C   UNL     1      32.590  24.921  11.347  0.00  0.00    +0.017 C 
ATOM     12  C   UNL     1      32.725  25.485  13.867  0.00  0.00    +0.026 C 
ATOM     13  C   UNL     1      31.291  25.086  14.212  0.00  0.00    +0.108 C 
ENDROOT
BRANCH   1  17
ATOM     14  C   UNL     1      30.126  18.984  15.946  0.00  0.00    +0.037 A 
ATOM     15  C   UNL     1      29.139  19.701  15.269  0.00  0.00    +0.014 A 
ATOM     16  C   UNL     1      29.190  21.089  15.256  0.00  0.00    +0.014 A 
ATOM     17  C   UNL     1      30.280  21.768  15.815  0.00  0.00    +0.037 A 
ATOM     18  C   UNL     1      31.234  21.056  16.549  0.00  0.00    +0.014 A 
ATOM     19  C   UNL     1      31.148  19.662  16.623  0.00  0.00    +0.014 A 
BRANCH  14  21
ATOM     20  N   UNL     1      29.664  16.883  14.818  0.00  0.00    -0.325 N 
ATOM     21  C   UNL     1      30.087  17.503  15.964  0.00  0.00    +0.242 C 
ATOM     22  O   UNL     1      30.443  16.866  16.946  0.00  0.00    -0.270 OA
ATOM     23  H   UNL     1      29.735  15.869  14.818  0.00  0.00    +0.145 HD
ATOM     24  H   UNL     1      29.630  17.350  13.928  0.00  0.00    +0.145 HD
ENDBRANCH  14  21
ENDBRANCH   1  17
TORSDOF 2
ENDMDL
MODEL 7
REMARK VINA RESULT:      -6.0      4.587      5.798
REMARK  Name = ZINC000870248439
REMARK  2 active torsions:
REMARK  status: ('A' for Active; 'I' for Inactive)
REMARK    1  A    between atoms: C_2  and  C_4
REMARK    2  A    between atoms: C_7  and  C_8
REMARK                            x       y       z     vdW  Elec       q    Type
REMARK                         _______ _______ _______ _____ _____    ______ ____
ROOT
ATOM      1  C   UNL     1      30.916  20.140  15.427  0.00  0.00    +0.247 C 
ATOM      2  O   UNL     1      30.662  20.623  14.323  0.00  0.00    -0.270 OA
ATOM      3  N   UNL     1      31.981  19.257  15.650  0.00  0.00    -0.297 N 
ATOM      4  C   UNL     1      32.343  18.663  16.935  0.00  0.00    +0.108 C 
ATOM      5  C   UNL     1      33.833  18.678  17.209  0.00  0.00    +0.026 C 
ATOM      6  C   UNL     1      34.655  18.082  16.052  0.00  0.00    -0.025 C 
ATOM      7  C   UNL     1      36.145  18.362  16.352  0.00  0.00    +0.017 C 
ATOM      8  C   UNL     1      37.115  17.786  15.328  0.00  0.00    +0.069 C 
ATOM      9  S   UNL     1      36.984  15.981  15.185  0.00  0.00    -0.161 S 
ATOM     10  C   UNL     1      35.198  15.830  14.916  0.00  0.00    +0.069 C 
ATOM     11  C   UNL     1      34.411  16.552  16.000  0.00  0.00    +0.017 C 
ATOM     12  C   UNL     1      34.218  18.806  14.747  0.00  0.00    +0.026 C 
ATOM     13  C   UNL     1      32.712  18.739  14.499  0.00  0.00    +0.108 C 
ENDROOT
BRANCH   1  17
ATOM     14  C   UNL     1      28.346  21.595  18.511  0.00  0.00    +0.037 A 
ATOM     15  C   UNL     1      29.637  22.111  18.396  0.00  0.00    +0.014 A 
ATOM     16  C   UNL     1      30.514  21.559  17.471  0.00  0.00    +0.014 A 
ATOM     17  C   UNL     1      30.081  20.570  16.578  0.00  0.00    +0.037 A 
ATOM     18  C   UNL     1      28.811  20.007  16.737  0.00  0.00    +0.014 A 
ATOM     19  C   UNL     1      27.948  20.513  17.714  0.00  0.00    +0.014 A 
BRANCH  14  21
ATOM     20  N   UNL     1      26.519  23.113  19.016  0.00  0.00    -0.325 N 
ATOM     21  C   UNL     1      27.399  22.177  19.490  0.00  0.00    +0.242 C 
ATOM     22  O   UNL     1      27.386  21.816  20.660  0.00  0.00    -0.270 OA
ATOM     23  H   UNL     1      25.816  23.429  19.680  0.00  0.00    +0.145 HD
ATOM     24  H   UNL     1      26.322  23.226  18.036  0.00  0.00    +0.145 HD
ENDBRANCH  14  21
ENDBRANCH   1  17
TORSDOF 2
ENDMDL
MODEL 8
REMARK VINA RESULT:      -6.0      5.656      8.586
REMARK  Name = ZINC000870248439
REMARK  2 active torsions:
REMARK  status: ('A' for Active; 'I' for Inactive)
REMARK    1  A    between atoms: C_2  and  C_4
REMARK    2  A    between atoms: C_7  and  C_8
REMARK                            x       y       z     vdW  Elec       q    Type
REMARK                         _______ _______ _______ _____ _____    ______ ____
ROOT
ATOM      1  C   UNL     1      33.367  18.992  13.388  0.00  0.00    +0.247 C 
ATOM      2  O   UNL     1      33.702  19.831  12.552  0.00  0.00    -0.270 OA
ATOM      3  N   UNL     1      32.420  19.243  14.390  0.00  0.00    -0.297 N 
ATOM      4  C   UNL     1      31.970  18.287  15.399  0.00  0.00    +0.108 C 
ATOM      5  C   UNL     1      30.470  18.292  15.610  0.00  0.00    +0.026 C 
ATOM      6  C   UNL     1      29.913  19.703  15.870  0.00  0.00    -0.025 C 
ATOM      7  C   UNL     1      28.371  19.603  15.840  0.00  0.00    +0.017 C 
ATOM      8  C   UNL     1      27.647  20.909  16.139  0.00  0.00    +0.069 C 
ATOM      9  S   UNL     1      28.054  21.571  17.779  0.00  0.00    -0.161 S 
ATOM     10  C   UNL     1      29.863  21.549  17.671  0.00  0.00    +0.069 C 
ATOM     11  C   UNL     1      30.378  20.175  17.271  0.00  0.00    +0.017 C 
ATOM     12  C   UNL     1      30.419  20.624  14.725  0.00  0.00    +0.026 C 
ATOM     13  C   UNL     1      31.939  20.608  14.569  0.00  0.00    +0.108 C 
ENDROOT
BRANCH   1  17
ATOM     14  C   UNL     1      34.823  14.978  13.299  0.00  0.00    +0.037 A 
ATOM     15  C   UNL     1      35.439  15.911  14.133  0.00  0.00    +0.014 A 
ATOM     16  C   UNL     1      35.046  17.242  14.079  0.00  0.00    +0.014 A 
ATOM     17  C   UNL     1      33.963  17.634  13.281  0.00  0.00    +0.037 A 
ATOM     18  C   UNL     1      33.389  16.714  12.397  0.00  0.00    +0.014 A 
ATOM     19  C   UNL     1      33.830  15.387  12.399  0.00  0.00    +0.014 A 
BRANCH  14  21
ATOM     20  N   UNL     1      36.172  13.149  12.441  0.00  0.00    -0.325 N 
ATOM     21  C   UNL     1      35.230  13.554  13.350  0.00  0.00    +0.242 C 
ATOM     22  O   UNL     1      34.767  12.786  14.184  0.00  0.00    -0.270 OA
ATOM     23  H   UNL     1      36.506  12.195  12.555  0.00  0.00    +0.145 HD
ATOM     24  H   UNL     1      36.758  13.795  11.941  0.00  0.00    +0.145 HD
ENDBRANCH  14  21
ENDBRANCH   1  17
TORSDOF 2
ENDMDL
MODEL 9
REMARK VINA RESULT:      -6.0      3.380      4.016
REMARK  Name = ZINC000870248439
REMARK  2 active torsions:
REMARK  status: ('A' for Active; 'I' for Inactive)
REMARK    1  A    between atoms: C_2  and  C_4
REMARK    2  A    between atoms: C_7  and  C_8
REMARK                            x       y       z     vdW  Elec       q    Type
REMARK                         _______ _______ _______ _____ _____    ______ ____
ROOT
ATOM      1  C   UNL     1      31.528  18.330  14.973  0.00  0.00    +0.247 C 
ATOM      2  O   UNL     1      31.356  17.118  14.848  0.00  0.00    -0.270 OA
ATOM      3  N   UNL     1      32.597  19.017  14.382  0.00  0.00    -0.297 N 
ATOM      4  C   UNL     1      32.847  20.453  14.480  0.00  0.00    +0.108 C 
ATOM      5  C   UNL     1      33.239  21.089  13.162  0.00  0.00    +0.026 C 
ATOM      6  C   UNL     1      34.400  20.352  12.470  0.00  0.00    -0.025 C 
ATOM      7  C   UNL     1      34.547  20.951  11.053  0.00  0.00    +0.017 C 
ATOM      8  C   UNL     1      35.698  20.373  10.239  0.00  0.00    +0.069 C 
ATOM      9  S   UNL     1      37.309  20.623  11.037  0.00  0.00    -0.161 S 
ATOM     10  C   UNL     1      36.939  19.948  12.678  0.00  0.00    +0.069 C 
ATOM     11  C   UNL     1      35.700  20.596  13.278  0.00  0.00    +0.017 C 
ATOM     12  C   UNL     1      34.015  18.848  12.387  0.00  0.00    +0.026 C 
ATOM     13  C   UNL     1      33.656  18.245  13.744  0.00  0.00    +0.108 C 
ENDROOT
BRANCH   1  17
ATOM     14  C   UNL     1      28.662  20.801  16.953  0.00  0.00    +0.037 A 
ATOM     15  C   UNL     1      29.949  20.689  17.479  0.00  0.00    +0.014 A 
ATOM     16  C   UNL     1      30.848  19.797  16.907  0.00  0.00    +0.014 A 
ATOM     17  C   UNL     1      30.512  19.097  15.741  0.00  0.00    +0.037 A 
ATOM     18  C   UNL     1      29.203  19.157  15.253  0.00  0.00    +0.014 A 
ATOM     19  C   UNL     1      28.274  20.003  15.868  0.00  0.00    +0.014 A 
BRANCH  14  21
ATOM     20  N   UNL     1      27.104  22.647  16.699  0.00  0.00    -0.325 N 
ATOM     21  C   UNL     1      27.696  21.751  17.551  0.00  0.00    +0.242 C 
ATOM     22  O   UNL     1      27.420  21.717  18.743  0.00  0.00    -0.270 OA
ATOM     23  H   UNL     1      26.375  23.224  17.111  0.00  0.00    +0.145 HD
ATOM     24  H   UNL     1      27.098  22.525  15.701  0.00  0.00    +0.145 HD
ENDBRANCH  14  21
ENDBRANCH   1  17
TORSDOF 2
ENDMDL
