MODEL 1
REMARK VINA RESULT:      -6.0      0.000      0.000
REMARK  Name = ZINC000583127796
REMARK  2 active torsions:
REMARK  status: ('A' for Active; 'I' for Inactive)
REMARK    1  A    between atoms: C_2  and  C_4
REMARK    2  A    between atoms: C_7  and  C_8
REMARK                            x       y       z     vdW  Elec       q    Type
REMARK                         _______ _______ _______ _____ _____    ______ ____
ROOT
ATOM      1  C   UNL     1      34.034  23.816   9.138  0.00  0.00    +0.247 C 
ATOM      2  O   UNL     1      34.665  24.867   9.052  0.00  0.00    -0.270 OA
ATOM      3  N   UNL     1      33.931  22.903   8.075  0.00  0.00    -0.297 N 
ATOM      4  C   UNL     1      33.209  21.628   8.088  0.00  0.00    +0.108 C 
ATOM      5  C   UNL     1      34.092  20.459   7.687  0.00  0.00    +0.020 C 
ATOM      6  C   UNL     1      34.824  20.735   6.387  0.00  0.00    +0.011 C 
ATOM      7  C   UNL     1      35.595  22.078   6.401  0.00  0.00    -0.004 C 
ATOM      8  C   UNL     1      36.172  22.281   4.984  0.00  0.00    +0.020 C 
ATOM      9  C   UNL     1      37.373  23.201   5.046  0.00  0.00    +0.070 C 
ATOM     10  S   UNL     1      38.253  22.673   6.525  0.00  0.00    -0.160 S 
ATOM     11  C   UNL     1      36.788  22.030   7.383  0.00  0.00    +0.077 C 
ATOM     12  C   UNL     1      34.613  23.211   6.807  0.00  0.00    +0.115 C 
ENDROOT
BRANCH   1  16
ATOM     13  C   UNL     1      32.239  22.520  12.799  0.00  0.00    +0.037 A 
ATOM     14  C   UNL     1      31.660  23.580  12.092  0.00  0.00    +0.014 A 
ATOM     15  C   UNL     1      32.296  24.091  10.958  0.00  0.00    +0.014 A 
ATOM     16  C   UNL     1      33.455  23.480  10.469  0.00  0.00    +0.037 A 
ATOM     17  C   UNL     1      34.087  22.490  11.235  0.00  0.00    +0.014 A 
ATOM     18  C   UNL     1      33.485  22.019  12.405  0.00  0.00    +0.014 A 
BRANCH  13  20
ATOM     19  N   UNL     1      31.444  22.675  15.091  0.00  0.00    -0.325 N 
ATOM     20  C   UNL     1      31.554  21.907  13.966  0.00  0.00    +0.242 C 
ATOM     21  O   UNL     1      31.065  20.790  13.904  0.00  0.00    -0.270 OA
ATOM     22  H   UNL     1      30.864  22.294  15.830  0.00  0.00    +0.145 HD
ATOM     23  H   UNL     1      31.582  23.675  15.077  0.00  0.00    +0.145 HD
ENDBRANCH  13  20
ENDBRANCH   1  16
TORSDOF 2
ENDMDL
MODEL 2
REMARK VINA RESULT:      -6.0      1.838      2.533
REMARK  Name = ZINC000583127796
REMARK  2 active torsions:
REMARK  status: ('A' for Active; 'I' for Inactive)
REMARK    1  A    between atoms: C_2  and  C_4
REMARK    2  A    between atoms: C_7  and  C_8
REMARK                            x       y       z     vdW  Elec       q    Type
REMARK                         _______ _______ _______ _____ _____    ______ ____
ROOT
ATOM      1  C   UNL     1      35.009  22.071  10.886  0.00  0.00    +0.247 C 
ATOM      2  O   UNL     1      36.067  21.448  10.809  0.00  0.00    -0.270 OA
ATOM      3  N   UNL     1      34.517  22.863   9.836  0.00  0.00    -0.297 N 
ATOM      4  C   UNL     1      33.269  23.631   9.836  0.00  0.00    +0.108 C 
ATOM      5  C   UNL     1      32.377  23.285   8.657  0.00  0.00    +0.020 C 
ATOM      6  C   UNL     1      33.137  23.353   7.345  0.00  0.00    +0.011 C 
ATOM      7  C   UNL     1      34.443  22.520   7.361  0.00  0.00    -0.004 C 
ATOM      8  C   UNL     1      35.166  22.790   6.024  0.00  0.00    +0.020 C 
ATOM      9  C   UNL     1      36.089  21.635   5.698  0.00  0.00    +0.070 C 
ATOM     10  S   UNL     1      35.145  20.175   6.162  0.00  0.00    -0.160 S 
ATOM     11  C   UNL     1      34.142  21.005   7.426  0.00  0.00    +0.077 C 
ATOM     12  C   UNL     1      35.293  22.950   8.589  0.00  0.00    +0.115 C 
ENDROOT
BRANCH   1  16
ATOM     13  C   UNL     1      32.357  21.620  14.212  0.00  0.00    +0.037 A 
ATOM     14  C   UNL     1      33.303  22.650  14.228  0.00  0.00    +0.014 A 
ATOM     15  C   UNL     1      34.251  22.741  13.206  0.00  0.00    +0.014 A 
ATOM     16  C   UNL     1      34.193  21.868  12.115  0.00  0.00    +0.037 A 
ATOM     17  C   UNL     1      33.314  20.776  12.153  0.00  0.00    +0.014 A 
ATOM     18  C   UNL     1      32.405  20.646  13.208  0.00  0.00    +0.014 A 
BRANCH  13  20
ATOM     19  N   UNL     1      31.027  22.673  15.954  0.00  0.00    -0.325 N 
ATOM     20  C   UNL     1      31.292  21.536  15.244  0.00  0.00    +0.242 C 
ATOM     21  O   UNL     1      30.647  20.512  15.413  0.00  0.00    -0.270 OA
ATOM     22  H   UNL     1      30.216  22.636  16.560  0.00  0.00    +0.145 HD
ATOM     23  H   UNL     1      31.339  23.584  15.648  0.00  0.00    +0.145 HD
ENDBRANCH  13  20
ENDBRANCH   1  16
TORSDOF 2
ENDMDL
MODEL 3
REMARK VINA RESULT:      -6.0      3.607      7.657
REMARK  Name = ZINC000583127796
REMARK  2 active torsions:
REMARK  status: ('A' for Active; 'I' for Inactive)
REMARK    1  A    between atoms: C_2  and  C_4
REMARK    2  A    between atoms: C_7  and  C_8
REMARK                            x       y       z     vdW  Elec       q    Type
REMARK                         _______ _______ _______ _____ _____    ______ ____
ROOT
ATOM      1  C   UNL     1      34.470  20.957  12.573  0.00  0.00    +0.247 C 
ATOM      2  O   UNL     1      35.668  21.058  12.830  0.00  0.00    -0.270 OA
ATOM      3  N   UNL     1      33.530  20.493  13.508  0.00  0.00    -0.297 N 
ATOM      4  C   UNL     1      32.087  20.347  13.294  0.00  0.00    +0.108 C 
ATOM      5  C   UNL     1      31.270  21.084  14.339  0.00  0.00    +0.020 C 
ATOM      6  C   UNL     1      31.718  20.735  15.746  0.00  0.00    +0.011 C 
ATOM      7  C   UNL     1      33.242  20.914  15.955  0.00  0.00    -0.004 C 
ATOM      8  C   UNL     1      33.566  20.399  17.375  0.00  0.00    +0.020 C 
ATOM      9  C   UNL     1      34.839  21.046  17.877  0.00  0.00    +0.070 C 
ATOM     10  S   UNL     1      34.707  22.756  17.331  0.00  0.00    -0.160 S 
ATOM     11  C   UNL     1      33.645  22.405  15.902  0.00  0.00    +0.077 C 
ATOM     12  C   UNL     1      33.993  20.116  14.853  0.00  0.00    +0.115 C 
ENDROOT
BRANCH   1  16
ATOM     13  C   UNL     1      33.547  22.381   8.646  0.00  0.00    +0.037 A 
ATOM     14  C   UNL     1      33.466  23.263   9.728  0.00  0.00    +0.014 A 
ATOM     15  C   UNL     1      33.651  22.788  11.029  0.00  0.00    +0.014 A 
ATOM     16  C   UNL     1      34.018  21.456  11.244  0.00  0.00    +0.037 A 
ATOM     17  C   UNL     1      33.995  20.554  10.171  0.00  0.00    +0.014 A 
ATOM     18  C   UNL     1      33.748  21.015   8.875  0.00  0.00    +0.014 A 
BRANCH  13  20
ATOM     19  N   UNL     1      32.488  23.828   7.004  0.00  0.00    -0.325 N 
ATOM     20  C   UNL     1      33.426  22.865   7.247  0.00  0.00    +0.242 C 
ATOM     21  O   UNL     1      34.168  22.458   6.365  0.00  0.00    -0.270 OA
ATOM     22  H   UNL     1      32.506  24.239   6.078  0.00  0.00    +0.145 HD
ATOM     23  H   UNL     1      32.069  24.371   7.746  0.00  0.00    +0.145 HD
ENDBRANCH  13  20
ENDBRANCH   1  16
TORSDOF 2
ENDMDL
MODEL 4
REMARK VINA RESULT:      -5.8      6.126      7.360
REMARK  Name = ZINC000583127796
REMARK  2 active torsions:
REMARK  status: ('A' for Active; 'I' for Inactive)
REMARK    1  A    between atoms: C_2  and  C_4
REMARK    2  A    between atoms: C_7  and  C_8
REMARK                            x       y       z     vdW  Elec       q    Type
REMARK                         _______ _______ _______ _____ _____    ______ ____
ROOT
ATOM      1  C   UNL     1      33.930  16.931  14.095  0.00  0.00    +0.247 C 
ATOM      2  O   UNL     1      33.747  15.954  14.818  0.00  0.00    -0.270 OA
ATOM      3  N   UNL     1      34.725  16.880  12.938  0.00  0.00    -0.297 N 
ATOM      4  C   UNL     1      34.993  17.987  12.016  0.00  0.00    +0.108 C 
ATOM      5  C   UNL     1      34.644  17.642  10.580  0.00  0.00    +0.020 C 
ATOM      6  C   UNL     1      35.270  16.326  10.155  0.00  0.00    +0.011 C 
ATOM      7  C   UNL     1      34.959  15.166  11.133  0.00  0.00    -0.004 C 
ATOM      8  C   UNL     1      35.762  13.940  10.648  0.00  0.00    +0.020 C 
ATOM      9  C   UNL     1      35.105  12.669  11.141  0.00  0.00    +0.070 C 
ATOM     10  S   UNL     1      33.344  12.979  10.938  0.00  0.00    -0.160 S 
ATOM     11  C   UNL     1      33.461  14.783  11.091  0.00  0.00    +0.077 C 
ATOM     12  C   UNL     1      35.360  15.604  12.569  0.00  0.00    +0.115 C 
ENDROOT
BRANCH   1  16
ATOM     13  C   UNL     1      31.616  20.300  15.359  0.00  0.00    +0.037 A 
ATOM     14  C   UNL     1      31.261  19.631  14.183  0.00  0.00    +0.014 A 
ATOM     15  C   UNL     1      32.073  18.603  13.695  0.00  0.00    +0.014 A 
ATOM     16  C   UNL     1      33.180  18.173  14.432  0.00  0.00    +0.037 A 
ATOM     17  C   UNL     1      33.591  18.911  15.552  0.00  0.00    +0.014 A 
ATOM     18  C   UNL     1      32.815  19.981  16.007  0.00  0.00    +0.014 A 
BRANCH  13  20
ATOM     19  N   UNL     1      31.138  22.645  15.786  0.00  0.00    -0.325 N 
ATOM     20  C   UNL     1      30.740  21.347  15.943  0.00  0.00    +0.242 C 
ATOM     21  O   UNL     1      29.686  21.064  16.492  0.00  0.00    -0.270 OA
ATOM     22  H   UNL     1      30.469  23.350  16.074  0.00  0.00    +0.145 HD
ATOM     23  H   UNL     1      31.838  22.916  15.109  0.00  0.00    +0.145 HD
ENDBRANCH  13  20
ENDBRANCH   1  16
TORSDOF 2
ENDMDL
MODEL 5
REMARK VINA RESULT:      -5.8      3.269      7.327
REMARK  Name = ZINC000583127796
REMARK  2 active torsions:
REMARK  status: ('A' for Active; 'I' for Inactive)
REMARK    1  A    between atoms: C_2  and  C_4
REMARK    2  A    between atoms: C_7  and  C_8
REMARK                            x       y       z     vdW  Elec       q    Type
REMARK                         _______ _______ _______ _____ _____    ______ ____
ROOT
ATOM      1  C   UNL     1      33.663  23.161  10.781  0.00  0.00    +0.247 C 
ATOM      2  O   UNL     1      32.572  23.726  10.832  0.00  0.00    -0.270 OA
ATOM      3  N   UNL     1      34.338  22.711  11.928  0.00  0.00    -0.297 N 
ATOM      4  C   UNL     1      35.632  22.025  11.964  0.00  0.00    +0.108 C 
ATOM      5  C   UNL     1      35.566  20.703  12.708  0.00  0.00    +0.020 C 
ATOM      6  C   UNL     1      34.920  20.863  14.072  0.00  0.00    +0.011 C 
ATOM      7  C   UNL     1      33.546  21.574  14.009  0.00  0.00    -0.004 C 
ATOM      8  C   UNL     1      33.079  21.782  15.466  0.00  0.00    +0.020 C 
ATOM      9  C   UNL     1      31.571  21.912  15.508  0.00  0.00    +0.070 C 
ATOM     10  S   UNL     1      30.992  20.676  14.335  0.00  0.00    -0.160 S 
ATOM     11  C   UNL     1      32.488  20.691  13.307  0.00  0.00    +0.077 C 
ATOM     12  C   UNL     1      33.714  22.917  13.245  0.00  0.00    +0.115 C 
ENDROOT
BRANCH   1  16
ATOM     13  C   UNL     1      34.995  22.586   6.757  0.00  0.00    +0.037 A 
ATOM     14  C   UNL     1      34.187  21.612   7.354  0.00  0.00    +0.014 A 
ATOM     15  C   UNL     1      33.840  21.727   8.703  0.00  0.00    +0.014 A 
ATOM     16  C   UNL     1      34.210  22.864   9.428  0.00  0.00    +0.037 A 
ATOM     17  C   UNL     1      35.103  23.783   8.859  0.00  0.00    +0.014 A 
ATOM     18  C   UNL     1      35.505  23.637   7.529  0.00  0.00    +0.014 A 
BRANCH  13  20
ATOM     19  N   UNL     1      35.491  23.726   4.667  0.00  0.00    -0.325 N 
ATOM     20  C   UNL     1      35.325  22.531   5.310  0.00  0.00    +0.242 C 
ATOM     21  O   UNL     1      35.491  21.467   4.733  0.00  0.00    -0.270 OA
ATOM     22  H   UNL     1      35.841  23.672   3.718  0.00  0.00    +0.145 HD
ATOM     23  H   UNL     1      35.636  24.591   5.168  0.00  0.00    +0.145 HD
ENDBRANCH  13  20
ENDBRANCH   1  16
TORSDOF 2
ENDMDL
MODEL 6
REMARK VINA RESULT:      -5.7     15.425     17.838
REMARK  Name = ZINC000583127796
REMARK  2 active torsions:
REMARK  status: ('A' for Active; 'I' for Inactive)
REMARK    1  A    between atoms: C_2  and  C_4
REMARK    2  A    between atoms: C_7  and  C_8
REMARK                            x       y       z     vdW  Elec       q    Type
REMARK                         _______ _______ _______ _____ _____    ______ ____
ROOT
ATOM      1  C   UNL     1      24.189  25.911  23.504  0.00  0.00    +0.247 C 
ATOM      2  O   UNL     1      23.499  24.909  23.684  0.00  0.00    -0.270 OA
ATOM      3  N   UNL     1      25.160  26.338  24.425  0.00  0.00    -0.297 N 
ATOM      4  C   UNL     1      26.030  27.510  24.292  0.00  0.00    +0.108 C 
ATOM      5  C   UNL     1      27.500  27.157  24.429  0.00  0.00    +0.020 C 
ATOM      6  C   UNL     1      27.763  26.338  25.679  0.00  0.00    +0.011 C 
ATOM      7  C   UNL     1      26.846  25.095  25.791  0.00  0.00    -0.004 C 
ATOM      8  C   UNL     1      27.133  24.444  27.160  0.00  0.00    +0.020 C 
ATOM      9  C   UNL     1      26.758  22.978  27.120  0.00  0.00    +0.070 C 
ATOM     10  S   UNL     1      27.320  22.426  25.502  0.00  0.00    -0.160 S 
ATOM     11  C   UNL     1      27.182  24.049  24.702  0.00  0.00    +0.077 C 
ATOM     12  C   UNL     1      25.367  25.554  25.653  0.00  0.00    +0.115 C 
ENDROOT
BRANCH   1  16
ATOM     13  C   UNL     1      23.468  27.671  19.673  0.00  0.00    +0.037 A 
ATOM     14  C   UNL     1      24.642  26.938  19.877  0.00  0.00    +0.014 A 
ATOM     15  C   UNL     1      24.948  26.455  21.152  0.00  0.00    +0.014 A 
ATOM     16  C   UNL     1      24.036  26.614  22.200  0.00  0.00    +0.037 A 
ATOM     17  C   UNL     1      22.914  27.435  22.019  0.00  0.00    +0.014 A 
ATOM     18  C   UNL     1      22.638  27.973  20.758  0.00  0.00    +0.014 A 
BRANCH  13  20
ATOM     19  N   UNL     1      22.327  27.282  17.561  0.00  0.00    -0.325 N 
ATOM     20  C   UNL     1      23.078  28.138  18.317  0.00  0.00    +0.242 C 
ATOM     21  O   UNL     1      23.369  29.255  17.919  0.00  0.00    -0.270 OA
ATOM     22  H   UNL     1      21.962  27.663  16.696  0.00  0.00    +0.145 HD
ATOM     23  H   UNL     1      21.845  26.490  17.962  0.00  0.00    +0.145 HD
ENDBRANCH  13  20
ENDBRANCH   1  16
TORSDOF 2
ENDMDL
MODEL 7
REMARK VINA RESULT:      -5.7      6.373      7.892
REMARK  Name = ZINC000583127796
REMARK  2 active torsions:
REMARK  status: ('A' for Active; 'I' for Inactive)
REMARK    1  A    between atoms: C_2  and  C_4
REMARK    2  A    between atoms: C_7  and  C_8
REMARK                            x       y       z     vdW  Elec       q    Type
REMARK                         _______ _______ _______ _____ _____    ______ ____
ROOT
ATOM      1  C   UNL     1      35.162  21.876  15.190  0.00  0.00    +0.247 C 
ATOM      2  O   UNL     1      36.242  21.417  14.823  0.00  0.00    -0.270 OA
ATOM      3  N   UNL     1      33.931  21.369  14.741  0.00  0.00    -0.297 N 
ATOM      4  C   UNL     1      32.600  21.845  15.127  0.00  0.00    +0.108 C 
ATOM      5  C   UNL     1      31.722  20.731  15.668  0.00  0.00    +0.020 C 
ATOM      6  C   UNL     1      31.697  19.537  14.732  0.00  0.00    +0.011 C 
ATOM      7  C   UNL     1      33.113  19.039  14.351  0.00  0.00    -0.004 C 
ATOM      8  C   UNL     1      32.931  17.920  13.303  0.00  0.00    +0.020 C 
ATOM      9  C   UNL     1      34.139  17.007  13.311  0.00  0.00    +0.070 C 
ATOM     10  S   UNL     1      34.537  16.824  15.057  0.00  0.00    -0.160 S 
ATOM     11  C   UNL     1      33.837  18.418  15.568  0.00  0.00    +0.077 C 
ATOM     12  C   UNL     1      33.931  20.239  13.798  0.00  0.00    +0.115 C 
ENDROOT
BRANCH   1  16
ATOM     13  C   UNL     1      34.892  24.832  18.269  0.00  0.00    +0.037 A 
ATOM     14  C   UNL     1      34.900  25.240  16.931  0.00  0.00    +0.014 A 
ATOM     15  C   UNL     1      35.104  24.299  15.918  0.00  0.00    +0.014 A 
ATOM     16  C   UNL     1      35.196  22.939  16.232  0.00  0.00    +0.037 A 
ATOM     17  C   UNL     1      35.293  22.547  17.575  0.00  0.00    +0.014 A 
ATOM     18  C   UNL     1      35.152  23.496  18.592  0.00  0.00    +0.014 A 
BRANCH  13  20
ATOM     19  N   UNL     1      33.295  26.096  19.599  0.00  0.00    -0.325 N 
ATOM     20  C   UNL     1      34.608  25.794  19.365  0.00  0.00    +0.242 C 
ATOM     21  O   UNL     1      35.502  26.252  20.060  0.00  0.00    -0.270 OA
ATOM     22  H   UNL     1      33.110  26.649  20.428  0.00  0.00    +0.145 HD
ATOM     23  H   UNL     1      32.540  25.531  19.238  0.00  0.00    +0.145 HD
ENDBRANCH  13  20
ENDBRANCH   1  16
TORSDOF 2
ENDMDL
MODEL 8
REMARK VINA RESULT:      -5.6      5.038      7.464
REMARK  Name = ZINC000583127796
REMARK  2 active torsions:
REMARK  status: ('A' for Active; 'I' for Inactive)
REMARK    1  A    between atoms: C_2  and  C_4
REMARK    2  A    between atoms: C_7  and  C_8
REMARK                            x       y       z     vdW  Elec       q    Type
REMARK                         _______ _______ _______ _____ _____    ______ ____
ROOT
ATOM      1  C   UNL     1      34.440  18.613  13.746  0.00  0.00    +0.247 C 
ATOM      2  O   UNL     1      35.667  18.661  13.816  0.00  0.00    -0.270 OA
ATOM      3  N   UNL     1      33.618  19.698  14.091  0.00  0.00    -0.297 N 
ATOM      4  C   UNL     1      32.154  19.734  14.033  0.00  0.00    +0.108 C 
ATOM      5  C   UNL     1      31.637  20.897  13.206  0.00  0.00    +0.020 C 
ATOM      6  C   UNL     1      32.265  22.210  13.636  0.00  0.00    +0.011 C 
ATOM      7  C   UNL     1      33.812  22.155  13.674  0.00  0.00    -0.004 C 
ATOM      8  C   UNL     1      34.297  23.503  14.250  0.00  0.00    +0.020 C 
ATOM      9  C   UNL     1      35.715  23.775  13.795  0.00  0.00    +0.070 C 
ATOM     10  S   UNL     1      35.731  23.247  12.074  0.00  0.00    -0.160 S 
ATOM     11  C   UNL     1      34.403  22.022  12.252  0.00  0.00    +0.077 C 
ATOM     12  C   UNL     1      34.246  20.947  14.550  0.00  0.00    +0.115 C 
ENDROOT
BRANCH   1  16
ATOM     13  C   UNL     1      32.437  15.288  11.948  0.00  0.00    +0.037 A 
ATOM     14  C   UNL     1      32.420  15.424  13.340  0.00  0.00    +0.014 A 
ATOM     15  C   UNL     1      33.165  16.436  13.950  0.00  0.00    +0.014 A 
ATOM     16  C   UNL     1      33.843  17.377  13.168  0.00  0.00    +0.037 A 
ATOM     17  C   UNL     1      33.943  17.177  11.784  0.00  0.00    +0.014 A 
ATOM     18  C   UNL     1      33.250  16.127  11.177  0.00  0.00    +0.014 A 
BRANCH  13  20
ATOM     19  N   UNL     1      30.302  14.603  11.008  0.00  0.00    -0.325 N 
ATOM     20  C   UNL     1      31.602  14.268  11.263  0.00  0.00    +0.242 C 
ATOM     21  O   UNL     1      32.071  13.201  10.898  0.00  0.00    -0.270 OA
ATOM     22  H   UNL     1      29.784  13.953  10.428  0.00  0.00    +0.145 HD
ATOM     23  H   UNL     1      29.975  15.559  11.042  0.00  0.00    +0.145 HD
ENDBRANCH  13  20
ENDBRANCH   1  16
TORSDOF 2
ENDMDL
MODEL 9
REMARK VINA RESULT:      -5.6      6.149      8.470
REMARK  Name = ZINC000583127796
REMARK  2 active torsions:
REMARK  status: ('A' for Active; 'I' for Inactive)
REMARK    1  A    between atoms: C_2  and  C_4
REMARK    2  A    between atoms: C_7  and  C_8
REMARK                            x       y       z     vdW  Elec       q    Type
REMARK                         _______ _______ _______ _____ _____    ______ ____
ROOT
ATOM      1  C   UNL     1      34.076  18.499  14.604  0.00  0.00    +0.247 C 
ATOM      2  O   UNL     1      35.289  18.521  14.803  0.00  0.00    -0.270 OA
ATOM      3  N   UNL     1      33.195  19.429  15.182  0.00  0.00    -0.297 N 
ATOM      4  C   UNL     1      31.743  19.484  14.997  0.00  0.00    +0.108 C 
ATOM      5  C   UNL     1      31.272  20.846  14.518  0.00  0.00    +0.020 C 
ATOM      6  C   UNL     1      31.822  21.962  15.387  0.00  0.00    +0.011 C 
ATOM      7  C   UNL     1      33.360  21.895  15.554  0.00  0.00    -0.004 C 
ATOM      8  C   UNL     1      33.753  23.001  16.558  0.00  0.00    +0.020 C 
ATOM      9  C   UNL     1      35.198  23.397  16.345  0.00  0.00    +0.070 C 
ATOM     10  S   UNL     1      35.388  23.420  14.556  0.00  0.00    -0.160 S 
ATOM     11  C   UNL     1      34.083  22.202  14.223  0.00  0.00    +0.077 C 
ATOM     12  C   UNL     1      33.745  20.477  16.058  0.00  0.00    +0.115 C 
ENDROOT
BRANCH   1  16
ATOM     13  C   UNL     1      32.877  15.378  11.935  0.00  0.00    +0.037 A 
ATOM     14  C   UNL     1      33.608  16.461  11.435  0.00  0.00    +0.014 A 
ATOM     15  C   UNL     1      33.907  17.543  12.267  0.00  0.00    +0.014 A 
ATOM     16  C   UNL     1      33.568  17.500  13.623  0.00  0.00    +0.037 A 
ATOM     17  C   UNL     1      32.748  16.466  14.095  0.00  0.00    +0.014 A 
ATOM     18  C   UNL     1      32.393  15.412  13.248  0.00  0.00    +0.014 A 
BRANCH  13  20
ATOM     19  N   UNL     1      33.663  13.641  10.426  0.00  0.00    -0.325 N 
ATOM     20  C   UNL     1      32.603  14.181  11.099  0.00  0.00    +0.242 C 
ATOM     21  O   UNL     1      31.493  13.673  11.057  0.00  0.00    -0.270 OA
ATOM     22  H   UNL     1      33.489  12.755   9.967  0.00  0.00    +0.145 HD
ATOM     23  H   UNL     1      34.620  13.864  10.661  0.00  0.00    +0.145 HD
ENDBRANCH  13  20
ENDBRANCH   1  16
TORSDOF 2
ENDMDL
