MODEL 1
REMARK VINA RESULT:      -6.3      0.000      0.000
REMARK  Name = ZINC000870248439
REMARK  2 active torsions:
REMARK  status: ('A' for Active; 'I' for Inactive)
REMARK    1  A    between atoms: C_2  and  C_4
REMARK    2  A    between atoms: C_7  and  C_8
REMARK                            x       y       z     vdW  Elec       q    Type
REMARK                         _______ _______ _______ _____ _____    ______ ____
ROOT
ATOM      1  C   UNL     1      18.971   5.126  28.130  0.00  0.00    +0.247 C 
ATOM      2  O   UNL     1      18.954   5.669  27.025  0.00  0.00    -0.270 OA
ATOM      3  N   UNL     1      20.139   4.625  28.720  0.00  0.00    -0.297 N 
ATOM      4  C   UNL     1      20.213   3.939  30.013  0.00  0.00    +0.108 C 
ATOM      5  C   UNL     1      21.465   4.287  30.808  0.00  0.00    +0.026 C 
ATOM      6  C   UNL     1      22.771   4.154  29.996  0.00  0.00    -0.025 C 
ATOM      7  C   UNL     1      23.916   4.745  30.858  0.00  0.00    +0.017 C 
ATOM      8  C   UNL     1      25.301   4.668  30.230  0.00  0.00    +0.069 C 
ATOM      9  S   UNL     1      25.811   2.961  29.891  0.00  0.00    -0.161 S 
ATOM     10  C   UNL     1      24.363   2.395  28.959  0.00  0.00    +0.069 C 
ATOM     11  C   UNL     1      23.063   2.658  29.711  0.00  0.00    +0.017 C 
ATOM     12  C   UNL     1      22.586   4.982  28.697  0.00  0.00    +0.026 C 
ATOM     13  C   UNL     1      21.347   4.574  27.900  0.00  0.00    +0.108 C 
ENDROOT
BRANCH   1  17
ATOM     14  C   UNL     1      15.146   5.035  30.024  0.00  0.00    +0.037 A 
ATOM     15  C   UNL     1      16.025   6.086  30.307  0.00  0.00    +0.014 A 
ATOM     16  C   UNL     1      17.313   6.074  29.770  0.00  0.00    +0.014 A 
ATOM     17  C   UNL     1      17.689   5.067  28.874  0.00  0.00    +0.037 A 
ATOM     18  C   UNL     1      16.842   3.972  28.663  0.00  0.00    +0.014 A 
ATOM     19  C   UNL     1      15.573   3.951  29.247  0.00  0.00    +0.014 A 
BRANCH  14  21
ATOM     20  N   UNL     1      12.971   6.110  30.182  0.00  0.00    -0.325 N 
ATOM     21  C   UNL     1      13.753   5.046  30.537  0.00  0.00    +0.242 C 
ATOM     22  O   UNL     1      13.307   4.122  31.200  0.00  0.00    -0.270 OA
ATOM     23  H   UNL     1      11.993   6.046  30.433  0.00  0.00    +0.145 HD
ATOM     24  H   UNL     1      13.221   6.740  29.433  0.00  0.00    +0.145 HD
ENDBRANCH  14  21
ENDBRANCH   1  17
TORSDOF 2
ENDMDL
MODEL 2
REMARK VINA RESULT:      -6.3     28.334     30.819
REMARK  Name = ZINC000870248439
REMARK  2 active torsions:
REMARK  status: ('A' for Active; 'I' for Inactive)
REMARK    1  A    between atoms: C_2  and  C_4
REMARK    2  A    between atoms: C_7  and  C_8
REMARK                            x       y       z     vdW  Elec       q    Type
REMARK                         _______ _______ _______ _____ _____    ______ ____
ROOT
ATOM      1  C   UNL     1      33.365  23.370   9.118  0.00  0.00    +0.247 C 
ATOM      2  O   UNL     1      32.646  24.272   8.690  0.00  0.00    -0.270 OA
ATOM      3  N   UNL     1      33.389  22.981  10.464  0.00  0.00    -0.297 N 
ATOM      4  C   UNL     1      34.248  21.941  11.034  0.00  0.00    +0.108 C 
ATOM      5  C   UNL     1      33.559  21.114  12.113  0.00  0.00    +0.026 C 
ATOM      6  C   UNL     1      32.867  21.967  13.198  0.00  0.00    -0.025 C 
ATOM      7  C   UNL     1      32.038  21.004  14.085  0.00  0.00    +0.017 C 
ATOM      8  C   UNL     1      31.306  21.666  15.245  0.00  0.00    +0.069 C 
ATOM      9  S   UNL     1      32.439  22.493  16.394  0.00  0.00    -0.161 S 
ATOM     10  C   UNL     1      33.372  23.507  15.216  0.00  0.00    +0.069 C 
ATOM     11  C   UNL     1      33.937  22.675  14.070  0.00  0.00    +0.017 C 
ATOM     12  C   UNL     1      31.937  22.969  12.466  0.00  0.00    +0.026 C 
ATOM     13  C   UNL     1      32.671  23.814  11.424  0.00  0.00    +0.108 C 
ENDROOT
BRANCH   1  17
ATOM     14  C   UNL     1      35.628  21.433   6.059  0.00  0.00    +0.037 A 
ATOM     15  C   UNL     1      34.547  20.761   6.640  0.00  0.00    +0.014 A 
ATOM     16  C   UNL     1      33.862  21.345   7.706  0.00  0.00    +0.014 A 
ATOM     17  C   UNL     1      34.193  22.638   8.127  0.00  0.00    +0.037 A 
ATOM     18  C   UNL     1      35.329  23.270   7.607  0.00  0.00    +0.014 A 
ATOM     19  C   UNL     1      36.054  22.662   6.578  0.00  0.00    +0.014 A 
BRANCH  14  21
ATOM     20  N   UNL     1      36.671  21.726   3.883  0.00  0.00    -0.325 N 
ATOM     21  C   UNL     1      36.342  20.862   4.890  0.00  0.00    +0.242 C 
ATOM     22  O   UNL     1      36.670  19.686   4.851  0.00  0.00    -0.270 OA
ATOM     23  H   UNL     1      37.263  21.353   3.152  0.00  0.00    +0.145 HD
ATOM     24  H   UNL     1      36.652  22.729   4.003  0.00  0.00    +0.145 HD
ENDBRANCH  14  21
ENDBRANCH   1  17
TORSDOF 2
ENDMDL
MODEL 3
REMARK VINA RESULT:      -6.3      1.784      2.526
REMARK  Name = ZINC000870248439
REMARK  2 active torsions:
REMARK  status: ('A' for Active; 'I' for Inactive)
REMARK    1  A    between atoms: C_2  and  C_4
REMARK    2  A    between atoms: C_7  and  C_8
REMARK                            x       y       z     vdW  Elec       q    Type
REMARK                         _______ _______ _______ _____ _____    ______ ____
ROOT
ATOM      1  C   UNL     1      21.525   5.991  28.773  0.00  0.00    +0.247 C 
ATOM      2  O   UNL     1      21.738   6.911  27.984  0.00  0.00    -0.270 OA
ATOM      3  N   UNL     1      22.546   5.235  29.365  0.00  0.00    -0.297 N 
ATOM      4  C   UNL     1      22.350   4.109  30.281  0.00  0.00    +0.108 C 
ATOM      5  C   UNL     1      23.383   4.056  31.400  0.00  0.00    +0.026 C 
ATOM      6  C   UNL     1      24.841   4.164  30.903  0.00  0.00    -0.025 C 
ATOM      7  C   UNL     1      25.747   4.316  32.151  0.00  0.00    +0.017 C 
ATOM      8  C   UNL     1      27.238   4.401  31.858  0.00  0.00    +0.069 C 
ATOM      9  S   UNL     1      27.861   2.922  31.013  0.00  0.00    -0.161 S 
ATOM     10  C   UNL     1      26.674   2.837  29.645  0.00  0.00    +0.069 C 
ATOM     11  C   UNL     1      25.232   2.872  30.140  0.00  0.00    +0.017 C 
ATOM     12  C   UNL     1      24.926   5.430  30.011  0.00  0.00    +0.026 C 
ATOM     13  C   UNL     1      23.907   5.428  28.871  0.00  0.00    +0.108 C 
ENDROOT
BRANCH   1  17
ATOM     14  C   UNL     1      17.401   5.522  29.773  0.00  0.00    +0.037 A 
ATOM     15  C   UNL     1      18.354   5.556  30.797  0.00  0.00    +0.014 A 
ATOM     16  C   UNL     1      19.710   5.611  30.477  0.00  0.00    +0.014 A 
ATOM     17  C   UNL     1      20.112   5.730  29.142  0.00  0.00    +0.037 A 
ATOM     18  C   UNL     1      19.165   5.605  28.117  0.00  0.00    +0.014 A 
ATOM     19  C   UNL     1      17.809   5.490  28.433  0.00  0.00    +0.014 A 
BRANCH  14  21
ATOM     20  N   UNL     1      15.436   6.644  30.661  0.00  0.00    -0.325 N 
ATOM     21  C   UNL     1      15.949   5.518  30.081  0.00  0.00    +0.242 C 
ATOM     22  O   UNL     1      15.233   4.574  29.782  0.00  0.00    -0.270 OA
ATOM     23  H   UNL     1      14.429   6.678  30.753  0.00  0.00    +0.145 HD
ATOM     24  H   UNL     1      15.936   7.521  30.676  0.00  0.00    +0.145 HD
ENDBRANCH  14  21
ENDBRANCH   1  17
TORSDOF 2
ENDMDL
MODEL 4
REMARK VINA RESULT:      -6.2     30.326     32.322
REMARK  Name = ZINC000870248439
REMARK  2 active torsions:
REMARK  status: ('A' for Active; 'I' for Inactive)
REMARK    1  A    between atoms: C_2  and  C_4
REMARK    2  A    between atoms: C_7  and  C_8
REMARK                            x       y       z     vdW  Elec       q    Type
REMARK                         _______ _______ _______ _____ _____    ______ ____
ROOT
ATOM      1  C   UNL     1      35.470  24.581   8.806  0.00  0.00    +0.247 C 
ATOM      2  O   UNL     1      35.829  25.757   8.838  0.00  0.00    -0.270 OA
ATOM      3  N   UNL     1      36.059  23.620   7.972  0.00  0.00    -0.297 N 
ATOM      4  C   UNL     1      35.650  22.218   7.867  0.00  0.00    +0.108 C 
ATOM      5  C   UNL     1      36.821  21.260   7.689  0.00  0.00    +0.026 C 
ATOM      6  C   UNL     1      37.795  21.675   6.566  0.00  0.00    -0.025 C 
ATOM      7  C   UNL     1      39.029  20.742   6.654  0.00  0.00    +0.017 C 
ATOM      8  C   UNL     1      40.094  20.980   5.591  0.00  0.00    +0.069 C 
ATOM      9  S   UNL     1      39.455  20.744   3.910  0.00  0.00    -0.161 S 
ATOM     10  C   UNL     1      37.999  21.821   3.989  0.00  0.00    +0.069 C 
ATOM     11  C   UNL     1      37.112  21.494   5.185  0.00  0.00    +0.017 C 
ATOM     12  C   UNL     1      38.205  23.146   6.838  0.00  0.00    +0.026 C 
ATOM     13  C   UNL     1      37.006  24.087   6.964  0.00  0.00    +0.108 C 
ENDROOT
BRANCH   1  17
ATOM     14  C   UNL     1      32.329  23.698  11.561  0.00  0.00    +0.037 A 
ATOM     15  C   UNL     1      33.659  23.542  11.966  0.00  0.00    +0.014 A 
ATOM     16  C   UNL     1      34.689  23.733  11.045  0.00  0.00    +0.014 A 
ATOM     17  C   UNL     1      34.399  24.174   9.750  0.00  0.00    +0.037 A 
ATOM     18  C   UNL     1      33.067  24.243   9.320  0.00  0.00    +0.014 A 
ATOM     19  C   UNL     1      32.031  23.994  10.225  0.00  0.00    +0.014 A 
BRANCH  14  21
ATOM     20  N   UNL     1      30.613  24.704  12.958  0.00  0.00    -0.325 N 
ATOM     21  C   UNL     1      31.214  23.554  12.529  0.00  0.00    +0.242 C 
ATOM     22  O   UNL     1      30.813  22.456  12.886  0.00  0.00    -0.270 OA
ATOM     23  H   UNL     1      29.779  24.588  13.519  0.00  0.00    +0.145 HD
ATOM     24  H   UNL     1      30.741  25.589  12.488  0.00  0.00    +0.145 HD
ENDBRANCH  14  21
ENDBRANCH   1  17
TORSDOF 2
ENDMDL
MODEL 5
REMARK VINA RESULT:      -6.0     27.338     29.449
REMARK  Name = ZINC000870248439
REMARK  2 active torsions:
REMARK  status: ('A' for Active; 'I' for Inactive)
REMARK    1  A    between atoms: C_2  and  C_4
REMARK    2  A    between atoms: C_7  and  C_8
REMARK                            x       y       z     vdW  Elec       q    Type
REMARK                         _______ _______ _______ _____ _____    ______ ____
ROOT
ATOM      1  C   UNL     1      35.011  21.140  12.384  0.00  0.00    +0.247 C 
ATOM      2  O   UNL     1      35.895  20.403  12.819  0.00  0.00    -0.270 OA
ATOM      3  N   UNL     1      35.068  21.745  11.121  0.00  0.00    -0.297 N 
ATOM      4  C   UNL     1      34.064  22.656  10.567  0.00  0.00    +0.108 C 
ATOM      5  C   UNL     1      33.836  22.464   9.072  0.00  0.00    +0.026 C 
ATOM      6  C   UNL     1      35.138  22.449   8.244  0.00  0.00    -0.025 C 
ATOM      7  C   UNL     1      34.764  22.030   6.800  0.00  0.00    +0.017 C 
ATOM      8  C   UNL     1      35.927  21.994   5.817  0.00  0.00    +0.069 C 
ATOM      9  S   UNL     1      36.728  23.612   5.637  0.00  0.00    -0.161 S 
ATOM     10  C   UNL     1      37.030  23.992   7.384  0.00  0.00    +0.069 C 
ATOM     11  C   UNL     1      35.762  23.869   8.221  0.00  0.00    +0.017 C 
ATOM     12  C   UNL     1      36.077  21.397   8.890  0.00  0.00    +0.026 C 
ATOM     13  C   UNL     1      36.322  21.647  10.378  0.00  0.00    +0.108 C 
ENDROOT
BRANCH   1  17
ATOM     14  C   UNL     1      31.719  21.605  15.062  0.00  0.00    +0.037 A 
ATOM     15  C   UNL     1      31.738  20.516  14.185  0.00  0.00    +0.014 A 
ATOM     16  C   UNL     1      32.759  20.407  13.240  0.00  0.00    +0.014 A 
ATOM     17  C   UNL     1      33.810  21.331  13.234  0.00  0.00    +0.037 A 
ATOM     18  C   UNL     1      33.742  22.467  14.051  0.00  0.00    +0.014 A 
ATOM     19  C   UNL     1      32.689  22.610  14.958  0.00  0.00    +0.014 A 
BRANCH  14  21
ATOM     20  N   UNL     1      30.375  22.980  16.549  0.00  0.00    -0.325 N 
ATOM     21  C   UNL     1      30.677  21.720  16.113  0.00  0.00    +0.242 C 
ATOM     22  O   UNL     1      30.077  20.742  16.531  0.00  0.00    -0.270 OA
ATOM     23  H   UNL     1      29.581  23.057  17.173  0.00  0.00    +0.145 HD
ATOM     24  H   UNL     1      30.655  23.809  16.045  0.00  0.00    +0.145 HD
ENDBRANCH  14  21
ENDBRANCH   1  17
TORSDOF 2
ENDMDL
MODEL 6
REMARK VINA RESULT:      -5.9     31.597     32.754
REMARK  Name = ZINC000870248439
REMARK  2 active torsions:
REMARK  status: ('A' for Active; 'I' for Inactive)
REMARK    1  A    between atoms: C_2  and  C_4
REMARK    2  A    between atoms: C_7  and  C_8
REMARK                            x       y       z     vdW  Elec       q    Type
REMARK                         _______ _______ _______ _____ _____    ______ ____
ROOT
ATOM      1  C   UNL     1      26.256  32.190  16.753  0.00  0.00    +0.247 C 
ATOM      2  O   UNL     1      27.081  31.400  17.211  0.00  0.00    -0.270 OA
ATOM      3  N   UNL     1      26.554  33.527  16.459  0.00  0.00    -0.297 N 
ATOM      4  C   UNL     1      25.606  34.519  15.947  0.00  0.00    +0.108 C 
ATOM      5  C   UNL     1      26.221  35.472  14.930  0.00  0.00    +0.026 C 
ATOM      6  C   UNL     1      27.543  36.113  15.404  0.00  0.00    -0.025 C 
ATOM      7  C   UNL     1      28.150  36.870  14.195  0.00  0.00    +0.017 C 
ATOM      8  C   UNL     1      29.453  37.604  14.483  0.00  0.00    +0.069 C 
ATOM      9  S   UNL     1      29.264  38.865  15.773  0.00  0.00    -0.161 S 
ATOM     10  C   UNL     1      28.488  37.858  17.065  0.00  0.00    +0.069 C 
ATOM     11  C   UNL     1      27.259  37.118  16.550  0.00  0.00    +0.017 C 
ATOM     12  C   UNL     1      28.478  34.956  15.845  0.00  0.00    +0.026 C 
ATOM     13  C   UNL     1      27.846  34.047  16.899  0.00  0.00    +0.108 C 
ENDROOT
BRANCH   1  17
ATOM     14  C   UNL     1      22.454  30.399  16.001  0.00  0.00    +0.037 A 
ATOM     15  C   UNL     1      23.325  30.631  14.931  0.00  0.00    +0.014 A 
ATOM     16  C   UNL     1      24.527  31.303  15.151  0.00  0.00    +0.014 A 
ATOM     17  C   UNL     1      24.904  31.657  16.451  0.00  0.00    +0.037 A 
ATOM     18  C   UNL     1      23.994  31.505  17.505  0.00  0.00    +0.014 A 
ATOM     19  C   UNL     1      22.763  30.885  17.277  0.00  0.00    +0.014 A 
BRANCH  14  21
ATOM     20  N   UNL     1      21.305  28.359  15.347  0.00  0.00    -0.325 N 
ATOM     21  C   UNL     1      21.192  29.640  15.808  0.00  0.00    +0.242 C 
ATOM     22  O   UNL     1      20.106  30.118  16.099  0.00  0.00    -0.270 OA
ATOM     23  H   UNL     1      20.453  27.813  15.337  0.00  0.00    +0.145 HD
ATOM     24  H   UNL     1      22.182  27.857  15.352  0.00  0.00    +0.145 HD
ENDBRANCH  14  21
ENDBRANCH   1  17
TORSDOF 2
ENDMDL
MODEL 7
REMARK VINA RESULT:      -5.9     23.879     25.035
REMARK  Name = ZINC000870248439
REMARK  2 active torsions:
REMARK  status: ('A' for Active; 'I' for Inactive)
REMARK    1  A    between atoms: C_2  and  C_4
REMARK    2  A    between atoms: C_7  and  C_8
REMARK                            x       y       z     vdW  Elec       q    Type
REMARK                         _______ _______ _______ _____ _____    ______ ____
ROOT
ATOM      1  C   UNL     1      34.465  18.838  17.380  0.00  0.00    +0.247 C 
ATOM      2  O   UNL     1      34.165  18.947  18.569  0.00  0.00    -0.270 OA
ATOM      3  N   UNL     1      35.360  17.872  16.900  0.00  0.00    -0.297 N 
ATOM      4  C   UNL     1      35.779  17.719  15.505  0.00  0.00    +0.108 C 
ATOM      5  C   UNL     1      35.948  16.265  15.082  0.00  0.00    +0.026 C 
ATOM      6  C   UNL     1      36.816  15.435  16.053  0.00  0.00    -0.025 C 
ATOM      7  C   UNL     1      36.712  13.952  15.615  0.00  0.00    +0.017 C 
ATOM      8  C   UNL     1      37.540  12.977  16.441  0.00  0.00    +0.069 C 
ATOM      9  S   UNL     1      39.313  13.354  16.381  0.00  0.00    -0.161 S 
ATOM     10  C   UNL     1      39.261  15.108  16.836  0.00  0.00    +0.069 C 
ATOM     11  C   UNL     1      38.294  15.896  15.959  0.00  0.00    +0.017 C 
ATOM     12  C   UNL     1      36.222  15.626  17.472  0.00  0.00    +0.026 C 
ATOM     13  C   UNL     1      36.111  17.095  17.882  0.00  0.00    +0.108 C 
ENDROOT
BRANCH   1  17
ATOM     14  C   UNL     1      32.332  21.539  14.853  0.00  0.00    +0.037 A 
ATOM     15  C   UNL     1      32.117  20.162  14.720  0.00  0.00    +0.014 A 
ATOM     16  C   UNL     1      32.879  19.268  15.472  0.00  0.00    +0.014 A 
ATOM     17  C   UNL     1      33.785  19.747  16.425  0.00  0.00    +0.037 A 
ATOM     18  C   UNL     1      34.063  21.118  16.492  0.00  0.00    +0.014 A 
ATOM     19  C   UNL     1      33.344  22.014  15.697  0.00  0.00    +0.014 A 
BRANCH  14  21
ATOM     20  N   UNL     1      31.438  23.786  14.610  0.00  0.00    -0.325 N 
ATOM     21  C   UNL     1      31.502  22.517  14.106  0.00  0.00    +0.242 C 
ATOM     22  O   UNL     1      30.945  22.219  13.061  0.00  0.00    -0.270 OA
ATOM     23  H   UNL     1      30.972  24.472  14.030  0.00  0.00    +0.145 HD
ATOM     24  H   UNL     1      32.087  24.125  15.306  0.00  0.00    +0.145 HD
ENDBRANCH  14  21
ENDBRANCH   1  17
TORSDOF 2
ENDMDL
MODEL 8
REMARK VINA RESULT:      -5.9     23.615     25.158
REMARK  Name = ZINC000870248439
REMARK  2 active torsions:
REMARK  status: ('A' for Active; 'I' for Inactive)
REMARK    1  A    between atoms: C_2  and  C_4
REMARK    2  A    between atoms: C_7  and  C_8
REMARK                            x       y       z     vdW  Elec       q    Type
REMARK                         _______ _______ _______ _____ _____    ______ ____
ROOT
ATOM      1  C   UNL     1      35.127  17.339  13.944  0.00  0.00    +0.247 C 
ATOM      2  O   UNL     1      36.206  17.489  14.517  0.00  0.00    -0.270 OA
ATOM      3  N   UNL     1      34.741  16.136  13.338  0.00  0.00    -0.297 N 
ATOM      4  C   UNL     1      33.487  15.911  12.614  0.00  0.00    +0.108 C 
ATOM      5  C   UNL     1      32.900  14.524  12.842  0.00  0.00    +0.026 C 
ATOM      6  C   UNL     1      33.915  13.380  12.632  0.00  0.00    -0.025 C 
ATOM      7  C   UNL     1      33.240  12.069  13.109  0.00  0.00    +0.017 C 
ATOM      8  C   UNL     1      34.085  10.812  12.943  0.00  0.00    +0.069 C 
ATOM      9  S   UNL     1      34.527  10.501  11.212  0.00  0.00    -0.161 S 
ATOM     10  C   UNL     1      35.221  12.121  10.785  0.00  0.00    +0.069 C 
ATOM     11  C   UNL     1      34.264  13.258  11.126  0.00  0.00    +0.017 C 
ATOM     12  C   UNL     1      35.154  13.703  13.506  0.00  0.00    +0.026 C 
ATOM     13  C   UNL     1      35.746  15.083  13.218  0.00  0.00    +0.108 C 
ENDROOT
BRANCH   1  17
ATOM     14  C   UNL     1      32.197  20.444  13.992  0.00  0.00    +0.037 A 
ATOM     15  C   UNL     1      32.925  20.208  12.821  0.00  0.00    +0.014 A 
ATOM     16  C   UNL     1      33.951  19.263  12.823  0.00  0.00    +0.014 A 
ATOM     17  C   UNL     1      34.186  18.486  13.963  0.00  0.00    +0.037 A 
ATOM     18  C   UNL     1      33.519  18.785  15.158  0.00  0.00    +0.014 A 
ATOM     19  C   UNL     1      32.531  19.773  15.175  0.00  0.00    +0.014 A 
BRANCH  14  21
ATOM     20  N   UNL     1      30.397  21.555  15.190  0.00  0.00    -0.325 N 
ATOM     21  C   UNL     1      31.066  21.405  14.007  0.00  0.00    +0.242 C 
ATOM     22  O   UNL     1      30.777  22.072  13.025  0.00  0.00    -0.270 OA
ATOM     23  H   UNL     1      29.711  22.298  15.222  0.00  0.00    +0.145 HD
ATOM     24  H   UNL     1      30.772  21.226  16.069  0.00  0.00    +0.145 HD
ENDBRANCH  14  21
ENDBRANCH   1  17
TORSDOF 2
ENDMDL
MODEL 9
REMARK VINA RESULT:      -5.9     33.907     35.117
REMARK  Name = ZINC000870248439
REMARK  2 active torsions:
REMARK  status: ('A' for Active; 'I' for Inactive)
REMARK    1  A    between atoms: C_2  and  C_4
REMARK    2  A    between atoms: C_7  and  C_8
REMARK                            x       y       z     vdW  Elec       q    Type
REMARK                         _______ _______ _______ _____ _____    ______ ____
ROOT
ATOM      1  C   UNL     1      25.105  35.790  15.951  0.00  0.00    +0.247 C 
ATOM      2  O   UNL     1      24.355  36.365  16.738  0.00  0.00    -0.270 OA
ATOM      3  N   UNL     1      26.106  36.449  15.223  0.00  0.00    -0.297 N 
ATOM      4  C   UNL     1      27.002  35.822  14.248  0.00  0.00    +0.108 C 
ATOM      5  C   UNL     1      28.419  36.381  14.286  0.00  0.00    +0.026 C 
ATOM      6  C   UNL     1      28.478  37.923  14.235  0.00  0.00    -0.025 C 
ATOM      7  C   UNL     1      29.947  38.339  14.503  0.00  0.00    +0.017 C 
ATOM      8  C   UNL     1      30.210  39.838  14.456  0.00  0.00    +0.069 C 
ATOM      9  S   UNL     1      29.813  40.558  12.839  0.00  0.00    -0.161 S 
ATOM     10  C   UNL     1      28.124  39.929  12.639  0.00  0.00    +0.069 C 
ATOM     11  C   UNL     1      28.052  38.418  12.829  0.00  0.00    +0.017 C 
ATOM     12  C   UNL     1      27.550  38.452  15.359  0.00  0.00    +0.026 C 
ATOM     13  C   UNL     1      26.124  37.908  15.262  0.00  0.00    +0.108 C 
ENDROOT
BRANCH   1  17
ATOM     14  C   UNL     1      24.458  31.573  15.790  0.00  0.00    +0.037 A 
ATOM     15  C   UNL     1      25.555  32.070  16.501  0.00  0.00    +0.014 A 
ATOM     16  C   UNL     1      25.831  33.437  16.479  0.00  0.00    +0.014 A 
ATOM     17  C   UNL     1      24.959  34.318  15.830  0.00  0.00    +0.037 A 
ATOM     18  C   UNL     1      23.915  33.811  15.046  0.00  0.00    +0.014 A 
ATOM     19  C   UNL     1      23.671  32.436  15.017  0.00  0.00    +0.014 A 
BRANCH  14  21
ATOM     20  N   UNL     1      22.940  29.758  15.232  0.00  0.00    -0.325 N 
ATOM     21  C   UNL     1      24.107  30.131  15.837  0.00  0.00    +0.242 C 
ATOM     22  O   UNL     1      24.852  29.306  16.344  0.00  0.00    -0.270 OA
ATOM     23  H   UNL     1      22.772  28.762  15.163  0.00  0.00    +0.145 HD
ATOM     24  H   UNL     1      22.447  30.361  14.588  0.00  0.00    +0.145 HD
ENDBRANCH  14  21
ENDBRANCH   1  17
TORSDOF 2
ENDMDL
