MODEL 1
REMARK VINA RESULT:      -6.3      0.000      0.000
REMARK  Name = ZINC000435351830
REMARK  5 active torsions:
REMARK  status: ('A' for Active; 'I' for Inactive)
REMARK    1  A    between atoms: C_2  and  C_3
REMARK    2  A    between atoms: C_7  and  C_8
REMARK    3  A    between atoms: C_8  and  C_9
REMARK    4  A    between atoms: N_11  and  C_12
REMARK    5  A    between atoms: C_12  and  C_13
REMARK                            x       y       z     vdW  Elec       q    Type
REMARK                         _______ _______ _______ _____ _____    ______ ____
ROOT
ATOM      1  C   UNL     1      33.477  19.879  12.867  0.00  0.00    +0.224 C 
ATOM      2  O   UNL     1      34.643  19.750  13.223  0.00  0.00    -0.275 OA
ATOM      3  N   UNL     1      33.088  20.384  11.654  0.00  0.00    -0.309 N 
ATOM      4  H   UNL     1      32.107  20.428  11.418  0.00  0.00    +0.149 HD
ENDROOT
BRANCH   1   5
ATOM      5  C   UNL     1      32.345  19.533  13.800  0.00  0.00    +0.072 C 
ATOM      6  C   UNL     1      31.354  18.457  13.373  0.00  0.00    +0.022 C 
ATOM      7  C   UNL     1      32.363  18.133  14.425  0.00  0.00    +0.022 C 
BRANCH   5  12
ATOM      8  C   UNL     1      32.506  22.695  15.968  0.00  0.00    +0.052 A 
ATOM      9  C   UNL     1      31.291  22.651  16.652  0.00  0.00    +0.019 A 
ATOM     10  C   UNL     1      30.380  21.631  16.379  0.00  0.00    +0.002 A 
ATOM     11  C   UNL     1      30.691  20.640  15.443  0.00  0.00    +0.005 A 
ATOM     12  C   UNL     1      31.922  20.642  14.763  0.00  0.00    -0.031 A 
ATOM     13  C   UNL     1      32.804  21.708  15.024  0.00  0.00    +0.023 A 
BRANCH   8  15
ATOM     14  N   UNL     1      34.235  24.555  16.493  0.00  0.00    -0.191 NA
ATOM     15  C   UNL     1      33.463  23.722  16.249  0.00  0.00    +0.099 C 
ENDBRANCH   8  15
ENDBRANCH   5  12
ENDBRANCH   1   5
BRANCH   3  16
ATOM     16  C   UNL     1      34.049  20.904  10.705  0.00  0.00    +0.159 C 
BRANCH  16  17
ATOM     17  C   UNL     1      33.444  21.871   9.712  0.00  0.00    +0.058 A 
ATOM     18  C   UNL     1      33.152  23.183  10.097  0.00  0.00    +0.028 A 
ATOM     19  C   UNL     1      32.571  24.048   9.171  0.00  0.00    +0.042 A 
ATOM     20  C   UNL     1      32.308  23.580   7.896  0.00  0.00    +0.141 A 
ATOM     21  F   UNL     1      31.744  24.382   6.983  0.00  0.00    -0.204 F 
ATOM     22  C   UNL     1      32.634  22.274   7.582  0.00  0.00    +0.149 A 
ATOM     23  N   UNL     1      33.202  21.408   8.457  0.00  0.00    -0.255 NA
ENDBRANCH  16  17
ENDBRANCH   3  16
TORSDOF 5
ENDMDL
MODEL 2
REMARK VINA RESULT:      -6.2      1.933      3.526
REMARK  Name = ZINC000435351830
REMARK  5 active torsions:
REMARK  status: ('A' for Active; 'I' for Inactive)
REMARK    1  A    between atoms: C_2  and  C_3
REMARK    2  A    between atoms: C_7  and  C_8
REMARK    3  A    between atoms: C_8  and  C_9
REMARK    4  A    between atoms: N_11  and  C_12
REMARK    5  A    between atoms: C_12  and  C_13
REMARK                            x       y       z     vdW  Elec       q    Type
REMARK                         _______ _______ _______ _____ _____    ______ ____
ROOT
ATOM      1  C   UNL     1      32.987  21.333  13.188  0.00  0.00    +0.224 C 
ATOM      2  O   UNL     1      33.451  22.369  13.650  0.00  0.00    -0.275 OA
ATOM      3  N   UNL     1      33.358  20.783  11.989  0.00  0.00    -0.309 N 
ATOM      4  H   UNL     1      32.955  19.906  11.692  0.00  0.00    +0.149 HD
ENDROOT
BRANCH   1   5
ATOM      5  C   UNL     1      31.890  20.593  13.911  0.00  0.00    +0.072 C 
ATOM      6  C   UNL     1      30.941  21.388  14.800  0.00  0.00    +0.022 C 
ATOM      7  C   UNL     1      30.450  20.893  13.480  0.00  0.00    +0.022 C 
BRANCH   5  12
ATOM      8  C   UNL     1      33.616  17.419  15.202  0.00  0.00    +0.052 A 
ATOM      9  C   UNL     1      32.846  16.406  14.630  0.00  0.00    +0.019 A 
ATOM     10  C   UNL     1      31.725  16.735  13.868  0.00  0.00    +0.002 A 
ATOM     11  C   UNL     1      31.388  18.075  13.654  0.00  0.00    +0.005 A 
ATOM     12  C   UNL     1      32.165  19.116  14.192  0.00  0.00    -0.031 A 
ATOM     13  C   UNL     1      33.265  18.756  14.994  0.00  0.00    +0.023 A 
BRANCH   8  15
ATOM     14  N   UNL     1      35.721  16.832  16.600  0.00  0.00    -0.191 NA
ATOM     15  C   UNL     1      34.782  17.101  15.970  0.00  0.00    +0.099 C 
ENDBRANCH   8  15
ENDBRANCH   5  12
ENDBRANCH   1   5
BRANCH   3  16
ATOM     16  C   UNL     1      34.287  21.451  11.104  0.00  0.00    +0.159 C 
BRANCH  16  17
ATOM     17  C   UNL     1      33.606  22.223   9.995  0.00  0.00    +0.058 A 
ATOM     18  C   UNL     1      33.136  23.518  10.226  0.00  0.00    +0.028 A 
ATOM     19  C   UNL     1      32.489  24.200   9.197  0.00  0.00    +0.042 A 
ATOM     20  C   UNL     1      32.338  23.570   7.974  0.00  0.00    +0.141 A 
ATOM     21  F   UNL     1      31.715  24.192   6.964  0.00  0.00    -0.204 F 
ATOM     22  C   UNL     1      32.839  22.291   7.813  0.00  0.00    +0.149 A 
ATOM     23  N   UNL     1      33.475  21.603   8.792  0.00  0.00    -0.255 NA
ENDBRANCH  16  17
ENDBRANCH   3  16
TORSDOF 5
ENDMDL
MODEL 3
REMARK VINA RESULT:      -6.2      2.065      4.382
REMARK  Name = ZINC000435351830
REMARK  5 active torsions:
REMARK  status: ('A' for Active; 'I' for Inactive)
REMARK    1  A    between atoms: C_2  and  C_3
REMARK    2  A    between atoms: C_7  and  C_8
REMARK    3  A    between atoms: C_8  and  C_9
REMARK    4  A    between atoms: N_11  and  C_12
REMARK    5  A    between atoms: C_12  and  C_13
REMARK                            x       y       z     vdW  Elec       q    Type
REMARK                         _______ _______ _______ _____ _____    ______ ____
ROOT
ATOM      1  C   UNL     1      32.848  21.214  13.235  0.00  0.00    +0.224 C 
ATOM      2  O   UNL     1      33.035  22.268  13.834  0.00  0.00    -0.275 OA
ATOM      3  N   UNL     1      33.441  20.882  12.046  0.00  0.00    -0.309 N 
ATOM      4  H   UNL     1      33.264  19.979  11.630  0.00  0.00    +0.149 HD
ENDROOT
BRANCH   1   5
ATOM      5  C   UNL     1      31.868  20.196  13.760  0.00  0.00    +0.072 C 
ATOM      6  C   UNL     1      30.730  20.676  14.654  0.00  0.00    +0.022 C 
ATOM      7  C   UNL     1      30.427  20.290  13.243  0.00  0.00    +0.022 C 
BRANCH   5  12
ATOM      8  C   UNL     1      32.384  16.462  13.047  0.00  0.00    +0.052 A 
ATOM      9  C   UNL     1      33.202  16.066  14.106  0.00  0.00    +0.019 A 
ATOM     10  C   UNL     1      33.644  17.012  15.031  0.00  0.00    +0.002 A 
ATOM     11  C   UNL     1      33.249  18.348  14.914  0.00  0.00    +0.005 A 
ATOM     12  C   UNL     1      32.399  18.768  13.876  0.00  0.00    -0.031 A 
ATOM     13  C   UNL     1      32.004  17.802  12.931  0.00  0.00    +0.023 A 
BRANCH   8  15
ATOM     14  N   UNL     1      31.511  14.712  11.344  0.00  0.00    -0.191 NA
ATOM     15  C   UNL     1      31.903  15.502  12.101  0.00  0.00    +0.099 C 
ENDBRANCH   8  15
ENDBRANCH   5  12
ENDBRANCH   1   5
BRANCH   3  16
ATOM     16  C   UNL     1      34.290  21.814  11.335  0.00  0.00    +0.159 C 
BRANCH  16  17
ATOM     17  C   UNL     1      33.603  22.468  10.158  0.00  0.00    +0.058 A 
ATOM     18  C   UNL     1      32.988  23.715  10.305  0.00  0.00    +0.028 A 
ATOM     19  C   UNL     1      32.339  24.286   9.212  0.00  0.00    +0.042 A 
ATOM     20  C   UNL     1      32.329  23.600   8.010  0.00  0.00    +0.141 A 
ATOM     21  F   UNL     1      31.709  24.115   6.941  0.00  0.00    -0.204 F 
ATOM     22  C   UNL     1      32.968  22.376   7.934  0.00  0.00    +0.149 A 
ATOM     23  N   UNL     1      33.610  21.794   8.976  0.00  0.00    -0.255 NA
ENDBRANCH  16  17
ENDBRANCH   3  16
TORSDOF 5
ENDMDL
MODEL 4
REMARK VINA RESULT:      -6.0      4.201      7.397
REMARK  Name = ZINC000435351830
REMARK  5 active torsions:
REMARK  status: ('A' for Active; 'I' for Inactive)
REMARK    1  A    between atoms: C_2  and  C_3
REMARK    2  A    between atoms: C_7  and  C_8
REMARK    3  A    between atoms: C_8  and  C_9
REMARK    4  A    between atoms: N_11  and  C_12
REMARK    5  A    between atoms: C_12  and  C_13
REMARK                            x       y       z     vdW  Elec       q    Type
REMARK                         _______ _______ _______ _____ _____    ______ ____
ROOT
ATOM      1  C   UNL     1      32.244  18.705  13.091  0.00  0.00    +0.224 C 
ATOM      2  O   UNL     1      32.900  19.430  12.352  0.00  0.00    -0.275 OA
ATOM      3  N   UNL     1      31.099  19.089  13.739  0.00  0.00    -0.309 N 
ATOM      4  H   UNL     1      30.594  18.422  14.305  0.00  0.00    +0.149 HD
ENDROOT
BRANCH   1   5
ATOM      5  C   UNL     1      32.704  17.302  13.398  0.00  0.00    +0.072 C 
ATOM      6  C   UNL     1      34.024  17.116  14.138  0.00  0.00    +0.022 C 
ATOM      7  C   UNL     1      32.745  16.892  14.875  0.00  0.00    +0.022 C 
BRANCH   5  12
ATOM      8  C   UNL     1      32.653  14.527  10.749  0.00  0.00    +0.052 A 
ATOM      9  C   UNL     1      31.286  14.301  10.580  0.00  0.00    +0.019 A 
ATOM     10  C   UNL     1      30.367  15.000  11.362  0.00  0.00    +0.002 A 
ATOM     11  C   UNL     1      30.809  15.945  12.293  0.00  0.00    +0.005 A 
ATOM     12  C   UNL     1      32.178  16.216  12.460  0.00  0.00    -0.031 A 
ATOM     13  C   UNL     1      33.086  15.465  11.691  0.00  0.00    +0.023 A 
BRANCH   8  15
ATOM     14  N   UNL     1      34.384  13.259   9.293  0.00  0.00    -0.191 NA
ATOM     15  C   UNL     1      33.610  13.835   9.942  0.00  0.00    +0.099 C 
ENDBRANCH   8  15
ENDBRANCH   5  12
ENDBRANCH   1   5
BRANCH   3  16
ATOM     16  C   UNL     1      30.609  20.448  13.671  0.00  0.00    +0.159 C 
BRANCH  16  17
ATOM     17  C   UNL     1      31.060  21.304  14.833  0.00  0.00    +0.058 A 
ATOM     18  C   UNL     1      30.335  21.306  16.028  0.00  0.00    +0.028 A 
ATOM     19  C   UNL     1      30.756  22.123  17.076  0.00  0.00    +0.042 A 
ATOM     20  C   UNL     1      31.885  22.904  16.900  0.00  0.00    +0.141 A 
ATOM     21  F   UNL     1      32.315  23.706  17.883  0.00  0.00    -0.204 F 
ATOM     22  C   UNL     1      32.560  22.842  15.694  0.00  0.00    +0.149 A 
ATOM     23  N   UNL     1      32.179  22.057  14.657  0.00  0.00    -0.255 NA
ENDBRANCH  16  17
ENDBRANCH   3  16
TORSDOF 5
ENDMDL
MODEL 5
REMARK VINA RESULT:      -6.0      4.476      6.759
REMARK  Name = ZINC000435351830
REMARK  5 active torsions:
REMARK  status: ('A' for Active; 'I' for Inactive)
REMARK    1  A    between atoms: C_2  and  C_3
REMARK    2  A    between atoms: C_7  and  C_8
REMARK    3  A    between atoms: C_8  and  C_9
REMARK    4  A    between atoms: N_11  and  C_12
REMARK    5  A    between atoms: C_12  and  C_13
REMARK                            x       y       z     vdW  Elec       q    Type
REMARK                         _______ _______ _______ _____ _____    ______ ____
ROOT
ATOM      1  C   UNL     1      32.733  21.637  14.248  0.00  0.00    +0.224 C 
ATOM      2  O   UNL     1      33.361  21.668  13.196  0.00  0.00    -0.275 OA
ATOM      3  N   UNL     1      32.993  22.434  15.332  0.00  0.00    -0.309 N 
ATOM      4  H   UNL     1      32.408  22.374  16.152  0.00  0.00    +0.149 HD
ENDROOT
BRANCH   1   5
ATOM      5  C   UNL     1      31.623  20.637  14.450  0.00  0.00    +0.072 C 
ATOM      6  C   UNL     1      30.318  21.116  15.075  0.00  0.00    +0.022 C 
ATOM      7  C   UNL     1      30.354  20.829  13.611  0.00  0.00    +0.022 C 
BRANCH   5  12
ATOM      8  C   UNL     1      33.858  17.584  15.085  0.00  0.00    +0.052 A 
ATOM      9  C   UNL     1      33.022  16.524  14.731  0.00  0.00    +0.019 A 
ATOM     10  C   UNL     1      31.708  16.778  14.338  0.00  0.00    +0.002 A 
ATOM     11  C   UNL     1      31.236  18.092  14.274  0.00  0.00    +0.005 A 
ATOM     12  C   UNL     1      32.065  19.181  14.593  0.00  0.00    -0.031 A 
ATOM     13  C   UNL     1      33.373  18.893  15.029  0.00  0.00    +0.023 A 
BRANCH   8  15
ATOM     14  N   UNL     1      36.319  17.163  15.785  0.00  0.00    -0.191 NA
ATOM     15  C   UNL     1      35.215  17.343  15.470  0.00  0.00    +0.099 C 
ENDBRANCH   8  15
ENDBRANCH   5  12
ENDBRANCH   1   5
BRANCH   3  16
ATOM     16  C   UNL     1      34.122  23.339  15.354  0.00  0.00    +0.159 C 
BRANCH  16  17
ATOM     17  C   UNL     1      34.097  24.295  16.525  0.00  0.00    +0.058 A 
ATOM     18  C   UNL     1      33.112  24.177  17.509  0.00  0.00    +0.028 A 
ATOM     19  C   UNL     1      33.095  25.086  18.566  0.00  0.00    +0.042 A 
ATOM     20  C   UNL     1      34.061  26.076  18.608  0.00  0.00    +0.141 A 
ATOM     21  F   UNL     1      34.071  26.971  19.605  0.00  0.00    -0.204 F 
ATOM     22  C   UNL     1      35.013  26.126  17.606  0.00  0.00    +0.149 A 
ATOM     23  N   UNL     1      35.059  25.256  16.568  0.00  0.00    -0.255 NA
ENDBRANCH  16  17
ENDBRANCH   3  16
TORSDOF 5
ENDMDL
MODEL 6
REMARK VINA RESULT:      -5.9      1.672      2.018
REMARK  Name = ZINC000435351830
REMARK  5 active torsions:
REMARK  status: ('A' for Active; 'I' for Inactive)
REMARK    1  A    between atoms: C_2  and  C_3
REMARK    2  A    between atoms: C_7  and  C_8
REMARK    3  A    between atoms: C_8  and  C_9
REMARK    4  A    between atoms: N_11  and  C_12
REMARK    5  A    between atoms: C_12  and  C_13
REMARK                            x       y       z     vdW  Elec       q    Type
REMARK                         _______ _______ _______ _____ _____    ______ ____
ROOT
ATOM      1  C   UNL     1      33.085  20.466  12.923  0.00  0.00    +0.224 C 
ATOM      2  O   UNL     1      34.195  20.209  13.375  0.00  0.00    -0.275 OA
ATOM      3  N   UNL     1      32.857  20.994  11.679  0.00  0.00    -0.309 N 
ATOM      4  H   UNL     1      31.909  21.146  11.363  0.00  0.00    +0.149 HD
ENDROOT
BRANCH   1   5
ATOM      5  C   UNL     1      31.848  20.266  13.762  0.00  0.00    +0.072 C 
ATOM      6  C   UNL     1      30.628  19.621  13.115  0.00  0.00    +0.022 C 
ATOM      7  C   UNL     1      31.447  18.819  14.072  0.00  0.00    +0.022 C 
BRANCH   5  12
ATOM      8  C   UNL     1      32.594  23.085  16.254  0.00  0.00    +0.052 A 
ATOM      9  C   UNL     1      31.561  22.945  17.181  0.00  0.00    +0.019 A 
ATOM     10  C   UNL     1      30.578  21.976  16.982  0.00  0.00    +0.002 A 
ATOM     11  C   UNL     1      30.640  21.129  15.872  0.00  0.00    +0.005 A 
ATOM     12  C   UNL     1      31.687  21.226  14.939  0.00  0.00    -0.031 A 
ATOM     13  C   UNL     1      32.641  22.242  15.140  0.00  0.00    +0.023 A 
BRANCH   8  15
ATOM     14  N   UNL     1      34.461  24.851  16.599  0.00  0.00    -0.191 NA
ATOM     15  C   UNL     1      33.623  24.060  16.453  0.00  0.00    +0.099 C 
ENDBRANCH   8  15
ENDBRANCH   5  12
ENDBRANCH   1   5
BRANCH   3  16
ATOM     16  C   UNL     1      33.945  21.386  10.810  0.00  0.00    +0.159 C 
BRANCH  16  17
ATOM     17  C   UNL     1      34.039  22.882  10.609  0.00  0.00    +0.058 A 
ATOM     18  C   UNL     1      33.135  23.536   9.768  0.00  0.00    +0.028 A 
ATOM     19  C   UNL     1      33.258  24.912   9.577  0.00  0.00    +0.042 A 
ATOM     20  C   UNL     1      34.272  25.587  10.235  0.00  0.00    +0.141 A 
ATOM     21  F   UNL     1      34.424  26.907  10.070  0.00  0.00    -0.204 F 
ATOM     22  C   UNL     1      35.122  24.876  11.062  0.00  0.00    +0.149 A 
ATOM     23  N   UNL     1      35.028  23.540  11.270  0.00  0.00    -0.255 NA
ENDBRANCH  16  17
ENDBRANCH   3  16
TORSDOF 5
ENDMDL
MODEL 7
REMARK VINA RESULT:      -5.9      3.974      6.972
REMARK  Name = ZINC000435351830
REMARK  5 active torsions:
REMARK  status: ('A' for Active; 'I' for Inactive)
REMARK    1  A    between atoms: C_2  and  C_3
REMARK    2  A    between atoms: C_7  and  C_8
REMARK    3  A    between atoms: C_8  and  C_9
REMARK    4  A    between atoms: N_11  and  C_12
REMARK    5  A    between atoms: C_12  and  C_13
REMARK                            x       y       z     vdW  Elec       q    Type
REMARK                         _______ _______ _______ _____ _____    ______ ____
ROOT
ATOM      1  C   UNL     1      33.597  22.420  10.626  0.00  0.00    +0.224 C 
ATOM      2  O   UNL     1      34.124  21.457  10.080  0.00  0.00    -0.275 OA
ATOM      3  N   UNL     1      32.870  22.353  11.785  0.00  0.00    -0.309 N 
ATOM      4  H   UNL     1      32.495  23.198  12.193  0.00  0.00    +0.149 HD
ENDROOT
BRANCH   1   5
ATOM      5  C   UNL     1      33.667  23.790  10.001  0.00  0.00    +0.072 C 
ATOM      6  C   UNL     1      33.255  23.944   8.541  0.00  0.00    +0.022 C 
ATOM      7  C   UNL     1      32.335  24.442   9.608  0.00  0.00    +0.022 C 
BRANCH   5  12
ATOM      8  C   UNL     1      35.815  26.919  10.558  0.00  0.00    +0.052 A 
ATOM      9  C   UNL     1      36.626  26.538  11.628  0.00  0.00    +0.019 A 
ATOM     10  C   UNL     1      36.450  25.287  12.219  0.00  0.00    +0.002 A 
ATOM     11  C   UNL     1      35.482  24.406  11.727  0.00  0.00    +0.005 A 
ATOM     12  C   UNL     1      34.673  24.752  10.631  0.00  0.00    -0.031 A 
ATOM     13  C   UNL     1      34.841  26.037  10.081  0.00  0.00    +0.023 A 
BRANCH   8  15
ATOM     14  N   UNL     1      36.138  29.216   9.398  0.00  0.00    -0.191 NA
ATOM     15  C   UNL     1      35.995  28.190   9.925  0.00  0.00    +0.099 C 
ENDBRANCH   8  15
ENDBRANCH   5  12
ENDBRANCH   1   5
BRANCH   3  16
ATOM     16  C   UNL     1      32.581  21.089  12.428  0.00  0.00    +0.159 C 
BRANCH  16  17
ATOM     17  C   UNL     1      31.912  21.244  13.775  0.00  0.00    +0.058 A 
ATOM     18  C   UNL     1      30.840  20.420  14.127  0.00  0.00    +0.028 A 
ATOM     19  C   UNL     1      30.223  20.598  15.364  0.00  0.00    +0.042 A 
ATOM     20  C   UNL     1      30.698  21.587  16.208  0.00  0.00    +0.141 A 
ATOM     21  F   UNL     1      30.125  21.791  17.402  0.00  0.00    -0.204 F 
ATOM     22  C   UNL     1      31.771  22.357  15.800  0.00  0.00    +0.149 A 
ATOM     23  N   UNL     1      32.395  22.207  14.606  0.00  0.00    -0.255 NA
ENDBRANCH  16  17
ENDBRANCH   3  16
TORSDOF 5
ENDMDL
MODEL 8
REMARK VINA RESULT:      -5.9      2.541      4.715
REMARK  Name = ZINC000435351830
REMARK  5 active torsions:
REMARK  status: ('A' for Active; 'I' for Inactive)
REMARK    1  A    between atoms: C_2  and  C_3
REMARK    2  A    between atoms: C_7  and  C_8
REMARK    3  A    between atoms: C_8  and  C_9
REMARK    4  A    between atoms: N_11  and  C_12
REMARK    5  A    between atoms: C_12  and  C_13
REMARK                            x       y       z     vdW  Elec       q    Type
REMARK                         _______ _______ _______ _____ _____    ______ ____
ROOT
ATOM      1  C   UNL     1      31.653  21.738  13.388  0.00  0.00    +0.224 C 
ATOM      2  O   UNL     1      30.696  22.362  12.945  0.00  0.00    -0.275 OA
ATOM      3  N   UNL     1      32.910  21.753  12.840  0.00  0.00    -0.309 N 
ATOM      4  H   UNL     1      33.657  21.238  13.284  0.00  0.00    +0.149 HD
ENDROOT
BRANCH   1   5
ATOM      5  C   UNL     1      31.493  20.826  14.578  0.00  0.00    +0.072 C 
ATOM      6  C   UNL     1      31.307  21.455  15.954  0.00  0.00    +0.022 C 
ATOM      7  C   UNL     1      30.128  20.834  15.279  0.00  0.00    +0.022 C 
BRANCH   5  12
ATOM      8  C   UNL     1      31.972  17.172  13.513  0.00  0.00    +0.052 A 
ATOM      9  C   UNL     1      33.104  16.796  14.236  0.00  0.00    +0.019 A 
ATOM     10  C   UNL     1      33.761  17.735  15.031  0.00  0.00    +0.002 A 
ATOM     11  C   UNL     1      33.273  19.041  15.126  0.00  0.00    +0.005 A 
ATOM     12  C   UNL     1      32.115  19.439  14.434  0.00  0.00    -0.031 A 
ATOM     13  C   UNL     1      31.498  18.484  13.604  0.00  0.00    +0.023 A 
BRANCH   8  15
ATOM     14  N   UNL     1      30.695  15.453  12.049  0.00  0.00    -0.191 NA
ATOM     15  C   UNL     1      31.272  16.218  12.708  0.00  0.00    +0.099 C 
ENDBRANCH   8  15
ENDBRANCH   5  12
ENDBRANCH   1   5
BRANCH   3  16
ATOM     16  C   UNL     1      33.192  22.456  11.608  0.00  0.00    +0.159 C 
BRANCH  16  17
ATOM     17  C   UNL     1      33.644  21.544  10.490  0.00  0.00    +0.058 A 
ATOM     18  C   UNL     1      33.651  20.158  10.672  0.00  0.00    +0.028 A 
ATOM     19  C   UNL     1      34.097  19.339   9.636  0.00  0.00    +0.042 A 
ATOM     20  C   UNL     1      34.513  19.928   8.454  0.00  0.00    +0.141 A 
ATOM     21  F   UNL     1      34.954  19.173   7.440  0.00  0.00    -0.204 F 
ATOM     22  C   UNL     1      34.467  21.305   8.340  0.00  0.00    +0.149 A 
ATOM     23  N   UNL     1      34.037  22.129   9.327  0.00  0.00    -0.255 NA
ENDBRANCH  16  17
ENDBRANCH   3  16
TORSDOF 5
ENDMDL
MODEL 9
REMARK VINA RESULT:      -5.9      4.452      7.106
REMARK  Name = ZINC000435351830
REMARK  5 active torsions:
REMARK  status: ('A' for Active; 'I' for Inactive)
REMARK    1  A    between atoms: C_2  and  C_3
REMARK    2  A    between atoms: C_7  and  C_8
REMARK    3  A    between atoms: C_8  and  C_9
REMARK    4  A    between atoms: N_11  and  C_12
REMARK    5  A    between atoms: C_12  and  C_13
REMARK                            x       y       z     vdW  Elec       q    Type
REMARK                         _______ _______ _______ _____ _____    ______ ____
ROOT
ATOM      1  C   UNL     1      32.624  21.543  14.207  0.00  0.00    +0.224 C 
ATOM      2  O   UNL     1      32.989  21.862  13.080  0.00  0.00    -0.275 OA
ATOM      3  N   UNL     1      33.123  22.080  15.365  0.00  0.00    -0.309 N 
ATOM      4  H   UNL     1      32.746  21.790  16.256  0.00  0.00    +0.149 HD
ENDROOT
BRANCH   1   5
ATOM      5  C   UNL     1      31.604  20.451  14.403  0.00  0.00    +0.072 C 
ATOM      6  C   UNL     1      30.374  20.750  15.253  0.00  0.00    +0.022 C 
ATOM      7  C   UNL     1      30.224  20.668  13.769  0.00  0.00    +0.022 C 
BRANCH   5  12
ATOM      8  C   UNL     1      31.870  16.776  13.336  0.00  0.00    +0.052 A 
ATOM      9  C   UNL     1      32.943  16.319  14.102  0.00  0.00    +0.019 A 
ATOM     10  C   UNL     1      33.630  17.207  14.930  0.00  0.00    +0.002 A 
ATOM     11  C   UNL     1      33.231  18.544  15.013  0.00  0.00    +0.005 A 
ATOM     12  C   UNL     1      32.134  19.023  14.276  0.00  0.00    -0.031 A 
ATOM     13  C   UNL     1      31.486  18.117  13.415  0.00  0.00    +0.023 A 
BRANCH   8  15
ATOM     14  N   UNL     1      30.535  15.145  11.825  0.00  0.00    -0.191 NA
ATOM     15  C   UNL     1      31.140  15.875  12.497  0.00  0.00    +0.099 C 
ENDBRANCH   8  15
ENDBRANCH   5  12
ENDBRANCH   1   5
BRANCH   3  16
ATOM     16  C   UNL     1      34.215  23.029  15.353  0.00  0.00    +0.159 C 
BRANCH  16  17
ATOM     17  C   UNL     1      34.114  24.069  16.446  0.00  0.00    +0.058 A 
ATOM     18  C   UNL     1      34.992  25.155  16.467  0.00  0.00    +0.028 A 
ATOM     19  C   UNL     1      34.897  26.087  17.499  0.00  0.00    +0.042 A 
ATOM     20  C   UNL     1      33.927  25.907  18.470  0.00  0.00    +0.141 A 
ATOM     21  F   UNL     1      33.810  26.778  19.481  0.00  0.00    -0.204 F 
ATOM     22  C   UNL     1      33.083  24.814  18.380  0.00  0.00    +0.149 A 
ATOM     23  N   UNL     1      33.148  23.893  17.388  0.00  0.00    -0.255 NA
ENDBRANCH  16  17
ENDBRANCH   3  16
TORSDOF 5
ENDMDL
