MODEL 1
REMARK VINA RESULT:      -6.7      0.000      0.000
REMARK  Name = ZINC000435351830
REMARK  5 active torsions:
REMARK  status: ('A' for Active; 'I' for Inactive)
REMARK    1  A    between atoms: C_2  and  C_3
REMARK    2  A    between atoms: C_7  and  C_8
REMARK    3  A    between atoms: C_8  and  C_9
REMARK    4  A    between atoms: N_11  and  C_12
REMARK    5  A    between atoms: C_12  and  C_13
REMARK                            x       y       z     vdW  Elec       q    Type
REMARK                         _______ _______ _______ _____ _____    ______ ____
ROOT
ATOM      1  C   UNL     1      33.148  21.362  14.001  0.00  0.00    +0.224 C 
ATOM      2  O   UNL     1      33.297  22.433  14.579  0.00  0.00    -0.275 OA
ATOM      3  N   UNL     1      33.768  21.020  12.828  0.00  0.00    -0.309 N 
ATOM      4  H   UNL     1      33.621  20.103  12.430  0.00  0.00    +0.149 HD
ENDROOT
BRANCH   1   5
ATOM      5  C   UNL     1      32.186  20.330  14.532  0.00  0.00    +0.072 C 
ATOM      6  C   UNL     1      31.016  20.799  15.389  0.00  0.00    +0.022 C 
ATOM      7  C   UNL     1      30.754  20.367  13.984  0.00  0.00    +0.022 C 
BRANCH   5  12
ATOM      8  C   UNL     1      32.784  16.582  13.970  0.00  0.00    +0.052 A 
ATOM      9  C   UNL     1      33.632  16.253  15.028  0.00  0.00    +0.019 A 
ATOM     10  C   UNL     1      34.067  17.248  15.902  0.00  0.00    +0.002 A 
ATOM     11  C   UNL     1      33.636  18.568  15.737  0.00  0.00    +0.005 A 
ATOM     12  C   UNL     1      32.756  18.922  14.699  0.00  0.00    -0.031 A 
ATOM     13  C   UNL     1      32.368  17.906  13.805  0.00  0.00    +0.023 A 
BRANCH   8  15
ATOM     14  N   UNL     1      31.913  14.758  12.345  0.00  0.00    -0.191 NA
ATOM     15  C   UNL     1      32.310  15.570  13.076  0.00  0.00    +0.099 C 
ENDBRANCH   8  15
ENDBRANCH   5  12
ENDBRANCH   1   5
BRANCH   3  16
ATOM     16  C   UNL     1      34.603  21.958  12.110  0.00  0.00    +0.159 C 
BRANCH  16  17
ATOM     17  C   UNL     1      33.935  22.533  10.881  0.00  0.00    +0.058 A 
ATOM     18  C   UNL     1      33.031  23.592  11.003  0.00  0.00    +0.028 A 
ATOM     19  C   UNL     1      32.408  24.088   9.858  0.00  0.00    +0.042 A 
ATOM     20  C   UNL     1      32.710  23.516   8.635  0.00  0.00    +0.141 A 
ATOM     21  F   UNL     1      32.125  23.963   7.516  0.00  0.00    -0.204 F 
ATOM     22  C   UNL     1      33.624  22.479   8.588  0.00  0.00    +0.149 A 
ATOM     23  N   UNL     1      34.249  21.976   9.681  0.00  0.00    -0.255 NA
ENDBRANCH  16  17
ENDBRANCH   3  16
TORSDOF 5
ENDMDL
MODEL 2
REMARK VINA RESULT:      -6.5      1.829      2.307
REMARK  Name = ZINC000435351830
REMARK  5 active torsions:
REMARK  status: ('A' for Active; 'I' for Inactive)
REMARK    1  A    between atoms: C_2  and  C_3
REMARK    2  A    between atoms: C_7  and  C_8
REMARK    3  A    between atoms: C_8  and  C_9
REMARK    4  A    between atoms: N_11  and  C_12
REMARK    5  A    between atoms: C_12  and  C_13
REMARK                            x       y       z     vdW  Elec       q    Type
REMARK                         _______ _______ _______ _____ _____    ______ ____
ROOT
ATOM      1  C   UNL     1      31.356  21.643  13.866  0.00  0.00    +0.224 C 
ATOM      2  O   UNL     1      30.878  20.978  12.954  0.00  0.00    -0.275 OA
ATOM      3  N   UNL     1      31.776  22.941  13.743  0.00  0.00    -0.309 N 
ATOM      4  H   UNL     1      32.126  23.435  14.552  0.00  0.00    +0.149 HD
ENDROOT
BRANCH   1   5
ATOM      5  C   UNL     1      31.578  21.032  15.227  0.00  0.00    +0.072 C 
ATOM      6  C   UNL     1      31.458  21.928  16.454  0.00  0.00    +0.022 C 
ATOM      7  C   UNL     1      30.363  20.956  16.160  0.00  0.00    +0.022 C 
BRANCH   5  12
ATOM      8  C   UNL     1      32.878  17.500  14.484  0.00  0.00    +0.052 A 
ATOM      9  C   UNL     1      33.959  17.390  15.358  0.00  0.00    +0.019 A 
ATOM     10  C   UNL     1      34.318  18.475  16.157  0.00  0.00    +0.002 A 
ATOM     11  C   UNL     1      33.581  19.662  16.103  0.00  0.00    +0.005 A 
ATOM     12  C   UNL     1      32.467  19.790  15.254  0.00  0.00    -0.031 A 
ATOM     13  C   UNL     1      32.155  18.695  14.427  0.00  0.00    +0.023 A 
BRANCH   8  15
ATOM     14  N   UNL     1      32.171  15.492  13.002  0.00  0.00    -0.191 NA
ATOM     15  C   UNL     1      32.482  16.389  13.672  0.00  0.00    +0.099 C 
ENDBRANCH   8  15
ENDBRANCH   5  12
ENDBRANCH   1   5
BRANCH   3  16
ATOM     16  C   UNL     1      31.772  23.622  12.467  0.00  0.00    +0.159 C 
BRANCH  16  17
ATOM     17  C   UNL     1      33.069  23.468  11.705  0.00  0.00    +0.058 A 
ATOM     18  C   UNL     1      33.109  23.706  10.329  0.00  0.00    +0.028 A 
ATOM     19  C   UNL     1      34.310  23.532   9.643  0.00  0.00    +0.042 A 
ATOM     20  C   UNL     1      35.430  23.133  10.353  0.00  0.00    +0.141 A 
ATOM     21  F   UNL     1      36.599  22.950   9.726  0.00  0.00    -0.204 F 
ATOM     22  C   UNL     1      35.320  22.928  11.716  0.00  0.00    +0.149 A 
ATOM     23  N   UNL     1      34.168  23.091  12.412  0.00  0.00    -0.255 NA
ENDBRANCH  16  17
ENDBRANCH   3  16
TORSDOF 5
ENDMDL
MODEL 3
REMARK VINA RESULT:      -6.2      2.113      2.532
REMARK  Name = ZINC000435351830
REMARK  5 active torsions:
REMARK  status: ('A' for Active; 'I' for Inactive)
REMARK    1  A    between atoms: C_2  and  C_3
REMARK    2  A    between atoms: C_7  and  C_8
REMARK    3  A    between atoms: C_8  and  C_9
REMARK    4  A    between atoms: N_11  and  C_12
REMARK    5  A    between atoms: C_12  and  C_13
REMARK                            x       y       z     vdW  Elec       q    Type
REMARK                         _______ _______ _______ _____ _____    ______ ____
ROOT
ATOM      1  C   UNL     1      32.051  21.368  13.617  0.00  0.00    +0.224 C 
ATOM      2  O   UNL     1      31.017  21.548  12.984  0.00  0.00    -0.275 OA
ATOM      3  N   UNL     1      33.307  21.664  13.155  0.00  0.00    -0.309 N 
ATOM      4  H   UNL     1      34.109  21.519  13.751  0.00  0.00    +0.149 HD
ENDROOT
BRANCH   1   5
ATOM      5  C   UNL     1      32.015  20.726  14.981  0.00  0.00    +0.072 C 
ATOM      6  C   UNL     1      31.856  21.625  16.203  0.00  0.00    +0.022 C 
ATOM      7  C   UNL     1      30.691  20.808  15.751  0.00  0.00    +0.022 C 
BRANCH   5  12
ATOM      8  C   UNL     1      32.898  17.044  14.364  0.00  0.00    +0.052 A 
ATOM      9  C   UNL     1      33.864  16.801  15.341  0.00  0.00    +0.019 A 
ATOM     10  C   UNL     1      34.284  17.839  16.174  0.00  0.00    +0.002 A 
ATOM     11  C   UNL     1      33.721  19.112  16.049  0.00  0.00    +0.005 A 
ATOM     12  C   UNL     1      32.723  19.377  15.095  0.00  0.00    -0.031 A 
ATOM     13  C   UNL     1      32.350  18.324  14.238  0.00  0.00    +0.023 A 
BRANCH   8  15
ATOM     14  N   UNL     1      32.055  15.138  12.822  0.00  0.00    -0.191 NA
ATOM     15  C   UNL     1      32.439  15.987  13.516  0.00  0.00    +0.099 C 
ENDBRANCH   8  15
ENDBRANCH   5  12
ENDBRANCH   1   5
BRANCH   3  16
ATOM     16  C   UNL     1      33.525  22.142  11.807  0.00  0.00    +0.159 C 
BRANCH  16  17
ATOM     17  C   UNL     1      33.831  21.036  10.823  0.00  0.00    +0.058 A 
ATOM     18  C   UNL     1      34.046  19.732  11.275  0.00  0.00    +0.028 A 
ATOM     19  C   UNL     1      34.352  18.734  10.351  0.00  0.00    +0.042 A 
ATOM     20  C   UNL     1      34.428  19.069   9.010  0.00  0.00    +0.141 A 
ATOM     21  F   UNL     1      34.727  18.137   8.096  0.00  0.00    -0.204 F 
ATOM     22  C   UNL     1      34.191  20.378   8.633  0.00  0.00    +0.149 A 
ATOM     23  N   UNL     1      33.889  21.370   9.505  0.00  0.00    -0.255 NA
ENDBRANCH  16  17
ENDBRANCH   3  16
TORSDOF 5
ENDMDL
MODEL 4
REMARK VINA RESULT:      -6.2      2.556      3.282
REMARK  Name = ZINC000435351830
REMARK  5 active torsions:
REMARK  status: ('A' for Active; 'I' for Inactive)
REMARK    1  A    between atoms: C_2  and  C_3
REMARK    2  A    between atoms: C_7  and  C_8
REMARK    3  A    between atoms: C_8  and  C_9
REMARK    4  A    between atoms: N_11  and  C_12
REMARK    5  A    between atoms: C_12  and  C_13
REMARK                            x       y       z     vdW  Elec       q    Type
REMARK                         _______ _______ _______ _____ _____    ______ ____
ROOT
ATOM      1  C   UNL     1      31.282  21.609  13.849  0.00  0.00    +0.224 C 
ATOM      2  O   UNL     1      30.769  20.903  12.988  0.00  0.00    -0.275 OA
ATOM      3  N   UNL     1      31.700  22.898  13.647  0.00  0.00    -0.309 N 
ATOM      4  H   UNL     1      32.083  23.429  14.416  0.00  0.00    +0.149 HD
ENDROOT
BRANCH   1   5
ATOM      5  C   UNL     1      31.552  21.064  15.228  0.00  0.00    +0.072 C 
ATOM      6  C   UNL     1      31.560  22.035  16.404  0.00  0.00    +0.022 C 
ATOM      7  C   UNL     1      30.395  21.115  16.233  0.00  0.00    +0.022 C 
BRANCH   5  12
ATOM      8  C   UNL     1      34.336  18.583  16.127  0.00  0.00    +0.052 A 
ATOM      9  C   UNL     1      34.034  17.489  15.315  0.00  0.00    +0.019 A 
ATOM     10  C   UNL     1      32.895  17.516  14.510  0.00  0.00    +0.002 A 
ATOM     11  C   UNL     1      32.072  18.646  14.496  0.00  0.00    +0.005 A 
ATOM     12  C   UNL     1      32.369  19.775  15.279  0.00  0.00    -0.031 A 
ATOM     13  C   UNL     1      33.500  19.703  16.115  0.00  0.00    +0.023 A 
BRANCH   8  15
ATOM     14  N   UNL     1      36.464  18.565  17.609  0.00  0.00    -0.191 NA
ATOM     15  C   UNL     1      35.512  18.581  16.943  0.00  0.00    +0.099 C 
ENDBRANCH   8  15
ENDBRANCH   5  12
ENDBRANCH   1   5
BRANCH   3  16
ATOM     16  C   UNL     1      31.652  23.516  12.339  0.00  0.00    +0.159 C 
BRANCH  16  17
ATOM     17  C   UNL     1      32.990  23.529  11.635  0.00  0.00    +0.058 A 
ATOM     18  C   UNL     1      33.085  23.971  10.313  0.00  0.00    +0.028 A 
ATOM     19  C   UNL     1      34.325  23.950   9.677  0.00  0.00    +0.042 A 
ATOM     20  C   UNL     1      35.426  23.495  10.381  0.00  0.00    +0.141 A 
ATOM     21  F   UNL     1      36.632  23.454   9.799  0.00  0.00    -0.204 F 
ATOM     22  C   UNL     1      35.261  23.083  11.691  0.00  0.00    +0.149 A 
ATOM     23  N   UNL     1      34.070  23.094  12.339  0.00  0.00    -0.255 NA
ENDBRANCH  16  17
ENDBRANCH   3  16
TORSDOF 5
ENDMDL
MODEL 5
REMARK VINA RESULT:      -6.2      3.956      5.054
REMARK  Name = ZINC000435351830
REMARK  5 active torsions:
REMARK  status: ('A' for Active; 'I' for Inactive)
REMARK    1  A    between atoms: C_2  and  C_3
REMARK    2  A    between atoms: C_7  and  C_8
REMARK    3  A    between atoms: C_8  and  C_9
REMARK    4  A    between atoms: N_11  and  C_12
REMARK    5  A    between atoms: C_12  and  C_13
REMARK                            x       y       z     vdW  Elec       q    Type
REMARK                         _______ _______ _______ _____ _____    ______ ____
ROOT
ATOM      1  C   UNL     1      33.406  21.127  14.090  0.00  0.00    +0.224 C 
ATOM      2  O   UNL     1      34.017  20.965  13.040  0.00  0.00    -0.275 OA
ATOM      3  N   UNL     1      33.636  22.151  14.972  0.00  0.00    -0.309 N 
ATOM      4  H   UNL     1      33.066  22.238  15.801  0.00  0.00    +0.149 HD
ENDROOT
BRANCH   1   5
ATOM      5  C   UNL     1      32.356  20.138  14.529  0.00  0.00    +0.072 C 
ATOM      6  C   UNL     1      31.172  20.648  15.342  0.00  0.00    +0.022 C 
ATOM      7  C   UNL     1      30.961  20.285  13.909  0.00  0.00    +0.022 C 
BRANCH   5  12
ATOM      8  C   UNL     1      32.738  16.379  13.865  0.00  0.00    +0.052 A 
ATOM      9  C   UNL     1      33.525  15.964  14.940  0.00  0.00    +0.019 A 
ATOM     10  C   UNL     1      33.990  16.903  15.861  0.00  0.00    +0.002 A 
ATOM     11  C   UNL     1      33.649  18.252  15.724  0.00  0.00    +0.005 A 
ATOM     12  C   UNL     1      32.831  18.693  14.669  0.00  0.00    -0.031 A 
ATOM     13  C   UNL     1      32.412  17.732  13.729  0.00  0.00    +0.023 A 
BRANCH   8  15
ATOM     14  N   UNL     1      31.815  14.649  12.167  0.00  0.00    -0.191 NA
ATOM     15  C   UNL     1      32.234  15.428  12.922  0.00  0.00    +0.099 C 
ENDBRANCH   8  15
ENDBRANCH   5  12
ENDBRANCH   1   5
BRANCH   3  16
ATOM     16  C   UNL     1      34.713  23.096  14.772  0.00  0.00    +0.159 C 
BRANCH  16  17
ATOM     17  C   UNL     1      34.943  23.999  15.963  0.00  0.00    +0.058 A 
ATOM     18  C   UNL     1      35.760  25.126  15.844  0.00  0.00    +0.028 A 
ATOM     19  C   UNL     1      35.979  25.928  16.963  0.00  0.00    +0.042 A 
ATOM     20  C   UNL     1      35.372  25.584  18.158  0.00  0.00    +0.141 A 
ATOM     21  F   UNL     1      35.565  26.327  19.255  0.00  0.00    -0.204 F 
ATOM     22  C   UNL     1      34.566  24.460  18.200  0.00  0.00    +0.149 A 
ATOM     23  N   UNL     1      34.331  23.662  17.131  0.00  0.00    -0.255 NA
ENDBRANCH  16  17
ENDBRANCH   3  16
TORSDOF 5
ENDMDL
MODEL 6
REMARK VINA RESULT:      -6.2      1.895      2.511
REMARK  Name = ZINC000435351830
REMARK  5 active torsions:
REMARK  status: ('A' for Active; 'I' for Inactive)
REMARK    1  A    between atoms: C_2  and  C_3
REMARK    2  A    between atoms: C_7  and  C_8
REMARK    3  A    between atoms: C_8  and  C_9
REMARK    4  A    between atoms: N_11  and  C_12
REMARK    5  A    between atoms: C_12  and  C_13
REMARK                            x       y       z     vdW  Elec       q    Type
REMARK                         _______ _______ _______ _____ _____    ______ ____
ROOT
ATOM      1  C   UNL     1      33.280  20.393  12.813  0.00  0.00    +0.224 C 
ATOM      2  O   UNL     1      33.558  19.573  11.945  0.00  0.00    -0.275 OA
ATOM      3  N   UNL     1      33.698  21.698  12.810  0.00  0.00    -0.309 N 
ATOM      4  H   UNL     1      33.398  22.323  13.544  0.00  0.00    +0.149 HD
ENDROOT
BRANCH   1   5
ATOM      5  C   UNL     1      32.476  19.989  14.022  0.00  0.00    +0.072 C 
ATOM      6  C   UNL     1      31.756  21.075  14.812  0.00  0.00    +0.022 C 
ATOM      7  C   UNL     1      30.956  20.168  13.936  0.00  0.00    +0.022 C 
BRANCH   5  12
ATOM      8  C   UNL     1      34.378  17.583  16.327  0.00  0.00    +0.052 A 
ATOM      9  C   UNL     1      33.910  16.336  15.909  0.00  0.00    +0.019 A 
ATOM     10  C   UNL     1      32.932  16.260  14.918  0.00  0.00    +0.002 A 
ATOM     11  C   UNL     1      32.439  17.427  14.325  0.00  0.00    +0.005 A 
ATOM     12  C   UNL     1      32.916  18.694  14.703  0.00  0.00    -0.031 A 
ATOM     13  C   UNL     1      33.870  18.744  15.737  0.00  0.00    +0.023 A 
BRANCH   8  15
ATOM     14  N   UNL     1      36.215  17.769  18.148  0.00  0.00    -0.191 NA
ATOM     15  C   UNL     1      35.396  17.679  17.328  0.00  0.00    +0.099 C 
ENDBRANCH   8  15
ENDBRANCH   5  12
ENDBRANCH   1   5
BRANCH   3  16
ATOM     16  C   UNL     1      34.602  22.203  11.799  0.00  0.00    +0.159 C 
BRANCH  16  17
ATOM     17  C   UNL     1      33.896  22.672  10.547  0.00  0.00    +0.058 A 
ATOM     18  C   UNL     1      32.978  23.723  10.610  0.00  0.00    +0.028 A 
ATOM     19  C   UNL     1      32.320  24.121   9.447  0.00  0.00    +0.042 A 
ATOM     20  C   UNL     1      32.604  23.462   8.263  0.00  0.00    +0.141 A 
ATOM     21  F   UNL     1      31.986  23.813   7.128  0.00  0.00    -0.204 F 
ATOM     22  C   UNL     1      33.533  22.439   8.273  0.00  0.00    +0.149 A 
ATOM     23  N   UNL     1      34.192  22.030   9.385  0.00  0.00    -0.255 NA
ENDBRANCH  16  17
ENDBRANCH   3  16
TORSDOF 5
ENDMDL
MODEL 7
REMARK VINA RESULT:      -6.1      3.536      8.190
REMARK  Name = ZINC000435351830
REMARK  5 active torsions:
REMARK  status: ('A' for Active; 'I' for Inactive)
REMARK    1  A    between atoms: C_2  and  C_3
REMARK    2  A    between atoms: C_7  and  C_8
REMARK    3  A    between atoms: C_8  and  C_9
REMARK    4  A    between atoms: N_11  and  C_12
REMARK    5  A    between atoms: C_12  and  C_13
REMARK                            x       y       z     vdW  Elec       q    Type
REMARK                         _______ _______ _______ _____ _____    ______ ____
ROOT
ATOM      1  C   UNL     1      32.775  23.536  10.305  0.00  0.00    +0.224 C 
ATOM      2  O   UNL     1      32.067  24.491  10.607  0.00  0.00    -0.275 OA
ATOM      3  N   UNL     1      33.187  22.568  11.183  0.00  0.00    -0.309 N 
ATOM      4  H   UNL     1      33.742  21.792  10.851  0.00  0.00    +0.149 HD
ENDROOT
BRANCH   1   5
ATOM      5  C   UNL     1      33.312  23.391   8.904  0.00  0.00    +0.072 C 
ATOM      6  C   UNL     1      32.773  22.262   8.033  0.00  0.00    +0.022 C 
ATOM      7  C   UNL     1      32.334  23.662   7.754  0.00  0.00    +0.022 C 
BRANCH   5  12
ATOM      8  C   UNL     1      36.257  25.848   8.817  0.00  0.00    +0.052 A 
ATOM      9  C   UNL     1      37.238  25.114   8.148  0.00  0.00    +0.019 A 
ATOM     10  C   UNL     1      36.980  23.797   7.769  0.00  0.00    +0.002 A 
ATOM     11  C   UNL     1      35.734  23.220   8.033  0.00  0.00    +0.005 A 
ATOM     12  C   UNL     1      34.717  23.946   8.676  0.00  0.00    -0.031 A 
ATOM     13  C   UNL     1      35.019  25.258   9.088  0.00  0.00    +0.023 A 
BRANCH   8  15
ATOM     14  N   UNL     1      36.684  28.316   9.489  0.00  0.00    -0.191 NA
ATOM     15  C   UNL     1      36.496  27.207   9.195  0.00  0.00    +0.099 C 
ENDBRANCH   8  15
ENDBRANCH   5  12
ENDBRANCH   1   5
BRANCH   3  16
ATOM     16  C   UNL     1      32.884  22.646  12.595  0.00  0.00    +0.159 C 
BRANCH  16  17
ATOM     17  C   UNL     1      32.674  21.292  13.236  0.00  0.00    +0.058 A 
ATOM     18  C   UNL     1      31.380  20.810  13.454  0.00  0.00    +0.028 A 
ATOM     19  C   UNL     1      31.212  19.571  14.071  0.00  0.00    +0.042 A 
ATOM     20  C   UNL     1      32.336  18.854  14.442  0.00  0.00    +0.141 A 
ATOM     21  F   UNL     1      32.212  17.663  15.042  0.00  0.00    -0.204 F 
ATOM     22  C   UNL     1      33.586  19.387  14.184  0.00  0.00    +0.149 A 
ATOM     23  N   UNL     1      33.784  20.587  13.585  0.00  0.00    -0.255 NA
ENDBRANCH  16  17
ENDBRANCH   3  16
TORSDOF 5
ENDMDL
MODEL 8
REMARK VINA RESULT:      -6.1      3.235      5.172
REMARK  Name = ZINC000435351830
REMARK  5 active torsions:
REMARK  status: ('A' for Active; 'I' for Inactive)
REMARK    1  A    between atoms: C_2  and  C_3
REMARK    2  A    between atoms: C_7  and  C_8
REMARK    3  A    between atoms: C_8  and  C_9
REMARK    4  A    between atoms: N_11  and  C_12
REMARK    5  A    between atoms: C_12  and  C_13
REMARK                            x       y       z     vdW  Elec       q    Type
REMARK                         _______ _______ _______ _____ _____    ______ ____
ROOT
ATOM      1  C   UNL     1      33.811  16.457  15.236  0.00  0.00    +0.224 C 
ATOM      2  O   UNL     1      32.863  16.136  15.944  0.00  0.00    -0.275 OA
ATOM      3  N   UNL     1      34.367  17.709  15.205  0.00  0.00    -0.309 N 
ATOM      4  H   UNL     1      35.170  17.889  14.620  0.00  0.00    +0.149 HD
ENDROOT
BRANCH   1   5
ATOM      5  C   UNL     1      34.416  15.472  14.268  0.00  0.00    +0.072 C 
ATOM      6  C   UNL     1      35.849  15.008  14.504  0.00  0.00    +0.022 C 
ATOM      7  C   UNL     1      34.727  14.071  14.808  0.00  0.00    +0.022 C 
BRANCH   5  12
ATOM      8  C   UNL     1      31.977  14.878  11.367  0.00  0.00    +0.052 A 
ATOM      9  C   UNL     1      32.712  15.316  10.265  0.00  0.00    +0.019 A 
ATOM     10  C   UNL     1      33.982  15.862  10.451  0.00  0.00    +0.002 A 
ATOM     11  C   UNL     1      34.529  15.947  11.735  0.00  0.00    +0.005 A 
ATOM     12  C   UNL     1      33.824  15.484  12.860  0.00  0.00    -0.031 A 
ATOM     13  C   UNL     1      32.527  14.979  12.648  0.00  0.00    +0.023 A 
BRANCH   8  15
ATOM     14  N   UNL     1      29.631  13.815  11.065  0.00  0.00    -0.191 NA
ATOM     15  C   UNL     1      30.681  14.296  11.193  0.00  0.00    +0.099 C 
ENDBRANCH   8  15
ENDBRANCH   5  12
ENDBRANCH   1   5
BRANCH   3  16
ATOM     16  C   UNL     1      33.805  18.808  15.961  0.00  0.00    +0.159 C 
BRANCH  16  17
ATOM     17  C   UNL     1      33.067  19.809  15.100  0.00  0.00    +0.058 A 
ATOM     18  C   UNL     1      31.801  19.503  14.593  0.00  0.00    +0.028 A 
ATOM     19  C   UNL     1      31.152  20.431  13.781  0.00  0.00    +0.042 A 
ATOM     20  C   UNL     1      31.783  21.632  13.507  0.00  0.00    +0.141 A 
ATOM     21  F   UNL     1      31.191  22.545  12.725  0.00  0.00    -0.204 F 
ATOM     22  C   UNL     1      33.030  21.873  14.053  0.00  0.00    +0.149 A 
ATOM     23  N   UNL     1      33.687  20.993  14.848  0.00  0.00    -0.255 NA
ENDBRANCH  16  17
ENDBRANCH   3  16
TORSDOF 5
ENDMDL
MODEL 9
REMARK VINA RESULT:      -6.1      2.451      3.666
REMARK  Name = ZINC000435351830
REMARK  5 active torsions:
REMARK  status: ('A' for Active; 'I' for Inactive)
REMARK    1  A    between atoms: C_2  and  C_3
REMARK    2  A    between atoms: C_7  and  C_8
REMARK    3  A    between atoms: C_8  and  C_9
REMARK    4  A    between atoms: N_11  and  C_12
REMARK    5  A    between atoms: C_12  and  C_13
REMARK                            x       y       z     vdW  Elec       q    Type
REMARK                         _______ _______ _______ _____ _____    ______ ____
ROOT
ATOM      1  C   UNL     1      32.680  22.303  14.696  0.00  0.00    +0.224 C 
ATOM      2  O   UNL     1      33.787  22.782  14.914  0.00  0.00    -0.275 OA
ATOM      3  N   UNL     1      31.835  22.726  13.703  0.00  0.00    -0.309 N 
ATOM      4  H   UNL     1      30.951  22.257  13.563  0.00  0.00    +0.149 HD
ENDROOT
BRANCH   1   5
ATOM      5  C   UNL     1      32.126  21.214  15.578  0.00  0.00    +0.072 C 
ATOM      6  C   UNL     1      30.790  21.450  16.273  0.00  0.00    +0.022 C 
ATOM      7  C   UNL     1      30.842  20.522  15.104  0.00  0.00    +0.022 C 
BRANCH   5  12
ATOM      8  C   UNL     1      34.802  19.821  17.948  0.00  0.00    +0.052 A 
ATOM      9  C   UNL     1      35.202  18.655  17.295  0.00  0.00    +0.019 A 
ATOM     10  C   UNL     1      34.573  18.275  16.109  0.00  0.00    +0.002 A 
ATOM     11  C   UNL     1      33.562  19.070  15.563  0.00  0.00    +0.005 A 
ATOM     12  C   UNL     1      33.161  20.266  16.183  0.00  0.00    -0.031 A 
ATOM     13  C   UNL     1      33.781  20.604  17.401  0.00  0.00    +0.023 A 
BRANCH   8  15
ATOM     14  N   UNL     1      35.978  20.563  20.137  0.00  0.00    -0.191 NA
ATOM     15  C   UNL     1      35.450  20.239  19.154  0.00  0.00    +0.099 C 
ENDBRANCH   8  15
ENDBRANCH   5  12
ENDBRANCH   1   5
BRANCH   3  16
ATOM     16  C   UNL     1      32.153  23.863  12.868  0.00  0.00    +0.159 C 
BRANCH  16  17
ATOM     17  C   UNL     1      32.688  23.473  11.508  0.00  0.00    +0.058 A 
ATOM     18  C   UNL     1      32.320  24.200  10.373  0.00  0.00    +0.028 A 
ATOM     19  C   UNL     1      32.805  23.805   9.127  0.00  0.00    +0.042 A 
ATOM     20  C   UNL     1      33.644  22.707   9.056  0.00  0.00    +0.141 A 
ATOM     21  F   UNL     1      34.123  22.296   7.875  0.00  0.00    -0.204 F 
ATOM     22  C   UNL     1      33.976  22.043  10.223  0.00  0.00    +0.149 A 
ATOM     23  N   UNL     1      33.524  22.401  11.449  0.00  0.00    -0.255 NA
ENDBRANCH  16  17
ENDBRANCH   3  16
TORSDOF 5
ENDMDL
