REMARK  Name = ZINC000543478179
REMARK  8 active torsions:
REMARK  status: ('A' for Active; 'I' for Inactive)
REMARK    1  A    between atoms: C_1  and  C_2
REMARK    2  A    between atoms: C_2  and  N_3
REMARK    3  A    between atoms: N_9  and  C_10
REMARK    4  A    between atoms: C_10  and  C_11
REMARK    5  A    between atoms: C_10  and  C_12
REMARK    6  A    between atoms: C_15  and  O_16
REMARK    7  A    between atoms: O_16  and  C_17
REMARK    8  A    between atoms: C_17  and  C_18
REMARK                            x       y       z     vdW  Elec       q    Type
REMARK                         _______ _______ _______ _____ _____    ______ ____
ROOT
ATOM      1  C   UNL     1       6.000  -3.713  -6.324  0.00  0.00    +0.102 C 
ATOM      2  C   UNL     1       5.907  -2.998  -4.974  0.00  0.00    +0.033 C 
ENDROOT
BRANCH   1   9
ATOM      3  N   UNL     1       5.599  -8.994  -5.084  0.00  0.00    -0.299 N 
ATOM      4  C   UNL     1       4.430  -8.903  -5.957  0.00  0.00    +0.127 C 
ATOM      5  C   UNL     1       3.623  -7.628  -5.696  0.00  0.00    +0.129 C 
ATOM      6  N   UNL     1       4.472  -6.444  -5.860  0.00  0.00    -0.275 N 
ATOM      7  C   UNL     1       3.999  -5.378  -6.571  0.00  0.00    +0.303 C 
ATOM      8  O   UNL     1       2.881  -5.398  -7.096  0.00  0.00    -0.253 OA
ATOM      9  N   UNL     1       4.714  -4.248  -6.763  0.00  0.00    -0.293 N 
ATOM     10  C   UNL     1       5.768  -6.533  -5.205  0.00  0.00    +0.205 C 
ATOM     11  C   UNL     1       6.220  -7.861  -4.598  0.00  0.00    +0.233 C 
ATOM     12  O   UNL     1       7.177  -7.892  -3.820  0.00  0.00    -0.274 OA
ATOM     13  H   UNL     1       4.166  -3.617  -7.335  0.00  0.00    +0.151 HD
BRANCH   3  15
ATOM     14  C   UNL     1       5.582 -10.789  -3.421  0.00  0.00    +0.024 C 
ATOM     15  C   UNL     1       6.141 -10.296  -4.743  0.00  0.00    +0.104 C 
ENDBRANCH   3  15
ENDBRANCH   1   9
BRANCH   1  16
ATOM     16  C   UNL     1       6.588  -2.822  -7.403  0.00  0.00    -0.024 A 
ATOM     17  C   UNL     1       6.063  -1.553  -7.675  0.00  0.00    +0.009 A 
ATOM     18  C   UNL     1       6.604  -0.756  -8.685  0.00  0.00    +0.049 A 
ATOM     19  C   UNL     1       7.660  -1.230  -9.475  0.00  0.00    +0.156 A 
ATOM     20  C   UNL     1       8.207  -2.476  -9.179  0.00  0.00    +0.165 A 
ATOM     21  F   UNL     1       9.246  -2.948  -9.886  0.00  0.00    -0.202 F 
ATOM     22  C   UNL     1       7.677  -3.274  -8.167  0.00  0.00    +0.047 A 
BRANCH  19  23
ATOM     23  O   UNL     1       8.196  -0.552 -10.534  0.00  0.00    -0.489 OA
BRANCH  23  24
ATOM     24  C   UNL     1       7.354   0.457 -11.092  0.00  0.00    +0.232 C 
BRANCH  24  25
ATOM     25  C   UNL     1       7.797   0.756 -12.489  0.00  0.00    +0.027 C 
ATOM     26  C   UNL     1       6.968   1.683 -13.342  0.00  0.00    +0.007 C 
ATOM     27  C   UNL     1       7.023   0.215 -13.665  0.00  0.00    +0.007 C 
ENDBRANCH  24  25
ENDBRANCH  23  24
ENDBRANCH  19  23
ENDBRANCH   1  16
TORSDOF 6
