REMARK  Name = ZINC001228612316
REMARK  5 active torsions:
REMARK  status: ('A' for Active; 'I' for Inactive)
REMARK    1  A    between atoms: C_2  and  C_4
REMARK    2  A    between atoms: C_8  and  O_9
REMARK    3  A    between atoms: O_9  and  C_10
REMARK    4  A    between atoms: C_10  and  C_11
REMARK    5  A    between atoms: C_10  and  C_17
REMARK                            x       y       z     vdW  Elec       q    Type
REMARK                         _______ _______ _______ _____ _____    ______ ____
ROOT
ATOM      1  C   UNL     1       2.709  -0.520  -2.951  0.00  0.00    +0.040 A 
ATOM      2  C   UNL     1       2.013   0.649  -3.278  0.00  0.00    +0.013 A 
ATOM      3  C   UNL     1       2.712   1.802  -3.636  0.00  0.00    +0.004 A 
ATOM      4  C   UNL     1       4.109   1.796  -3.671  0.00  0.00    +0.046 A 
ATOM      5  C   UNL     1       4.814   0.638  -3.343  0.00  0.00    +0.122 A 
ATOM      6  C   UNL     1       4.109  -0.519  -2.986  0.00  0.00    +0.058 A 
ENDROOT
BRANCH   1   8
ATOM      7  N   UNL     1       2.534  -2.684  -1.831  0.00  0.00    -0.325 N 
ATOM      8  C   UNL     1       1.918  -1.728  -2.593  0.00  0.00    +0.242 C 
ATOM      9  O   UNL     1       0.747  -1.855  -2.930  0.00  0.00    -0.270 OA
ATOM     10  H   UNL     1       1.947  -3.444  -1.511  0.00  0.00    +0.145 HD
ATOM     11  H   UNL     1       3.397  -2.517  -1.337  0.00  0.00    +0.145 HD
ENDBRANCH   1   8
BRANCH   5  12
ATOM     12  O   UNL     1       6.176   0.528  -3.270  0.00  0.00    -0.484 OA
BRANCH  12  13
ATOM     13  C   UNL     1       6.986   1.412  -4.062  0.00  0.00    +0.208 C 
BRANCH  13  14
ATOM     14  C   UNL     1       7.278   2.733  -3.377  0.00  0.00    +0.011 A 
ATOM     15  C   UNL     1       7.377   2.873  -1.990  0.00  0.00    +0.010 A 
ATOM     16  C   UNL     1       7.736   4.104  -1.445  0.00  0.00    +0.020 A 
ATOM     17  C   UNL     1       7.988   5.159  -2.307  0.00  0.00    +0.111 A 
ATOM     18  N   UNL     1       7.894   5.068  -3.649  0.00  0.00    -0.263 NA
ATOM     19  C   UNL     1       7.546   3.863  -4.150  0.00  0.00    +0.118 A 
ENDBRANCH  13  14
BRANCH  13  20
ATOM     20  C   UNL     1       8.327   0.745  -4.350  0.00  0.00    +0.034 C 
ATOM     21  C   UNL     1       8.383  -0.604  -5.026  0.00  0.00    +0.008 C 
ATOM     22  C   UNL     1       8.826  -0.467  -3.595  0.00  0.00    +0.008 C 
ENDBRANCH  13  20
ENDBRANCH  12  13
ENDBRANCH   5  12
TORSDOF 5
