REMARK  Name = ZINC000583127796
REMARK  2 active torsions:
REMARK  status: ('A' for Active; 'I' for Inactive)
REMARK    1  A    between atoms: C_2  and  C_4
REMARK    2  A    between atoms: C_7  and  C_8
REMARK                            x       y       z     vdW  Elec       q    Type
REMARK                         _______ _______ _______ _____ _____    ______ ____
ROOT
ATOM      1  C   UNL     1       5.314  -3.538  -3.517  0.00  0.00    +0.247 C 
ATOM      2  O   UNL     1       5.269  -4.472  -2.714  0.00  0.00    -0.270 OA
ATOM      3  N   UNL     1       4.924  -3.667  -4.859  0.00  0.00    -0.297 N 
ATOM      4  C   UNL     1       4.946  -2.619  -5.881  0.00  0.00    +0.108 C 
ATOM      5  C   UNL     1       3.601  -2.436  -6.559  0.00  0.00    +0.020 C 
ATOM      6  C   UNL     1       3.031  -3.757  -7.042  0.00  0.00    +0.011 C 
ATOM      7  C   UNL     1       3.002  -4.845  -5.941  0.00  0.00    -0.004 C 
ATOM      8  C   UNL     1       2.535  -6.152  -6.617  0.00  0.00    +0.020 C 
ATOM      9  C   UNL     1       1.914  -7.072  -5.589  0.00  0.00    +0.070 C 
ATOM     10  S   UNL     1       0.958  -5.972  -4.534  0.00  0.00    -0.160 S 
ATOM     11  C   UNL     1       1.979  -4.502  -4.835  0.00  0.00    +0.077 C 
ATOM     12  C   UNL     1       4.422  -4.973  -5.328  0.00  0.00    +0.115 C 
ENDROOT
BRANCH   1  16
ATOM     13  C   UNL     1       6.159   0.420  -2.121  0.00  0.00    +0.037 A 
ATOM     14  C   UNL     1       6.806  -0.052  -3.266  0.00  0.00    +0.014 A 
ATOM     15  C   UNL     1       6.632  -1.379  -3.664  0.00  0.00    +0.014 A 
ATOM     16  C   UNL     1       5.727  -2.201  -2.990  0.00  0.00    +0.037 A 
ATOM     17  C   UNL     1       5.156  -1.757  -1.789  0.00  0.00    +0.014 A 
ATOM     18  C   UNL     1       5.383  -0.449  -1.349  0.00  0.00    +0.014 A 
BRANCH  13  20
ATOM     19  N   UNL     1       6.432   2.766  -2.699  0.00  0.00    -0.325 N 
ATOM     20  C   UNL     1       6.279   1.843  -1.702  0.00  0.00    +0.242 C 
ATOM     21  O   UNL     1       6.192   2.176  -0.532  0.00  0.00    -0.270 OA
ATOM     22  H   UNL     1       6.389   3.737  -2.414  0.00  0.00    +0.145 HD
ATOM     23  H   UNL     1       6.223   2.558  -3.666  0.00  0.00    +0.145 HD
ENDBRANCH  13  20
ENDBRANCH   1  16
TORSDOF 2
