REMARK  Name = ZINC000560333501
REMARK  5 active torsions:
REMARK  status: ('A' for Active; 'I' for Inactive)
REMARK    1  A    between atoms: C_2  and  C_3
REMARK    2  A    between atoms: C_7  and  C_8
REMARK    3  A    between atoms: C_8  and  C_9
REMARK    4  A    between atoms: N_11  and  C_12
REMARK    5  A    between atoms: C_12  and  C_13
REMARK                            x       y       z     vdW  Elec       q    Type
REMARK                         _______ _______ _______ _____ _____    ______ ____
ROOT
ATOM      1  C   UNL     1       3.934   2.202   0.776  0.00  0.00    +0.217 C 
ATOM      2  O   UNL     1       4.489   1.106   0.662  0.00  0.00    -0.275 OA
ATOM      3  N   UNL     1       4.547   3.399   0.448  0.00  0.00    -0.315 N 
ATOM      4  H   UNL     1       3.928   4.185   0.292  0.00  0.00    +0.149 HD
ENDROOT
BRANCH   1   5
ATOM      5  C   UNL     1       2.520   2.304   1.297  0.00  0.00    +0.131 C 
BRANCH   5  10
ATOM      6  C   UNL     1       0.361   2.411  -1.870  0.00  0.00    +0.052 A 
ATOM      7  C   UNL     1      -0.578   3.388  -1.520  0.00  0.00    +0.019 A 
ATOM      8  C   UNL     1      -0.494   4.020  -0.280  0.00  0.00    +0.002 A 
ATOM      9  C   UNL     1       0.527   3.684   0.611  0.00  0.00    +0.004 A 
ATOM     10  C   UNL     1       1.481   2.713   0.275  0.00  0.00    -0.037 A 
ATOM     11  C   UNL     1       1.383   2.073  -0.972  0.00  0.00    +0.023 A 
BRANCH   6  13
ATOM     12  N   UNL     1       0.174   1.214  -4.164  0.00  0.00    -0.191 NA
ATOM     13  C   UNL     1       0.262   1.748  -3.137  0.00  0.00    +0.099 C 
ENDBRANCH   6  13
ENDBRANCH   5  10
ENDBRANCH   1   5
BRANCH   3  14
ATOM     14  C   UNL     1       5.756   3.352  -0.355  0.00  0.00    +0.108 C 
BRANCH  14  15
ATOM     15  C   UNL     1       6.894   4.303   0.061  0.00  0.00    +0.011 C 
ATOM     16  C   UNL     1       6.537   5.780  -0.080  0.00  0.00    +0.033 C 
ATOM     17  C   UNL     1       6.211   6.118  -1.527  0.00  0.00    +0.161 C 
ATOM     18  O   UNL     1       7.177   5.638  -2.459  0.00  0.00    -0.373 OA
ATOM     19  C   UNL     1       7.832   4.348  -2.286  0.00  0.00    +0.070 C 
ATOM     20  C   UNL     1       7.244   3.108  -3.045  0.00  0.00    +0.035 C 
ATOM     21  C   UNL     1       8.126   3.470  -4.240  0.00  0.00    +0.006 C 
ATOM     22  C   UNL     1       9.056   4.201  -3.253  0.00  0.00    +0.035 C 
ATOM     23  C   UNL     1       8.147   4.073  -0.810  0.00  0.00    +0.040 C 
ENDBRANCH  14  15
ENDBRANCH   3  14
TORSDOF 5
