REMARK  Name = ZINC000870248439
REMARK  2 active torsions:
REMARK  status: ('A' for Active; 'I' for Inactive)
REMARK    1  A    between atoms: C_2  and  C_4
REMARK    2  A    between atoms: C_7  and  C_8
REMARK                            x       y       z     vdW  Elec       q    Type
REMARK                         _______ _______ _______ _____ _____    ______ ____
ROOT
ATOM      1  C   UNL     1       4.999   3.608  -3.664  0.00  0.00    +0.247 C 
ATOM      2  O   UNL     1       5.153   2.765  -4.547  0.00  0.00    -0.270 OA
ATOM      3  N   UNL     1       4.426   4.866  -3.895  0.00  0.00    -0.297 N 
ATOM      4  C   UNL     1       4.251   5.919  -2.892  0.00  0.00    +0.108 C 
ATOM      5  C   UNL     1       2.949   6.694  -3.053  0.00  0.00    +0.026 C 
ATOM      6  C   UNL     1       2.705   7.203  -4.490  0.00  0.00    -0.025 C 
ATOM      7  C   UNL     1       1.263   7.768  -4.543  0.00  0.00    +0.017 C 
ATOM      8  C   UNL     1       0.850   8.355  -5.886  0.00  0.00    +0.069 C 
ATOM      9  S   UNL     1       1.908   9.740  -6.388  0.00  0.00    -0.161 S 
ATOM     10  C   UNL     1       3.533   8.957  -6.204  0.00  0.00    +0.069 C 
ATOM     11  C   UNL     1       3.712   8.334  -4.824  0.00  0.00    +0.017 C 
ATOM     12  C   UNL     1       2.846   5.982  -5.436  0.00  0.00    +0.026 C 
ATOM     13  C   UNL     1       4.183   5.257  -5.281  0.00  0.00    +0.108 C 
ENDROOT
BRANCH   1  17
ATOM     14  C   UNL     1       5.860   2.566   0.386  0.00  0.00    +0.037 A 
ATOM     15  C   UNL     1       6.362   3.764  -0.134  0.00  0.00    +0.014 A 
ATOM     16  C   UNL     1       6.169   4.067  -1.482  0.00  0.00    +0.014 A 
ATOM     17  C   UNL     1       5.394   3.224  -2.286  0.00  0.00    +0.037 A 
ATOM     18  C   UNL     1       4.970   1.985  -1.789  0.00  0.00    +0.014 A 
ATOM     19  C   UNL     1       5.213   1.651  -0.454  0.00  0.00    +0.014 A 
BRANCH  14  21
ATOM     20  N   UNL     1       6.000   3.290   2.702  0.00  0.00    -0.325 N 
ATOM     21  C   UNL     1       6.003   2.240   1.827  0.00  0.00    +0.242 C 
ATOM     22  O   UNL     1       6.066   1.085   2.220  0.00  0.00    -0.270 OA
ATOM     23  H   UNL     1       5.974   3.050   3.685  0.00  0.00    +0.145 HD
ATOM     24  H   UNL     1       5.688   4.214   2.438  0.00  0.00    +0.145 HD
ENDBRANCH  14  21
ENDBRANCH   1  17
TORSDOF 2
