REMARK  Name = ZINC000329563636
REMARK  3 active torsions:
REMARK  status: ('A' for Active; 'I' for Inactive)
REMARK    1  A    between atoms: C_1  and  C_2
REMARK    2  A    between atoms: C_2  and  N_3
REMARK    3  A    between atoms: N_9  and  C_10
REMARK                            x       y       z     vdW  Elec       q    Type
REMARK                         _______ _______ _______ _____ _____    ______ ____
ROOT
ATOM      1  C   UNL     1       2.777   5.756   5.070  0.00  0.00    +0.112 C 
ATOM      2  C   UNL     1       4.027   6.640   5.020  0.00  0.00    +0.075 C 
ATOM      3  C   UNL     1       3.764   8.145   5.182  0.00  0.00    +0.113 C 
ATOM      4  C   UNL     1       3.660   8.633   6.650  0.00  0.00    +0.048 C 
ATOM      5  C   UNL     1       4.886   9.504   6.900  0.00  0.00    +0.004 C 
ATOM      6  C   UNL     1       5.206  10.089   5.539  0.00  0.00    +0.004 C 
ATOM      7  C   UNL     1       4.977   8.916   4.602  0.00  0.00    +0.048 C 
ATOM      8  O   UNL     1       2.601   8.567   4.445  0.00  0.00    -0.485 OA
ATOM      9  C   UNL     1       1.466   7.884   4.795  0.00  0.00    +0.126 A 
ATOM     10  C   UNL     1       0.264   8.589   4.796  0.00  0.00    +0.046 A 
ATOM     11  C   UNL     1      -0.917   7.954   5.183  0.00  0.00    +0.004 A 
ATOM     12  C   UNL     1      -0.899   6.610   5.549  0.00  0.00    +0.001 A 
ATOM     13  C   UNL     1       0.301   5.900   5.516  0.00  0.00    +0.009 A 
ATOM     14  C   UNL     1       1.496   6.535   5.138  0.00  0.00    +0.015 A 
ENDROOT
BRANCH   1  21
ATOM     15  N   UNL     1       2.098   0.962   1.050  0.00  0.00    -0.299 N 
ATOM     16  C   UNL     1       2.790   0.620   2.292  0.00  0.00    +0.127 C 
ATOM     17  C   UNL     1       3.877   1.631   2.644  0.00  0.00    +0.129 C 
ATOM     18  N   UNL     1       3.284   2.959   2.711  0.00  0.00    -0.275 N 
ATOM     19  C   UNL     1       3.352   3.664   3.891  0.00  0.00    +0.303 C 
ATOM     20  O   UNL     1       3.902   3.218   4.897  0.00  0.00    -0.253 OA
ATOM     21  N   UNL     1       2.740   4.884   3.896  0.00  0.00    -0.292 N 
ATOM     22  C   UNL     1       2.613   3.385   1.480  0.00  0.00    +0.205 C 
ATOM     23  C   UNL     1       2.021   2.272   0.590  0.00  0.00    +0.233 C 
ATOM     24  O   UNL     1       1.489   2.561  -0.484  0.00  0.00    -0.274 OA
ATOM     25  H   UNL     1       2.628   5.361   3.017  0.00  0.00    +0.151 HD
BRANCH  15  27
ATOM     26  C   UNL     1       2.237  -0.791  -0.684  0.00  0.00    +0.024 C 
ATOM     27  C   UNL     1       1.372  -0.093   0.351  0.00  0.00    +0.104 C 
ENDBRANCH  15  27
ENDBRANCH   1  21
TORSDOF 2
