REMARK  Name = ZINC000435351830
REMARK  5 active torsions:
REMARK  status: ('A' for Active; 'I' for Inactive)
REMARK    1  A    between atoms: C_2  and  C_3
REMARK    2  A    between atoms: C_7  and  C_8
REMARK    3  A    between atoms: C_8  and  C_9
REMARK    4  A    between atoms: N_11  and  C_12
REMARK    5  A    between atoms: C_12  and  C_13
REMARK                            x       y       z     vdW  Elec       q    Type
REMARK                         _______ _______ _______ _____ _____    ______ ____
ROOT
ATOM      1  C   UNL     1       0.905   3.304   0.736  0.00  0.00    +0.224 C 
ATOM      2  O   UNL     1       0.797   3.417   1.952  0.00  0.00    -0.275 OA
ATOM      3  N   UNL     1       0.020   3.822  -0.173  0.00  0.00    -0.309 N 
ATOM      4  H   UNL     1       0.196   3.717  -1.162  0.00  0.00    +0.149 HD
ENDROOT
BRANCH   1   5
ATOM      5  C   UNL     1       2.033   2.504   0.136  0.00  0.00    +0.072 C 
ATOM      6  C   UNL     1       3.098   3.240  -0.669  0.00  0.00    +0.022 C 
ATOM      7  C   UNL     1       3.437   2.752   0.701  0.00  0.00    +0.022 C 
BRANCH   5  12
ATOM      8  C   UNL     1       1.323  -1.219   0.730  0.00  0.00    +0.052 A 
ATOM      9  C   UNL     1       1.303  -1.730  -0.568  0.00  0.00    +0.019 A 
ATOM     10  C   UNL     1       1.461  -0.869  -1.654  0.00  0.00    +0.002 A 
ATOM     11  C   UNL     1       1.665   0.498  -1.444  0.00  0.00    +0.005 A 
ATOM     12  C   UNL     1       1.722   1.035  -0.146  0.00  0.00    -0.031 A 
ATOM     13  C   UNL     1       1.515   0.151   0.930  0.00  0.00    +0.023 A 
BRANCH   8  15
ATOM     14  N   UNL     1       1.086  -2.796   2.775  0.00  0.00    -0.191 NA
ATOM     15  C   UNL     1       1.184  -2.090   1.857  0.00  0.00    +0.099 C 
ENDBRANCH   8  15
ENDBRANCH   5  12
ENDBRANCH   1   5
BRANCH   3  16
ATOM     16  C   UNL     1      -1.196   4.485   0.245  0.00  0.00    +0.159 C 
BRANCH  16  17
ATOM     17  C   UNL     1      -1.018   5.969   0.475  0.00  0.00    +0.058 A 
ATOM     18  C   UNL     1      -0.619   6.444   1.727  0.00  0.00    +0.028 A 
ATOM     19  C   UNL     1      -0.487   7.818   1.922  0.00  0.00    +0.042 A 
ATOM     20  C   UNL     1      -0.751   8.669   0.863  0.00  0.00    +0.141 A 
ATOM     21  F   UNL     1      -0.641   9.995   1.016  0.00  0.00    -0.204 F 
ATOM     22  C   UNL     1      -1.130   8.128  -0.352  0.00  0.00    +0.149 A 
ATOM     23  N   UNL     1      -1.265   6.798  -0.575  0.00  0.00    -0.255 NA
ENDBRANCH  16  17
ENDBRANCH   3  16
TORSDOF 5
