REMARK  Name = ZINC000826139982
REMARK  4 active torsions:
REMARK  status: ('A' for Active; 'I' for Inactive)
REMARK    1  A    between atoms: C_2  and  C_4
REMARK    2  A    between atoms: C_8  and  C_10
REMARK    3  A    between atoms: C_14  and  S_15
REMARK    4  A    between atoms: S_15  and  C_16
REMARK                            x       y       z     vdW  Elec       q    Type
REMARK                         _______ _______ _______ _____ _____    ______ ____
ROOT
ATOM      1  C   UNL     1       2.580  -1.763  -1.712  0.00  0.00    +0.093 C 
ATOM      2  C   UNL     1       2.271  -1.679  -0.213  0.00  0.00    +0.033 C 
ATOM      3  C   UNL     1       3.224  -2.663   0.452  0.00  0.00    +0.109 C 
ATOM      4  N   UNL     1       3.486  -3.652  -0.573  0.00  0.00    -0.297 N 
ATOM      5  C   UNL     1       3.856  -4.952  -0.251  0.00  0.00    +0.247 C 
ATOM      6  O   UNL     1       3.895  -5.338   0.917  0.00  0.00    -0.270 OA
ATOM      7  C   UNL     1       3.432  -3.015  -1.879  0.00  0.00    +0.120 C 
ENDROOT
BRANCH   5   8
ATOM      8  C   UNL     1       4.151  -5.957  -1.325  0.00  0.00    +0.038 A 
ATOM      9  C   UNL     1       4.750  -5.629  -2.545  0.00  0.00    +0.013 A 
ATOM     10  C   UNL     1       4.888  -6.579  -3.556  0.00  0.00    +0.002 A 
ATOM     11  C   UNL     1       4.524  -7.900  -3.320  0.00  0.00    +0.015 A 
ATOM     12  C   UNL     1       4.052  -8.283  -2.061  0.00  0.00    +0.017 A 
ATOM     13  C   UNL     1       3.833  -7.304  -1.081  0.00  0.00    +0.028 A 
BRANCH  12  14
ATOM     14  S   UNL     1       3.689  -9.990  -1.706  0.00  0.00    -0.016 S 
BRANCH  14  15
ATOM     15  C   UNL     1       5.310 -10.749  -1.941  0.00  0.00    +0.448 C 
ATOM     16  F   UNL     1       6.279  -9.878  -2.309  0.00  0.00    -0.160 F 
ATOM     17  F   UNL     1       5.730 -11.352  -0.803  0.00  0.00    -0.160 F 
ATOM     18  F   UNL     1       5.254 -11.705  -2.901  0.00  0.00    -0.160 F 
ENDBRANCH  14  15
ENDBRANCH  12  14
ENDBRANCH   5   8
BRANCH   1  20
ATOM     19  N   UNL     1       2.521   0.614  -2.210  0.00  0.00    -0.329 N 
ATOM     20  C   UNL     1       3.258  -0.531  -2.282  0.00  0.00    +0.215 C 
ATOM     21  O   UNL     1       4.350  -0.526  -2.830  0.00  0.00    -0.276 OA
ATOM     22  H   UNL     1       2.907   1.445  -2.641  0.00  0.00    +0.145 HD
ATOM     23  H   UNL     1       1.585   0.652  -1.833  0.00  0.00    +0.145 HD
ENDBRANCH   1  20
TORSDOF 4
